Protein in water
98266
    1DT5    H5T    1   2.006   5.688   3.340 -1.6097 -0.4721  1.1891
    1DT5    O5'    2   2.072   5.720   3.401 -0.5160  0.2389 -0.2951
    1DT5    C5'    3   2.161   5.798   3.327  0.4119  1.2161  0.1360
    1DT5   H5'1    4   2.203   5.729   3.253 -0.8753  0.1759  0.3269
    1DT5   H5'2    5   2.237   5.839   3.392 -1.1292  1.5007  1.8373
    1DT5    C4'    6   2.093   5.916   3.257  0.6668  0.7989  0.1811
    1DT5    H4'    7   1.993   5.899   3.215  1.7067 -1.3142 -1.6914
    1DT5    O4'    8   2.088   6.030   3.345  0.5685 -0.4746  0.7571
    1DT5    C1'    9   2.178   6.125   3.295  0.8633  0.1769  0.0758
    1DT5    H1'   10   2.123   6.201   3.239  1.6036  0.8120  0.1925
    1DT5     N1   11   2.256   6.190   3.401  0.2637  0.1813 -0.0210
    1DT5     C6   12   2.286   6.125   3.520  0.4184  0.0880 -0.1883
    1DT5     H6   13   2.247   6.025   3.532  1.8065 -0.5804 -0.9101
    1DT5     C5   14   2.365   6.186   3.611 -0.5222 -0.3145  0.4611
    1DT5     C7   15   2.408   6.108   3.729 -0.2849 -0.5357  0.6748
    1DT5    H71   16   2.513   6.123   3.754  0.3125 -0.3534 -1.7198
    1DT5    H72   17   2.346   6.151   3.807  0.9382 -0.6456  1.7407
    1DT5    H73   18   2.402   5.999   3.724 -0.9987 -0.4552 -3.2869
    1DT5     C4   19   2.412   6.321   3.590  0.0712 -0.4887  0.4377
    1DT5     O4   20   2.476   6.390   3.661  0.0897 -0.4613 -0.1417
    1DT5     N3   21   2.382   6.379   3.471 -0.5803 -0.4962  0.3362
    1DT5     H3   22   2.435   6.463   3.452  0.3287 -0.8273  1.2989
    1DT5     C2   23   2.311   6.315   3.373 -0.2095 -0.0780  0.9508
    1DT5     O2   24   2.299   6.368   3.260  0.0531  0.1380 -0.2406
    1DT5    C3'   25   2.172   5.953   3.132  0.4266  0.0569  0.4893
    1DT5    H3'   26   2.218   5.860   3.097  0.4711  0.0408  0.5894
    1DT5    C2'   27   2.270   6.048   3.200  0.3483 -0.3313  0.3549
    1DT5   H2'1   28   2.347   5.992   3.253  0.3501  0.5374  1.3104
    1DT5   H2'2   29   2.328   6.111   3.132  2.7174 -1.4140  1.2681
    1DT5    O3'   30   2.093   6.013   3.028 -0.3952  0.0474  0.1171
    2DT       P   31   2.137   5.997   2.873  0.4397 -0.1465  0.4451
    2DT     O1P   32   2.019   6.040   2.792 -0.4558  0.8436 -0.5797
    2DT     O2P   33   2.199   5.863   2.847 -0.2565 -0.2231 -0.2650
    2DT     O5'   34   2.239   6.119   2.858 -0.3108  0.3617  0.2360
    2DT     C5'   35   2.204   6.249   2.901  0.0880  0.4777 -0.5336
    2DT    H5'1   36   2.186   6.248   3.008 -1.4486  0.9459 -0.7656
    2DT    H5'2   37   2.116   6.293   2.853 -0.6086  2.7638  2.5182
    2DT     C4'   38   2.325   6.340   2.877  0.6095  0.9058 -0.2214
    2DT     H4'   39   2.293   6.445   2.882 -3.2848 -0.1851  1.5251
    2DT     O4'   40   2.431   6.320   2.974 -0.7290 -0.1082 -0.5435
    2DT     C1'   41   2.561   6.312   2.912  0.2213  0.2640 -0.0306
    2DT     H1'   42   2.596   6.413   2.891 -0.1827  0.3796 -0.1734
    2DT      N1   43   2.657   6.244   3.000  0.7859 -0.5390 -0.2789
    2DT      C6   44   2.628   6.123   3.057 -0.3877  0.2829 -0.7978
    2DT      H6   45   2.536   6.078   3.026  0.3260 -0.4299 -1.9694
    2DT      C5   46   2.719   6.057   3.137 -0.6133  0.1315  0.2947
    2DT      C7   47   2.693   5.918   3.184  0.3419 -0.2287 -0.0081
    2DT     H71   48   2.757   5.848   3.129 -0.3629  0.2249 -1.4341
    2DT     H72   49   2.722   5.920   3.290 -1.3774  1.5217  0.4732
    2DT     H73   50   2.591   5.898   3.151  0.0503  0.2342  0.5954
    2DT      C4   51   2.847   6.125   3.172 -0.4140  0.4848  0.0305
    2DT      O4   52   2.932   6.082   3.249 -0.1501 -0.2782 -0.2014
    2DT      N3   53   2.859   6.258   3.126 -0.1540  0.2999  0.1615
    2DT      H3   54   2.933   6.312   3.169  1.5010 -2.2607  0.7965
    2DT      C2   55   2.775   6.313   3.029 -0.0678  0.6624  0.0904
    2DT      O2   56   2.806   6.420   2.980 -0.0816  0.4791  0.5871
    2DT     C3'   57   2.406   6.321   2.745  0.1458 -0.0845 -0.1048
    2DT     H3'   58   2.347   6.268   2.670  0.3431 -1.4664  0.6644
    2DT     C2'   59   2.530   6.240   2.785 -0.2311 -0.5146  0.9429
    2DT    H2'1   60   2.506   6.136   2.808  0.4247 -1.0335 -0.5681
    2DT    H2'2   61   2.608   6.246   2.709  0.2729 -1.2290  1.3906
    2DT     O3'   62   2.428   6.456   2.691  0.1488  0.3543  0.1609
    3DT       P   63   2.454   6.496   2.540 -0.0493  0.1924  0.4800
    3DT     O1P   64   2.427   6.639   2.513  0.1443  0.6966  0.7821
    3DT     O2P   65   2.390   6.394   2.454  0.0451 -0.0143  0.0133
    3DT     O5'   66   2.613   6.463   2.528  0.0686 -0.1207  0.4035
    3DT     C5'   67   2.714   6.547   2.586 -0.2251  0.0718 -0.2212
    3DT    H5'1   68   2.687   6.583   2.685 -1.4823  0.8225 -0.8077
    3DT    H5'2   69   2.725   6.631   2.518 -1.8305  0.7465  0.3019
    3DT     C4'   70   2.848   6.466   2.591  0.0568 -0.3417 -1.0977
    3DT     H4'   71   2.923   6.530   2.637  1.2914 -2.1673 -0.4665
    3DT     O4'   72   2.837   6.347   2.674 -0.1242 -0.2147  0.1663
    3DT     C1'   73   2.916   6.249   2.603  0.6098  0.2980 -0.5345
    3DT     H1'   74   3.021   6.251   2.633  0.8259 -3.5066 -0.5705
    3DT      N1   75   2.871   6.114   2.663 -0.1804 -0.4946  0.3104
    3DT      C6   76   2.779   6.029   2.604  0.3840 -0.2227  0.5686
    3DT      H6   77   2.740   6.045   2.505 -1.1261 -2.6378  0.7108
    3DT      C5   78   2.740   5.912   2.658  0.4447 -0.5999 -0.5763
    3DT      C7   79   2.642   5.834   2.585 -0.1955  0.1803  0.3068
    3DT     H71   80   2.689   5.738   2.563 -0.5308  0.3498 -1.2343
    3DT     H72   81   2.554   5.815   2.647 -0.9088  0.4509 -0.6057
    3DT     H73   82   2.602   5.899   2.508 -0.0678  1.5947  1.3867
    3DT      C4   83   2.791   5.869   2.788  0.0567  0.2309 -0.3500
    3DT      O4   84   2.769   5.765   2.851 -0.0416 -0.1613  0.1008
    3DT      N3   85   2.884   5.959   2.841  0.3420 -0.2761  0.0260
    3DT      H3   86   2.933   5.932   2.925  0.3361  1.4051  0.6172
    3DT      C2   87   2.921   6.081   2.789 -0.2378 -0.1083 -0.3544
    3DT      O2   88   3.005   6.148   2.855  0.2102 -0.1916  0.2768
    3DT     C3'   89   2.906   6.420   2.454 -0.1973 -0.3852  0.3277
    3DT     H3'   90   2.854   6.474   2.375  1.0338  0.4122  0.0367
    3DT     C2'   91   2.885   6.273   2.457  0.0168  1.0098 -0.0741
    3DT    H2'1   92   2.778   6.259   2.438  0.4874  0.0139 -2.2866
    3DT    H2'2   93   2.954   6.211   2.400  1.4859 -0.7969  3.3791
    3DT     O3'   94   3.041   6.462   2.458 -0.4822 -0.2517 -0.1151
    4DT       P   95   3.152   6.405   2.355  0.2586  0.1282 -0.5805
    4DT     O1P   96   3.275   6.492   2.374  0.4430  0.5567 -0.4883
    4DT     O2P   97   3.090   6.386   2.225 -0.5660  0.1067  0.0861
    4DT     O5'   98   3.190   6.258   2.413 -0.0120 -0.6129 -0.4407
    4DT     C5'   99   3.273   6.247   2.530  0.0537 -0.1011 -0.3416
    4DT    H5'1  100   3.226   6.278   2.623  2.9051  1.4296  0.7158
    4DT    H5'2  101   3.365   6.306   2.528 -0.5120  0.8346  0.3882
    4DT     C4'  102   3.321   6.104   2.550  0.0226  0.4141 -0.5989
    4DT     H4'  103   3.366   6.092   2.649 -1.3454 -3.5653 -0.2702
    4DT     O4'  104   3.209   6.012   2.555 -0.1805  0.0971  0.3367
    4DT     C1'  105   3.255   5.899   2.481  0.9559  0.7461 -0.2309
    4DT     H1'  106   3.318   5.836   2.543  2.4394  2.7108  0.3661
    4DT      N1  107   3.139   5.830   2.421 -0.3089 -0.2939 -0.7422
    4DT      C6  108   3.060   5.903   2.336 -0.5356 -0.0811 -0.8622
    4DT      H6  109   3.082   6.006   2.316 -0.1369 -0.5920 -3.4345
    4DT      C5  110   2.946   5.848   2.291  0.7141  0.4211  0.1005
    4DT      C7  111   2.848   5.941   2.216  0.4518  0.0674 -1.0462
    4DT     H71  112   2.880   6.042   2.240 -0.1852  0.2121 -0.7907
    4DT     H72  113   2.855   5.913   2.111  0.4781 -2.5815 -0.4112
    4DT     H73  114   2.757   5.919   2.271  1.0100 -1.9299 -0.8332
    4DT      C4  115   2.910   5.710   2.327 -0.1681 -0.2035 -0.7483
    4DT      O4  116   2.794   5.674   2.305  0.0596 -0.0137 -0.1047
    4DT      N3  117   2.995   5.643   2.408 -0.3916  0.6208 -0.1911
    4DT      H3  118   2.977   5.545   2.424  0.2465  0.5720  0.2338
    4DT      C2  119   3.117   5.693   2.442 -0.1607  0.0749 -0.2015
    4DT      O2  120   3.192   5.630   2.510 -0.1605  0.2790  1.0205
    4DT     C3'  121   3.423   6.067   2.445 -0.0519 -0.0759 -0.3430
    4DT     H3'  122   3.431   6.142   2.367 -0.4148 -1.3432 -1.6456
    4DT     C2'  123   3.348   5.955   2.373  0.4145 -0.0833 -0.0497
    4DT    H2'1  124   3.297   5.998   2.287 -1.9514  0.0288  1.3388
    4DT    H2'2  125   3.420   5.880   2.341 -0.1227 -0.3394 -0.6683
    4DT     O3'  126   3.552   6.028   2.497  0.0395  0.5589  0.3632
    5DT       P  127   3.662   6.136   2.554  0.4245  0.0031  0.0434
    5DT     O1P  128   3.652   6.260   2.473  0.5794 -0.2101  0.2405
    5DT     O2P  129   3.794   6.075   2.578  0.3392  0.0982  0.1632
    5DT     O5'  130   3.614   6.155   2.701  0.1013  0.2388 -0.0586
    5DT     C5'  131   3.586   6.279   2.746  0.1132 -0.5052  0.2198
    5DT    H5'1  132   3.485   6.305   2.713  0.6638 -1.2553 -2.3208
    5DT    H5'2  133   3.653   6.354   2.704  0.2013 -1.8048 -2.1756
    5DT     C4'  134   3.596   6.293   2.898  0.0251  0.8186  0.4675
    5DT     H4'  135   3.611   6.397   2.926 -2.6875  1.6915 -1.0108
    5DT     O4'  136   3.479   6.242   2.956 -0.0800 -0.1738  0.2489
    5DT     C1'  137   3.513   6.137   3.045 -0.4779  0.2160  0.5595
    5DT     H1'  138   3.539   6.180   3.142  2.1364 -1.4709  0.6978
    5DT      N1  139   3.395   6.048   3.052  0.1777 -0.9422  0.1233
    5DT      C6  140   3.372   5.956   2.952 -0.5290  0.0609 -0.6373
    5DT      H6  141   3.443   5.944   2.872 -2.3341 -0.2681 -2.2586
    5DT      C5  142   3.257   5.882   2.949  0.0759  0.4862 -0.1657
    5DT      C7  143   3.244   5.779   2.836  0.2063 -0.4528 -0.3544
    5DT     H71  144   3.340   5.755   2.791  0.1894  0.2444 -0.7832
    5DT     H72  145   3.192   5.690   2.871  0.5803 -0.5888 -0.1408
    5DT     H73  146   3.173   5.829   2.770 -0.2936  2.4670  2.1267
    5DT      C4  147   3.153   5.911   3.043  0.2885  0.2048 -0.6714
    5DT      O4  148   3.042   5.854   3.054  0.2079  0.0047 -0.6917
    5DT      N3  149   3.178   6.013   3.131  0.0470  0.1806  0.3751
    5DT      H3  150   3.094   6.034   3.184  0.3617  0.1022  0.9141
    5DT      C2  151   3.295   6.086   3.145  0.7946 -0.1269  0.8094
    5DT      O2  152   3.299   6.180   3.225 -0.5745 -0.6139 -0.6510
    5DT     C3'  153   3.715   6.213   2.957  0.1188  0.4013  0.8245
    5DT     H3'  154   3.793   6.193   2.884 -1.3733  1.2298 -1.0679
    5DT     C2'  155   3.648   6.078   3.000  0.5632  0.6734 -0.3892
    5DT    H2'1  156   3.642   6.013   2.913  0.7577 -1.9842  1.4470
    5DT    H2'2  157   3.695   6.024   3.083  1.4319 -1.1284 -1.9848
    5DT     O3'  158   3.770   6.285   3.067  0.2335 -0.0476 -0.2612
    6DT       P  159   3.866   6.220   3.179  0.0034 -0.2507  0.2280
    6DT     O1P  160   3.949   6.328   3.235 -0.6438  0.8487 -0.3263
    6DT     O2P  161   3.943   6.108   3.116 -0.0392  0.7281 -0.4764
    6DT     O5'  162   3.766   6.163   3.294  0.1286  0.5486  0.2511
    6DT     C5'  163   3.675   6.250   3.375 -0.2605  0.2324 -0.3768
    6DT    H5'1  164   3.610   6.315   3.315  0.2446 -1.5165 -2.9891
    6DT    H5'2  165   3.733   6.321   3.434  0.2709 -2.0242  2.0202
    6DT     C4'  166   3.600   6.158   3.471  0.3195  0.1654 -0.0571
    6DT     H4'  167   3.530   6.219   3.528  2.0440  0.7232  1.5497
    6DT     O4'  168   3.521   6.067   3.393  0.0636 -0.6582 -0.1630
    6DT     C1'  169   3.525   5.943   3.454 -0.1594  0.1905 -0.3012
    6DT     H1'  170   3.454   5.944   3.536  1.0056 -0.4231  0.7643
    6DT      N1  171   3.472   5.848   3.356 -0.3633  0.4782 -0.7941
    6DT      C6  172   3.553   5.802   3.252  0.0721 -0.0405 -0.2442
    6DT      H6  173   3.643   5.856   3.230 -0.0937  0.9540  1.3503
    6DT      C5  174   3.506   5.705   3.170 -0.1782  0.5796  0.3188
    6DT      C7  175   3.600   5.662   3.057 -0.7763 -0.0409  0.3822
    6DT     H71  176   3.629   5.557   3.068 -1.2743 -0.1067  1.1613
    6DT     H72  177   3.545   5.673   2.963  3.7216  0.5402 -2.4892
    6DT     H73  178   3.692   5.719   3.056 -1.0346  0.4477 -2.3208
    6DT      C4  179   3.365   5.659   3.176 -0.0195 -0.0807  0.7310
    6DT      O4  180   3.317   5.567   3.103 -0.1789  0.2548  0.2474
    6DT      N3  181   3.289   5.716   3.276 -0.1071 -0.5345  1.0111
    6DT      H3  182   3.197   5.678   3.294 -1.2534  1.8695  0.6862
    6DT      C2  183   3.340   5.798   3.371  0.8532 -0.3097 -0.2900
    6DT      O2  184   3.272   5.825   3.470  0.0005 -0.3592 -0.6170
    6DT     C3'  185   3.686   6.062   3.558  0.5587  0.7073 -0.4024
    6DT     H3'  186   3.791   6.085   3.541  0.5884  0.3028 -0.7730
    6DT     C2'  187   3.664   5.919   3.506 -0.3233  0.6415 -0.1880
    6DT    H2'1  188   3.744   5.903   3.433 -0.9916 -1.9179 -0.4445
    6DT    H2'2  189   3.660   5.844   3.585 -0.5675  2.4058  1.5384
    6DT     O3'  190   3.643   6.072   3.695  0.1117 -0.0934  0.1022
    7DT       P  191   3.733   6.020   3.814 -0.0647  0.2214  0.3112
    7DT     O1P  192   3.719   6.109   3.928  0.1449 -1.1130 -0.8807
    7DT     O2P  193   3.866   5.975   3.769 -0.3250  0.1308  0.0692
    7DT     O5'  194   3.649   5.889   3.839  0.5252  0.2837 -0.0020
    7DT     C5'  195   3.504   5.897   3.869 -0.2621 -0.4921  0.0799
    7DT    H5'1  196   3.452   5.965   3.803  3.0225  3.2487  0.9660
    7DT    H5'2  197   3.504   5.940   3.970  0.4857  0.2840 -0.2410
    7DT     C4'  198   3.427   5.764   3.866  0.1370 -0.9139  0.0195
    7DT     H4'  199   3.327   5.787   3.904  0.1500 -0.0544 -0.4366
    7DT     O4'  200   3.428   5.723   3.729  1.2122 -0.0858  0.0963
    7DT     C1'  201   3.432   5.581   3.739 -0.0927 -0.5237 -0.1012
    7DT     H1'  202   3.332   5.545   3.764  1.0486 -1.9901  2.7330
    7DT      N1  203   3.476   5.529   3.605  0.0455  0.7043 -0.0249
    7DT      C6  204   3.601   5.553   3.553  0.1076  0.5770 -0.7255
    7DT      H6  205   3.680   5.601   3.608  1.2465 -1.7067 -0.2533
    7DT      C5  206   3.640   5.503   3.438 -0.9743  0.6116 -0.4112
    7DT      C7  207   3.786   5.511   3.383  0.5149  0.1138 -0.3062
    7DT     H71  208   3.839   5.417   3.393  0.3459 -0.2385 -2.3327
    7DT     H72  209   3.789   5.530   3.276  4.6300  1.5377 -0.1163
    7DT     H73  210   3.833   5.590   3.443 -0.2548 -1.2091  2.1625
    7DT      C4  211   3.545   5.431   3.353  0.3214 -0.1152 -0.8984
    7DT      O4  212   3.566   5.405   3.237 -0.5033  0.5148  0.3879
    7DT      N3  213   3.421   5.405   3.409 -0.5288  0.0317 -0.1173
    7DT      H3  214   3.358   5.344   3.359 -0.6460 -0.8420  1.0522
    7DT      C2  215   3.381   5.466   3.526  0.4944 -0.1828  0.1989
    7DT      O2  216   3.263   5.458   3.551  0.4645  0.9777  0.0094
    7DT     C3'  217   3.488   5.653   3.959 -0.4170  0.1342 -0.3278
    7DT     H3'  218   3.577   5.684   4.013 -0.5132 -1.4060  0.7699
    7DT     C2'  219   3.516   5.543   3.858  0.0616 -0.4984 -0.4719
    7DT    H2'1  220   3.621   5.545   3.828  0.0484  0.3333 -0.5011
    7DT    H2'2  221   3.493   5.445   3.898  2.3919 -0.7112  0.5162
    7DT     O3'  222   3.382   5.618   4.052 -0.3811 -0.0984  0.1581
    8DT       P  223   3.388   5.491   4.147 -0.3847 -0.2601 -0.0466
    8DT     O1P  224   3.278   5.508   4.242 -0.1258 -0.1771  0.3307
    8DT     O2P  225   3.521   5.468   4.203  0.2095  0.0128  0.6959
    8DT     O5'  226   3.350   5.359   4.055 -0.0608  0.7081  0.3737
    8DT     C5'  227   3.223   5.351   3.989  0.1752 -0.0600  0.9492
    8DT    H5'1  228   3.208   5.446   3.938  1.2977 -0.7906 -0.8382
    8DT    H5'2  229   3.140   5.345   4.059 -0.6422  2.2709  0.2947
    8DT     C4'  230   3.227   5.240   3.884  0.0124 -0.3509  0.3430
    8DT     H4'  231   3.126   5.229   3.844  0.9050 -0.6048 -2.0366
    8DT     O4'  232   3.319   5.276   3.776 -1.0569 -0.0309 -0.4160
    8DT     C1'  233   3.368   5.141   3.734 -0.3407 -0.6212  0.1342
    8DT     H1'  234   3.287   5.085   3.686 -1.2378  0.6828  0.0644
    8DT      N1  235   3.479   5.157   3.640  1.1646 -0.6590  0.2619
    8DT      C6  236   3.600   5.196   3.689  0.3980  1.0742  0.3823
    8DT      H6  237   3.608   5.224   3.793  0.9638  2.2584  0.0356
    8DT      C5  238   3.709   5.203   3.605 -0.0073 -0.0200  0.1502
    8DT      C7  239   3.838   5.257   3.666  0.3971 -0.5909  0.1805
    8DT     H71  240   3.925   5.212   3.618  1.4306 -0.0851  1.5029
    8DT     H72  241   3.840   5.366   3.657 -2.5233 -0.0445  3.7972
    8DT     H73  242   3.855   5.232   3.770 -0.6386  0.6034  0.6551
    8DT      C4  243   3.692   5.150   3.473  0.2990 -0.0156  1.0072
    8DT      O4  244   3.780   5.151   3.382 -0.2390 -0.0971  0.0641
    8DT      N3  245   3.573   5.092   3.433  0.3765 -0.8704  0.4260
    8DT      H3  246   3.562   5.092   3.332 -0.5204 -1.5158  0.5158
    8DT      C2  247   3.463   5.108   3.508 -0.1621 -0.9187  0.5814
    8DT      O2  248   3.356   5.059   3.466 -0.1720 -0.2202 -0.0715
    8DT     C3'  249   3.267   5.102   3.941 -0.0178 -0.1337  0.3858
    8DT     H3'  250   3.289   5.099   4.048  0.8336 -1.7721  0.2033
    8DT     C2'  251   3.395   5.079   3.870  0.0098  0.5461 -0.2999
    8DT    H2'1  252   3.474   5.127   3.928  0.7972  0.4124 -1.2288
    8DT    H2'2  253   3.411   4.971   3.876 -2.1059  0.2188  0.0998
    8DT     O3'  254   3.160   5.008   3.928 -0.1416  0.2073  0.8970
    9DT       P  255   3.171   4.860   3.988 -0.0360 -0.1602  0.1636
    9DT     O1P  256   3.033   4.818   3.988  0.0022 -0.2097 -0.2866
    9DT     O2P  257   3.245   4.857   4.117 -0.1214 -0.1202  0.0366
    9DT     O5'  258   3.261   4.776   3.884 -0.0614  0.7446  0.0077
    9DT     C5'  259   3.224   4.771   3.744  0.1413  0.2981 -0.3001
    9DT    H5'1  260   3.193   4.871   3.711 -0.5951  0.0007 -0.5260
    9DT    H5'2  261   3.128   4.719   3.742  0.0296  0.4953 -0.2074
    9DT     C4'  262   3.321   4.724   3.632  0.0340  0.0790  0.5113
    9DT     H4'  263   3.292   4.743   3.528  0.1281 -2.1243  0.0454
    9DT     O4'  264   3.436   4.808   3.645  0.3785  0.0065  0.3201
    9DT     C1'  265   3.547   4.721   3.656 -0.2516 -0.0127 -0.3030
    9DT     H1'  266   3.566   4.689   3.554  0.9399  1.5975 -0.6287
    9DT      N1  267   3.665   4.780   3.717 -0.3619  0.1260  0.0105
    9DT      C6  268   3.680   4.815   3.852  0.4882  0.2805  0.5041
    9DT      H6  269   3.594   4.793   3.913 -0.3062  0.3475 -0.5609
    9DT      C5  270   3.786   4.878   3.905 -0.1744  0.0521 -0.9067
    9DT      C7  271   3.773   4.915   4.051  0.0764 -0.6327 -0.5180
    9DT     H71  272   3.819   5.014   4.056 -0.1874 -0.4368 -1.5869
    9DT     H72  273   3.671   4.927   4.087  0.1679 -0.1297 -0.4085
    9DT     H73  274   3.841   4.854   4.109 -1.2653 -1.6852  0.0074
    9DT      C4  275   3.894   4.913   3.813  0.2870 -0.6821  0.3463
    9DT      O4  276   3.994   4.971   3.841  0.3605  0.0483 -0.5641
    9DT      N3  277   3.878   4.876   3.683 -0.0252 -0.3297  0.3067
    9DT      H3  278   3.951   4.877   3.614 -1.5987 -0.1404 -1.4496
    9DT      C2  279   3.771   4.810   3.636  0.2293 -0.4164  0.3609
    9DT      O2  280   3.768   4.786   3.518  0.4787  0.3607 -0.0909
    9DT     C3'  281   3.366   4.578   3.640 -0.6589  0.1312 -0.5793
    9DT     H3'  282   3.287   4.524   3.693 -0.5717  0.3530 -0.2162
    9DT     C2'  283   3.499   4.596   3.726  1.0315  0.2187  0.8842
    9DT    H2'1  284   3.474   4.624   3.828 -2.1197 -1.5359  0.7172
    9DT    H2'2  285   3.574   4.517   3.724  1.4017  0.5237  2.1227
    9DT     O3'  286   3.377   4.528   3.505 -0.1987 -0.2744  0.4249
   10DT       P  287   3.430   4.376   3.489 -0.0023  0.2926 -0.1319
   10DT     O1P  288   3.404   4.329   3.350  0.5486  0.0373 -0.5889
   10DT     O2P  289   3.396   4.285   3.600 -0.1144 -0.8142 -0.2547
   10DT     O5'  290   3.588   4.391   3.503 -0.2971  0.1390 -0.5131
   10DT     C5'  291   3.666   4.457   3.409 -0.2721  0.2159 -1.1466
   10DT    H5'1  292   3.642   4.563   3.411 -1.9535 -0.1321  1.6012
   10DT    H5'2  293   3.641   4.409   3.315 -1.8188 -2.4484  0.5103
   10DT     C4'  294   3.810   4.422   3.447  0.5343  0.1452  0.2782
   10DT     H4'  295   3.866   4.456   3.360  1.0522 -0.7619  0.2402
   10DT     O4'  296   3.849   4.510   3.551 -0.0422  0.4712  0.3611
   10DT     C1'  297   3.959   4.464   3.621  0.7180  0.1465  0.4215
   10DT     H1'  298   4.049   4.514   3.586  0.6717  0.2309  0.4239
   10DT      N1  299   3.943   4.506   3.763 -0.5417 -0.2228 -0.1901
   10DT      C6  300   3.833   4.478   3.836  0.2671 -0.2535  0.1733
   10DT      H6  301   3.746   4.437   3.786  0.3606  0.4974 -0.6204
   10DT      C5  302   3.815   4.513   3.962 -0.2759 -0.2948  0.2121
   10DT      C7  303   3.678   4.513   4.032 -0.3578  0.5258  0.5304
   10DT     H71  304   3.666   4.428   4.099  0.3902  0.9195  1.1819
   10DT     H72  305   3.672   4.610   4.081  1.8399  0.1299  1.7121
   10DT     H73  306   3.606   4.495   3.952  0.5657 -0.7488 -0.0568
   10DT      C4  307   3.920   4.585   4.029 -0.3614 -0.3522 -0.4394
   10DT      O4  308   3.922   4.624   4.148 -0.0615  0.1282 -0.1494
   10DT      N3  309   4.026   4.622   3.950 -0.0464 -0.3185  0.5456
   10DT      H3  310   4.102   4.666   4.000 -0.8564 -0.9540  2.4321
   10DT      C2  311   4.039   4.590   3.814 -0.9039 -0.7370  0.0115
   10DT      O2  312   4.132   4.633   3.750  0.2908  0.1489  0.1159
   10DT     C3'  313   3.857   4.284   3.486  0.0296  0.7434 -0.1676
   10DT     H3'  314   3.776   4.238   3.542  2.1858 -1.0003  1.7170
   10DT     C2'  315   3.971   4.313   3.592 -0.2482 -0.0568  0.1662
   10DT    H2'1  316   3.950   4.261   3.685 -0.0050 -0.5108 -0.0284
   10DT    H2'2  317   4.064   4.282   3.545 -1.5062 -1.6067 -1.4330
   10DT     O3'  318   3.901   4.206   3.374 -0.0860 -0.0778  0.0747
   11DT       P  319   3.978   4.065   3.380 -0.0445 -0.0046 -0.0706
   11DT     O1P  320   3.996   4.022   3.241 -0.1650 -0.1109  0.2670
   11DT     O2P  321   3.895   3.980   3.468  0.3494 -0.2565  0.0768
   11DT     O5'  322   4.119   4.085   3.447 -0.3619 -0.2620 -0.0942
   11DT     C5'  323   4.214   4.164   3.373 -0.2320  0.2880  0.4831
   11DT    H5'1  324   4.182   4.268   3.368  1.5724  0.8850  0.2762
   11DT    H5'2  325   4.224   4.123   3.273 -0.0511  0.9543  0.2240
   11DT     C4'  326   4.360   4.171   3.421  0.9501 -0.2586  0.2705
   11DT     H4'  327   4.420   4.216   3.342  0.5595  2.5886  1.4644
   11DT     O4'  328   4.356   4.252   3.541 -0.4109  0.6400  0.6994
   11DT     C1'  329   4.413   4.171   3.647 -0.0545  0.3597 -0.5266
   11DT     H1'  330   4.522   4.172   3.641  0.0577 -2.6481 -0.5836
   11DT      N1  331   4.370   4.220   3.779  0.2769  1.1343  0.0116
   11DT      C6  332   4.243   4.180   3.829 -0.8615  0.2721 -0.0994
   11DT      H6  333   4.191   4.098   3.781  0.0872  0.5256 -1.6297
   11DT      C5  334   4.192   4.257   3.931  0.4183 -0.1559  0.5047
   11DT      C7  335   4.058   4.226   3.993 -0.4639 -0.1921  1.0720
   11DT     H71  336   4.070   4.234   4.101  1.2723  0.1490  0.8795
   11DT     H72  337   3.980   4.296   3.963 -1.7903 -1.5230  1.2569
   11DT     H73  338   4.029   4.125   3.962  1.0778 -0.1582 -0.6225
   11DT      C4  339   4.264   4.364   3.996  0.0014  0.2610  1.0194
   11DT      O4  340   4.229   4.419   4.104 -0.4096 -0.0897  0.0758
   11DT      N3  341   4.391   4.382   3.949  0.1828  0.1458  0.2497
   11DT      H3  342   4.448   4.447   4.001 -0.3326  1.8206 -1.1828
   11DT      C2  343   4.453   4.308   3.853 -0.8622 -0.6680  0.0114
   11DT      O2  344   4.568   4.336   3.819 -0.3609  0.0331  0.2128
   11DT     C3'  345   4.407   4.032   3.458 -0.7316 -0.3772 -0.1774
   11DT     H3'  346   4.347   3.958   3.404 -1.7225 -1.2231  1.9701
   11DT     C2'  347   4.392   4.021   3.608  0.5095  0.4371 -0.5024
   11DT    H2'1  348   4.291   3.996   3.641  0.0958  0.7359 -1.5242
   11DT    H2'2  349   4.458   3.951   3.660 -0.6363  0.1870  0.6654
   11DT     O3'  350   4.547   4.021   3.423  0.4505  0.0832  0.2973
   12DT       P  351   4.626   3.882   3.413  0.1462 -0.2314  0.6035
   12DT     O1P  352   4.733   3.917   3.317 -0.6547 -0.7998 -0.0537
   12DT     O2P  353   4.536   3.763   3.386 -0.1162 -0.3109  0.7550
   12DT     O5'  354   4.694   3.868   3.554  0.2149  0.1388  0.8206
   12DT     C5'  355   4.767   3.966   3.610  0.2789 -0.3399 -1.2076
   12DT    H5'1  356   4.741   4.070   3.595 -0.4103  0.1435  2.4470
   12DT    H5'2  357   4.870   3.945   3.580  1.3461 -0.7496  2.2391
   12DT     C4'  358   4.760   3.953   3.767 -0.3176 -0.2889  0.0208
   12DT     H4'  359   4.852   4.002   3.799 -0.7791  0.3558  0.4035
   12DT     O4'  360   4.649   4.005   3.828 -0.1452 -0.1832 -0.0444
   12DT     C1'  361   4.660   3.989   3.962 -0.1059  0.2257 -0.0637
   12DT     H1'  362   4.721   4.067   4.007 -0.0651  0.4556 -0.5143
   12DT      N1  363   4.520   3.996   4.019  0.3014  0.5791  0.0500
   12DT      C6  364   4.414   3.918   3.970 -0.3455 -0.1979  0.7210
   12DT      H6  365   4.443   3.864   3.881  2.0078 -0.4351  1.5586
   12DT      C5  366   4.298   3.917   4.030 -0.4641 -0.5733  0.5027
   12DT      C7  367   4.195   3.822   3.975  0.8525 -0.5627 -0.0170
   12DT     H71  368   4.226   3.747   3.902  0.1855 -1.1834  0.3264
   12DT     H72  369   4.147   3.769   4.057 -1.0997  0.5510 -0.3828
   12DT     H73  370   4.122   3.887   3.928  1.1704 -0.0494  0.1931
   12DT      C4  371   4.279   3.989   4.162  0.1509 -0.0514 -0.2035
   12DT      O4  372   4.182   3.998   4.229 -0.5399  0.5717 -0.4184
   12DT      N3  373   4.382   4.067   4.202 -0.4035  0.2427  0.1284
   12DT      H3  374   4.362   4.132   4.277 -2.6519 -0.0205 -0.1935
   12DT      C2  375   4.507   4.074   4.137  0.4884  0.6883 -0.1868
   12DT      O2  376   4.581   4.156   4.176 -0.2370 -0.7393 -0.4229
   12DT     C3'  377   4.773   3.820   3.834 -0.1080  0.2578 -0.4590
   12DT     H3'  378   4.705   3.751   3.784 -0.4601 -0.2193  0.6330
   12DT     C2'  379   4.731   3.856   3.975 -0.4428  0.2958  0.7219
   12DT    H2'1  380   4.669   3.776   4.016 -0.4116 -0.1396 -0.0662
   12DT    H2'2  381   4.818   3.851   4.040 -0.1568 -1.7806  0.2564
   12DT     O3'  382   4.904   3.765   3.837  0.3903 -0.5046 -0.1616
   13DT       P  383   4.931   3.611   3.883 -0.2359 -0.0342  0.2041
   13DT     O1P  384   5.053   3.577   3.800 -0.9681  0.6960 -0.4088
   13DT     O2P  385   4.814   3.536   3.853 -0.1387 -0.0389 -0.5522
   13DT     O5'  386   4.959   3.595   4.038 -0.1321  0.1451 -0.2207
   13DT     C5'  387   5.078   3.656   4.089  0.5210 -0.0903  0.2486
   13DT    H5'1  388   5.091   3.756   4.047  1.0043 -0.2454  0.0205
   13DT    H5'2  389   5.160   3.593   4.054 -0.6803 -1.7939  0.3973
   13DT     C4'  390   5.083   3.667   4.240  0.2136 -0.0103 -0.3259
   13DT     H4'  391   5.181   3.712   4.253  2.0927 -4.0204  0.8937
   13DT     O4'  392   4.968   3.743   4.270  0.4063 -0.0152  0.5360
   13DT     C1'  393   4.902   3.688   4.382 -0.7965  0.8522 -0.7902
   13DT     H1'  394   4.946   3.722   4.476 -0.8960 -1.6605  0.2396
   13DT      N1  395   4.760   3.724   4.372 -0.2934 -0.2740 -0.0758
   13DT      C6  396   4.679   3.660   4.285  0.6701 -0.1532 -0.2059
   13DT      H6  397   4.721   3.588   4.216  0.0866 -3.0433  2.2477
   13DT      C5  398   4.545   3.683   4.281  0.3182 -1.5186  0.0993
   13DT      C7  399   4.468   3.597   4.187 -0.0560  0.1426  0.3841
   13DT     H71  400   4.391   3.663   4.147  0.4027  0.2394 -0.3659
   13DT     H72  401   4.527   3.557   4.104  0.0535 -0.6154  0.8226
   13DT     H73  402   4.421   3.511   4.233  2.5799 -2.4100 -1.3036
   13DT      C4  403   4.484   3.776   4.375 -0.4567  0.0510  0.0665
   13DT      O4  404   4.363   3.806   4.374  0.1993  0.4677 -0.4784
   13DT      N3  405   4.572   3.836   4.460 -0.0012 -0.2689 -0.4540
   13DT      H3  406   4.532   3.911   4.513  0.2911  0.0571 -0.6903
   13DT      C2  407   4.708   3.818   4.462  0.2842 -0.3787 -0.5700
   13DT      O2  408   4.780   3.886   4.547 -0.0191 -0.6657  0.2632
   13DT     C3'  409   5.075   3.542   4.331 -0.3061 -0.1095 -0.6569
   13DT     H3'  410   5.088   3.453   4.270 -1.7122 -0.5507 -0.3593
   13DT     C2'  411   4.935   3.538   4.375 -0.5320  0.0255 -0.6782
   13DT    H2'1  412   4.874   3.491   4.298 -2.4475 -1.3390  1.5443
   13DT    H2'2  413   4.925   3.494   4.474  2.3590  1.7818  0.5195
   13DT     O3'  414   5.175   3.552   4.430 -0.3231  0.5824  0.2977
   14DT       P  415   5.172   3.466   4.562 -0.1602  0.0415 -0.3053
   14DT     O1P  416   5.307   3.476   4.613 -0.4214  0.0404 -0.1726
   14DT     O2P  417   5.129   3.325   4.538 -0.1180  0.4831 -0.2212
   14DT     O5'  418   5.068   3.536   4.667  0.1390  0.3189 -0.1398
   14DT     C5'  419   5.100   3.649   4.737  0.3428 -0.5710 -0.5149
   14DT    H5'1  420   5.111   3.731   4.666  0.8413  0.5217  0.7847
   14DT    H5'2  421   5.192   3.641   4.796 -0.6404 -0.1700  1.1557
   14DT     C4'  422   5.001   3.692   4.839  0.0771  0.0684  0.5705
   14DT     H4'  423   5.043   3.776   4.894  0.8157 -0.4116  0.7659
   14DT     O4'  424   4.890   3.737   4.767  0.3201 -0.3602  0.0964
   14DT     C1'  425   4.778   3.724   4.847  0.1453  0.0666 -0.2657
   14DT     H1'  426   4.767   3.817   4.902  1.0029 -0.1414  0.2794
   14DT      N1  427   4.663   3.698   4.764  0.4914 -0.1496  0.0442
   14DT      C6  428   4.654   3.581   4.692  0.1342 -0.5378 -0.3239
   14DT      H6  429   4.744   3.523   4.676  1.8360  1.7665  0.3178
   14DT      C5  430   4.531   3.543   4.641 -0.1590  0.0037  0.0210
   14DT      C7  431   4.530   3.425   4.550 -0.0577 -0.3941 -0.1298
   14DT     H71  432   4.487   3.447   4.453  0.1761  1.3679  0.1377
   14DT     H72  433   4.629   3.381   4.539  1.0780  1.8626  0.5383
   14DT     H73  434   4.467   3.350   4.598  2.6775 -1.7075  1.6896
   14DT      C4  435   4.408   3.620   4.663 -0.6963 -0.1338  0.2092
   14DT      O4  436   4.294   3.589   4.632  0.3410  0.2283 -0.1671
   14DT      N3  437   4.424   3.728   4.743  0.2159 -0.3008  0.1265
   14DT      H3  438   4.341   3.785   4.740  0.6017  0.2454 -0.5405
   14DT      C2  439   4.545   3.772   4.791  0.0678 -0.4370  0.0548
   14DT      O2  440   4.541   3.884   4.848  0.2335 -0.5884 -0.3032
   14DT     C3'  441   4.955   3.584   4.929 -0.0560  0.1994  0.0393
   14DT     H3'  442   4.982   3.489   4.883 -1.5439  0.3651 -1.2528
   14DT     C2'  443   4.806   3.610   4.943  0.0292 -0.1267 -0.0071
   14DT    H2'1  444   4.768   3.510   4.924  1.0077 -0.3545 -0.7912
   14DT    H2'2  445   4.769   3.644   5.040 -0.2097 -0.0839 -0.1114
   14DT     O3'  446   5.015   3.585   5.060 -0.1251  0.2143  0.1725
   15DT       P  447   4.987   3.464   5.161 -0.2081  0.7533 -0.2428
   15DT     O1P  448   5.092   3.455   5.266 -0.3218 -0.4258 -0.8101
   15DT     O2P  449   4.954   3.335   5.093 -0.3778 -0.7951 -0.4011
   15DT     O5'  450   4.850   3.513   5.233 -0.2405  0.5456  0.1946
   15DT     C5'  451   4.844   3.638   5.303 -1.4091 -0.0505  0.9662
   15DT    H5'1  452   4.880   3.713   5.233  0.2495 -1.0470  0.6967
   15DT    H5'2  453   4.907   3.619   5.389  2.2630 -1.3905 -1.7885
   15DT     C4'  454   4.701   3.666   5.350  0.5391 -0.2689  0.5462
   15DT     H4'  455   4.691   3.768   5.386  0.2598  0.5742 -1.7946
   15DT     O4'  456   4.605   3.653   5.248 -0.2592 -0.0630  0.8489
   15DT     C1'  457   4.522   3.539   5.266 -0.3483 -0.0955  0.9677
   15DT     H1'  458   4.434   3.581   5.315  0.6644  1.8397  1.2321
   15DT      N1  459   4.484   3.463   5.142  0.1536 -0.1164  0.1964
   15DT      C6  460   4.575   3.381   5.066 -0.0289 -0.3926  0.1372
   15DT      H6  461   4.677   3.370   5.100  0.2667 -0.1272 -0.6609
   15DT      C5  462   4.536   3.315   4.953  0.0400 -0.5934 -0.4429
   15DT      C7  463   4.637   3.222   4.876  0.1145  0.2501  0.3660
   15DT     H71  464   4.590   3.125   4.859 -1.5491  0.8536  1.2389
   15DT     H72  465   4.656   3.257   4.775  1.1428  2.0989  1.1649
   15DT     H73  466   4.736   3.230   4.920 -0.0318  1.6481  0.4753
   15DT      C4  467   4.399   3.330   4.902 -0.6206 -0.6655  0.3991
   15DT      O4  468   4.352   3.276   4.803 -0.2611 -0.9021  0.0182
   15DT      N3  469   4.322   3.423   4.972 -0.0482  0.1595  0.1088
   15DT      H3  470   4.231   3.446   4.934 -0.4156  2.5026  2.1551
   15DT      C2  471   4.362   3.493   5.083  0.1962 -0.3629  0.4195
   15DT      O2  472   4.293   3.585   5.118  0.5117 -0.1504 -0.1276
   15DT     C3'  473   4.660   3.564   5.459 -0.1239  0.0289 -0.4993
   15DT     H3'  474   4.745   3.511   5.501 -0.1241 -0.9877 -1.7140
   15DT     C2'  475   4.591   3.455   5.369  0.2452  0.4447 -0.3008
   15DT    H2'1  476   4.662   3.389   5.319 -0.6377 -1.3833  0.7721
   15DT    H2'2  477   4.526   3.391   5.428  0.6493  1.0061  0.7724
   15DT     O3'  478   4.571   3.625   5.558 -0.0423  0.2538  0.2569
   16DT       P  479   4.515   3.542   5.682  0.0011  0.4640 -0.2397
   16DT     O1P  480   4.494   3.647   5.784 -0.2450 -0.4850  0.1571
   16DT     O2P  481   4.604   3.426   5.707 -0.1202  0.1954  0.4154
   16DT     O5'  482   4.369   3.490   5.635  0.8050  0.2025  0.6837
   16DT     C5'  483   4.262   3.573   5.595  0.7795  0.9481 -0.0221
   16DT    H5'1  484   4.298   3.638   5.515 -0.8818  0.7890 -0.9536
   16DT    H5'2  485   4.242   3.643   5.676 -1.4244  1.9711 -1.3553
   16DT     C4'  486   4.148   3.488   5.532  0.7494 -0.4265  0.2832
   16DT     H4'  487   4.059   3.551   5.528  2.0010  1.4630  1.0805
   16DT     O4'  488   4.171   3.445   5.395  0.2886  0.0393 -0.3558
   16DT     C1'  489   4.147   3.305   5.388  0.2277 -0.4982 -0.1568
   16DT     H1'  490   4.042   3.288   5.366  0.2056 -0.1714 -0.3168
   16DT      N1  491   4.230   3.231   5.286 -0.8434 -0.5487 -0.5317
   16DT      C6  492   4.359   3.193   5.304 -0.1426  0.3120  0.1414
   16DT      H6  493   4.404   3.217   5.399  2.2172 -3.1680  0.1036
   16DT      C5  494   4.425   3.117   5.216 -0.3692 -0.5903 -0.4680
   16DT      C7  495   4.562   3.067   5.257 -0.4965  0.5327  0.2248
   16DT     H71  496   4.608   3.130   5.333  1.5442  1.9073 -2.0058
   16DT     H72  497   4.560   2.961   5.281  0.5931  0.2451 -0.8031
   16DT     H73  498   4.629   3.070   5.171  0.0681 -0.8340  0.5790
   16DT      C4  499   4.355   3.064   5.096 -0.3643 -0.0085 -0.3059
   16DT      O4  500   4.403   2.989   5.019 -0.3443 -0.2242 -0.3850
   16DT      N3  501   4.228   3.109   5.079  0.6090 -0.6046  0.0589
   16DT      H3  502   4.174   3.075   5.001  0.3812 -1.9234  0.7654
   16DT      C2  503   4.165   3.191   5.167  0.0489 -0.1537  0.2220
   16DT      O2  504   4.051   3.230   5.140  0.1199  0.6376 -0.8401
   16DT     C3'  505   4.111   3.364   5.618 -0.1876 -0.2529  0.2746
   16DT     H3'  506   4.167   3.374   5.711 -0.0646  2.8744 -0.0447
   16DT     C2'  507   4.161   3.250   5.527  0.1019  0.1860 -0.3981
   16DT    H2'1  508   4.268   3.255   5.547  0.4427 -1.5165 -1.5431
   16DT    H2'2  509   4.117   3.151   5.540  1.0187 -0.1469  0.2947
   16DT     O3'  510   3.967   3.362   5.630  0.3861  0.0130  0.2734
   17DT       P  511   3.890   3.251   5.714  0.0402  0.5704  0.3641
   17DT     O1P  512   3.797   3.324   5.788  0.0134  0.0904 -0.1814
   17DT     O2P  513   3.991   3.174   5.793 -0.1153 -0.0886 -0.0876
   17DT     O5'  514   3.828   3.159   5.607  0.1720  0.2126 -0.0222
   17DT     C5'  515   3.735   3.199   5.513  0.0288  0.1330  0.3096
   17DT    H5'1  516   3.762   3.297   5.472 -1.2331 -0.0237 -0.9955
   17DT    H5'2  517   3.639   3.203   5.564  0.0477  0.6064  0.3169
   17DT     C4'  518   3.731   3.095   5.395  0.6067  0.5611 -0.2911
   17DT     H4'  519   3.678   3.141   5.312 -0.6025 -1.9545 -1.0049
   17DT     O4'  520   3.866   3.062   5.349  0.2391 -0.8253 -0.4730
   17DT     C1'  521   3.860   2.933   5.303 -0.2278 -0.0854  0.3253
   17DT     H1'  522   3.817   2.930   5.203 -0.7720 -2.8291  0.5505
   17DT      N1  523   3.986   2.866   5.291  0.2813 -0.2368 -0.1797
   17DT      C6  524   4.084   2.877   5.389  0.4862  0.3315  0.4416
   17DT      H6  525   4.064   2.929   5.482 -0.5588 -1.0646  1.0194
   17DT      C5  526   4.207   2.820   5.366  0.7130  0.1955 -0.2848
   17DT      C7  527   4.311   2.833   5.475 -0.5721 -0.0340  0.7067
   17DT     H71  528   4.325   2.730   5.507 -1.5386 -0.1145  0.9048
   17DT     H72  529   4.393   2.880   5.421 -2.0177  0.9957 -0.6744
   17DT     H73  530   4.279   2.899   5.555 -0.0925 -0.9639  1.6972
   17DT      C4  531   4.234   2.744   5.246 -0.7531 -0.6080 -0.1017
   17DT      O4  532   4.341   2.693   5.215  0.8631 -0.2805 -0.1068
   17DT      N3  533   4.126   2.746   5.151 -0.2851  0.0307 -0.3036
   17DT      H3  534   4.149   2.707   5.061 -0.0279 -3.1077  0.9896
   17DT      C2  535   4.001   2.795   5.172 -0.3300  0.0558  0.0354
   17DT      O2  536   3.916   2.779   5.086  0.4623 -0.0688 -0.6646
   17DT     C3'  537   3.668   2.959   5.441 -0.4526 -0.1184 -0.1330
   17DT     H3'  538   3.649   2.966   5.548 -3.4096 -2.2836 -0.3814
   17DT     C2'  539   3.775   2.856   5.401  0.3334 -0.2270  0.0267
   17DT    H2'1  540   3.828   2.828   5.492 -0.5856 -1.3363  0.2373
   17DT    H2'2  541   3.733   2.764   5.361 -2.2151  0.5799  0.6296
   17DT     O3'  542   3.552   2.929   5.379 -0.3916 -0.0871  0.2760
   18DT       P  543   3.443   2.830   5.441 -0.1141  0.1227 -0.0734
   18DT     O1P  544   3.311   2.867   5.395  0.0874 -0.3842 -0.6445
   18DT     O2P  545   3.470   2.818   5.582 -0.3437  0.7566 -0.2434
   18DT     O5'  546   3.489   2.698   5.371  0.7183  0.7398 -0.1282
   18DT     C5'  547   3.495   2.693   5.227  0.7027 -0.3711  0.2645
   18DT    H5'1  548   3.560   2.772   5.190 -2.5719  2.1392 -0.6092
   18DT    H5'2  549   3.395   2.714   5.190  0.4245 -3.6748 -1.1865
   18DT     C4'  550   3.546   2.548   5.180 -0.4398  0.0103 -1.2341
   18DT     H4'  551   3.529   2.530   5.074  0.9144 -1.7716 -1.1967
   18DT     O4'  552   3.685   2.540   5.207 -0.2623 -0.3700  0.0312
   18DT     C1'  553   3.712   2.410   5.260  0.2291  0.2841 -1.0160
   18DT     H1'  554   3.705   2.339   5.178  0.1219 -0.6375 -0.2158
   18DT      N1  555   3.849   2.411   5.319  0.5232 -0.5280 -0.0478
   18DT      C6  556   3.872   2.493   5.429 -0.4297  0.9186 -0.3766
   18DT      H6  557   3.787   2.531   5.484 -2.5212 -3.6008 -0.0157
   18DT      C5  558   3.999   2.518   5.473  0.3855  0.0786 -0.0692
   18DT      C7  559   4.014   2.585   5.610 -0.4308 -0.0707 -0.2639
   18DT     H71  560   4.061   2.514   5.677 -3.0300 -0.5672  1.1270
   18DT     H72  561   4.082   2.671   5.606  3.1239 -2.6622 -1.7654
   18DT     H73  562   3.923   2.602   5.667 -0.0688 -1.0803  0.6407
   18DT      C4  563   4.113   2.459   5.403 -0.3037 -0.2142 -0.5257
   18DT      O4  564   4.237   2.475   5.430  0.8853  0.3619 -0.1434
   18DT      N3  565   4.083   2.379   5.300  0.5210  0.1926  0.3055
   18DT      H3  566   4.160   2.327   5.261  1.2969 -1.1532  3.3239
   18DT      C2  567   3.956   2.349   5.253 -0.1699 -0.1082  0.0999
   18DT      O2  568   3.944   2.275   5.159 -0.1720  0.1134  0.0633
   18DT     C3'  569   3.478   2.436   5.263 -0.0854 -0.1302  0.6270
   18DT     H3'  570   3.403   2.471   5.334 -0.0379 -2.0781  1.7022
   18DT     C2'  571   3.591   2.385   5.349  0.0911  0.5354 -0.2305
   18DT    H2'1  572   3.585   2.427   5.449  1.4252 -0.5378  0.3303
   18DT    H2'2  573   3.589   2.276   5.359 -0.3659  0.2612 -2.6496
   18DT     O3'  574   3.433   2.326   5.183 -0.1873 -0.2422  0.1897
   19DT       P  575   3.349   2.193   5.238 -0.0951  0.0816 -0.6065
   19DT     O1P  576   3.248   2.158   5.137  0.8563  0.3429 -0.3482
   19DT     O2P  577   3.288   2.226   5.371 -0.1131 -0.3657  0.2884
   19DT     O5'  578   3.450   2.075   5.250 -0.6999  0.6803  0.3075
   19DT     C5'  579   3.527   2.032   5.139  0.8309  1.2272  0.4625
   19DT    H5'1  580   3.546   2.113   5.069 -2.2229 -0.0918 -2.1421
   19DT    H5'2  581   3.474   1.959   5.078  1.9343  1.4168 -0.7509
   19DT     C4'  582   3.668   1.978   5.181  0.3915  0.4389  1.0260
   19DT     H4'  583   3.723   1.957   5.089  0.5034 -1.4024  1.4563
   19DT     O4'  584   3.738   2.073   5.259 -0.1074 -0.5280  0.0634
   19DT     C1'  585   3.801   2.012   5.360  0.5687 -0.1678 -0.8444
   19DT     H1'  586   3.894   1.972   5.320  0.0016 -2.1393 -0.2764
   19DT      N1  587   3.845   2.109   5.471  0.3681  0.4535  0.0434
   19DT      C6  588   3.747   2.148   5.566 -0.2332  0.0885 -0.0998
   19DT      H6  589   3.641   2.138   5.547 -0.5404  0.6126  1.2342
   19DT      C5  590   3.786   2.217   5.672 -0.4336 -0.2436 -0.8492
   19DT      C7  591   3.689   2.266   5.769 -0.2886  0.3353  0.2351
   19DT     H71  592   3.710   2.373   5.769 -0.0220  0.3220  2.2678
   19DT     H72  593   3.587   2.259   5.732  0.0340  0.1379 -0.6372
   19DT     H73  594   3.708   2.225   5.868 -1.6681 -0.5130  0.1730
   19DT      C4  595   3.922   2.239   5.710  0.1285 -1.3387  0.9029
   19DT      O4  596   3.967   2.288   5.811 -0.5996 -0.2227 -0.4029
   19DT      N3  597   4.009   2.202   5.608 -0.0768 -0.5404 -0.3724
   19DT      H3  598   4.108   2.219   5.625 -0.4031 -0.2643  1.5107
   19DT      C2  599   3.981   2.126   5.500  0.1565  0.1552 -0.8064
   19DT      O2  600   4.077   2.085   5.439  0.0272 -0.5800  0.2745
   19DT     C3'  601   3.670   1.844   5.260 -0.5703 -0.1045  0.0986
   19DT     H3'  602   3.569   1.803   5.265 -0.9883  0.9819  1.3286
   19DT     C2'  603   3.714   1.887   5.394 -0.4457 -0.4092 -0.4984
   19DT    H2'1  604   3.624   1.912   5.452  0.0388 -1.8214  0.9107
   19DT    H2'2  605   3.776   1.817   5.449  0.0662  0.0015 -0.5472
   19DT     O3'  606   3.771   1.757   5.198  0.2517 -0.5597 -0.8477
   20DT3      P  607   3.809   1.606   5.252 -0.3574  0.3331 -0.0369
   20DT3    O1P  608   3.862   1.526   5.146 -0.2287 -0.3178  0.1397
   20DT3    O2P  609   3.701   1.551   5.329  0.8606 -0.0708  0.4024
   20DT3    O5'  610   3.926   1.642   5.354  0.0645  0.4900  0.1918
   20DT3    C5'  611   4.045   1.713   5.312  0.5863 -0.4723 -0.5591
   20DT3   H5'1  612   4.024   1.820   5.314  1.8836 -0.1861 -0.9815
   20DT3   H5'2  613   4.072   1.691   5.209  1.9044  1.6713 -0.7501
   20DT3    C4'  614   4.173   1.698   5.393  0.3789  0.1799 -1.0620
   20DT3    H4'  615   4.259   1.738   5.340  3.2124 -2.8526  0.8969
   20DT3    O4'  616   4.143   1.777   5.506 -0.1929  0.0786  0.0439
   20DT3    C1'  617   4.137   1.702   5.624  0.2539 -0.3932  0.3951
   20DT3    H1'  618   4.225   1.710   5.687  0.5134 -1.9163  0.2634
   20DT3     N1  619   4.020   1.758   5.694 -0.4308 -0.5572 -0.0963
   20DT3     C6  620   3.892   1.709   5.671  0.1194  0.0441  0.2954
   20DT3     H6  621   3.882   1.632   5.596  0.7197  0.2177  0.0349
   20DT3     C5  622   3.789   1.762   5.743 -0.8813 -0.4599 -0.2834
   20DT3     C7  623   3.647   1.724   5.713  0.3182  0.5496  0.0088
   20DT3    H71  624   3.608   1.800   5.645  1.5405  1.0866 -0.1166
   20DT3    H72  625   3.644   1.627   5.663  2.2173  0.8024 -0.6732
   20DT3    H73  626   3.596   1.721   5.809  1.5764 -0.7021  0.6699
   20DT3     C4  627   3.808   1.858   5.852  0.1705  0.1712 -0.2632
   20DT3     O4  628   3.726   1.917   5.918  0.1188 -0.0803  0.2117
   20DT3     N3  629   3.940   1.890   5.879 -0.0277 -0.0760  0.0626
   20DT3     H3  630   3.963   1.946   5.960  1.8209 -1.6964  0.7466
   20DT3     C2  631   4.045   1.844   5.805  0.5655 -0.7500 -0.0615
   20DT3     O2  632   4.159   1.880   5.829 -0.2512  0.1037  0.4395
   20DT3    C3'  633   4.212   1.560   5.447  0.3284  0.7177  0.1140
   20DT3    H3'  634   4.172   1.484   5.379  0.8559  0.3828  0.1719
   20DT3    C2'  635   4.143   1.556   5.583  0.6309  0.2342  0.2723
   20DT3   H2'1  636   4.044   1.511   5.573  0.8067  0.4002 -3.4264
   20DT3   H2'2  637   4.207   1.503   5.654  0.5593  0.7942  0.7540
   20DT3    O3'  638   4.351   1.562   5.466 -0.1965  0.5000  0.5305
   20DT3    H3T  639   4.392   1.548   5.381  1.3072 -0.3020  1.3359
   21SOL     OW  640   9.008   2.134   2.719  0.1088  0.3894  0.2296
   21SOL    HW1  641   9.020   2.215   2.767 -1.9266 -0.6920  2.7781
   21SOL    HW2  642   9.038   2.065   2.778 -1.1320 -0.9235 -0.5891
   22SOL     OW  643   0.056   4.269   1.243 -0.5245  0.1579 -0.5892
   22SOL    HW1  644   0.040   4.207   1.314  0.2558  0.3148 -0.2759
   22SOL    HW2  645   0.124   4.327   1.276 -1.1441  1.1111 -0.9294
   23SOL     OW  646   2.725   0.822   1.110  0.1581 -0.1995  0.0387
   23SOL    HW1  647   2.661   0.804   1.042  1.9125 -1.1848 -1.4554
   23SOL    HW2  648   2.708   0.913   1.136 -2.0272 -0.5555 -0.0307
   24SOL     OW  649   7.183   1.284   5.166  0.0072 -0.2037  0.3964
   24SOL    HW1  650   7.242   1.262   5.093  0.1581  0.4699  0.3082
   24SOL    HW2  651   7.225   1.358   5.209 -0.5267 -0.0353  0.6347
   25SOL     OW  652   2.118   4.550   2.873  0.3109  0.3207  0.1401
   25SOL    HW1  653   2.075   4.622   2.920  2.0372  1.9070 -0.5780
   25SOL    HW2  654   2.057   4.529   2.802 -1.9217 -1.5140  2.4245
   26SOL     OW  655   0.136   0.833   6.501 -0.2278  0.1307  0.0740
   26SOL    HW1  656   0.126   0.925   6.476  0.7309  0.3053  0.2859
   26SOL    HW2  657   0.048   0.797   6.498 -0.2326  0.0646 -3.7109
   27SOL     OW  658   0.947   0.932  10.000  0.3871  0.4465  0.4296
   27SOL    HW1  659   0.995   0.925   9.917 -0.8662 -0.7818 -0.2418
   27SOL    HW2  660   0.856   0.917   9.976  0.2710 -2.7482  2.3712
   28SOL     OW  661   3.306   7.345   9.958 -0.2419 -0.0696 -0.0999
   28SOL    HW1  662   3.352   7.277  10.007 -0.0315  0.9719  1.2350
   28SOL    HW2  663   3.364   7.422   9.965 -0.1865  0.1153 -2.0623
   29SOL     OW  664   7.381   7.754   4.107  0.0351  0.0836  0.8503
   29SOL    HW1  665   7.357   7.662   4.115 -1.7994  0.4439 -0.0286
   29SOL    HW2  666   7.416   7.777   4.194  1.9483 -1.7605  0.6689
   30SOL     OW  667   1.436   0.159   4.131  0.4042  0.6159 -0.4079
   30SOL    HW1  668   1.471   0.245   4.106  0.6791  0.5964 -0.0952
   30SOL    HW2  669   1.478   0.139   4.215  1.6824 -0.6066 -1.2997
   31SOL     OW  670   5.303   5.318   8.010 -0.2530 -0.3544  0.6839
   31SOL    HW1  671   5.289   5.406   8.042  1.0078 -0.3844  1.3699
   31SOL    HW2  672   5.336   5.330   7.921 -1.5059 -0.2057  0.2126
   32SOL     OW  673   0.734   3.903   1.051  0.1889 -0.5417 -0.2448
   32SOL    HW1  674   0.669   3.881   0.984  0.7472 -2.9957 -0.0628
   32SOL    HW2  675   0.690   3.882   1.134  1.0572 -1.9049 -0.1061
   33SOL     OW  676   4.467   7.556   6.116  0.0080  0.4536  0.1707
   33SOL    HW1  677   4.522   7.586   6.044 -0.1295 -0.9332 -0.5365
   33SOL    HW2  678   4.397   7.505   6.074  0.5599 -1.3401  1.3204
   34SOL     OW  679   2.558   9.399   6.613 -0.0892 -0.5285  0.2219
   34SOL    HW1  680   2.603   9.433   6.536  0.2897  0.4120  0.8460
   34SOL    HW2  681   2.471   9.437   6.610  0.2653  0.3474  0.8062
   35SOL     OW  682   9.515   4.704   5.753 -0.2448 -1.0151 -0.0265
   35SOL    HW1  683   9.558   4.655   5.822 -1.2432 -1.8750  0.0159
   35SOL    HW2  684   9.439   4.744   5.795  1.4208  2.0548  0.3521
   36SOL     OW  685   2.180   8.850   6.444 -0.3356  0.5571 -0.0667
   36SOL    HW1  686   2.157   8.875   6.534 -5.3758 -1.0511 -0.6174
   36SOL    HW2  687   2.182   8.932   6.396  1.8748  1.3776  1.2478
   37SOL     OW  688   3.194   9.811   4.347  0.0183  0.2593  0.4619
   37SOL    HW1  689   3.157   9.839   4.431 -1.9524 -0.7136 -0.0332
   37SOL    HW2  690   3.214   9.718   4.359 -0.2405  0.1233 -0.1193
   38SOL     OW  691   2.203   7.632   5.417 -0.1930 -0.5290 -0.1077
   38SOL    HW1  692   2.119   7.591   5.439 -0.1401 -0.0990  0.9733
   38SOL    HW2  693   2.250   7.566   5.367 -0.2155 -1.7198  1.3607
   39SOL     OW  694   7.876   5.840   2.889 -0.3024  0.3069  0.0706
   39SOL    HW1  695   7.787   5.815   2.864 -0.9458  2.0808  0.4968
   39SOL    HW2  696   7.890   5.796   2.973 -2.0950  2.6015  1.7142
   40SOL     OW  697   5.696   7.080   1.688 -0.3897  0.4258 -0.0313
   40SOL    HW1  698   5.674   7.153   1.630 -1.1449 -0.9365 -1.5370
   40SOL    HW2  699   5.787   7.059   1.665 -0.4412  0.3778 -0.1972
   41SOL     OW  700   6.929   2.211   9.088  0.0220 -0.1320 -0.1726
   41SOL    HW1  701   7.013   2.170   9.107  0.3070 -0.9335 -2.8570
   41SOL    HW2  702   6.889   2.223   9.174  2.2967 -0.9221  1.0854
   42SOL     OW  703   4.659   7.523   7.999  0.1770  0.3080 -0.3864
   42SOL    HW1  704   4.635   7.573   7.921 -1.4799 -1.6893 -1.2555
   42SOL    HW2  705   4.611   7.441   7.991  1.1310 -0.5911  2.0190
   43SOL     OW  706   3.683   4.421   6.318 -0.4090  0.4877 -0.4626
   43SOL    HW1  707   3.610   4.368   6.350  0.0782  0.0304 -0.0888
   43SOL    HW2  708   3.686   4.405   6.224 -0.0420 -0.4475 -0.3059
   44SOL     OW  709   7.876   7.498   7.193  0.4946  0.2679  0.1504
   44SOL    HW1  710   7.893   7.403   7.192  0.7081  0.2397  1.8706
   44SOL    HW2  711   7.876   7.520   7.286  0.6500  2.0137 -0.2405
   45SOL     OW  712   1.076   0.027   8.165 -0.1369 -0.1435  0.6818
   45SOL    HW1  713   1.095  -0.034   8.237  0.5781  0.2278  0.8111
   45SOL    HW2  714   1.087   0.114   8.203  0.0115  0.0591  0.1840
   46SOL     OW  715   0.830   1.363   2.070 -0.2680 -0.0827  0.1976
   46SOL    HW1  716   0.775   1.407   2.134  2.4038  1.6482  1.4975
   46SOL    HW2  717   0.898   1.427   2.048  1.5470 -2.2230 -0.8734
   47SOL     OW  718   2.873   5.680   1.357 -0.2789 -0.6523  0.0772
   47SOL    HW1  719   2.951   5.626   1.371 -0.2443 -0.1237  2.4683
   47SOL    HW2  720   2.842   5.699   1.446 -0.0022  3.6191 -0.5376
   48SOL     OW  721   9.024   9.200   5.502  0.0356 -0.4868  0.3735
   48SOL    HW1  722   9.017   9.122   5.557  1.9836 -1.5496 -0.7823
   48SOL    HW2  723   9.086   9.176   5.433 -0.1102  1.7485 -0.6372
   49SOL     OW  724   9.869   8.900   1.642 -0.0135  0.0217 -0.1464
   49SOL    HW1  725   9.893   8.917   1.551  2.6259 -1.6119  0.1255
   49SOL    HW2  726   9.867   8.804   1.649 -2.7015  0.0650  0.9790
   50SOL     OW  727   9.359   8.179   2.198 -0.3236  0.0808  0.7341
   50SOL    HW1  728   9.284   8.239   2.195 -0.3690  0.0678  1.4179
   50SOL    HW2  729   9.325   8.097   2.162  0.1668  0.8763 -1.6905
   51SOL     OW  730   5.579   2.886   6.711  0.2657  0.1008 -0.5208
   51SOL    HW1  731   5.642   2.933   6.657 -1.9300  1.6070 -1.9721
   51SOL    HW2  732   5.550   2.951   6.775 -1.4741  0.2805 -1.4037
   52SOL     OW  733   0.776   6.840   2.763  0.1200 -0.4863  0.0507
   52SOL    HW1  734   0.728   6.895   2.700 -0.2499  0.0491  0.7944
   52SOL    HW2  735   0.813   6.770   2.709  0.5992  0.4848 -0.9248
   53SOL     OW  736   4.559   3.645   2.931 -0.4246  0.2484  0.5279
   53SOL    HW1  737   4.628   3.710   2.920 -0.4655  0.2414  0.1946
   53SOL    HW2  738   4.575   3.606   3.017 -0.4245  0.7288  0.7481
   54SOL     OW  739   7.525   6.823   5.715  0.2853  0.1528  0.1272
   54SOL    HW1  740   7.541   6.906   5.760 -1.0250  0.9476 -0.7723
   54SOL    HW2  741   7.495   6.764   5.784  0.4136  0.6826  0.6515
   55SOL     OW  742   9.161   5.244   2.603  0.0650  0.5472 -0.2682
   55SOL    HW1  743   9.220   5.291   2.662  1.0294  0.5234 -1.1909
   55SOL    HW2  744   9.123   5.174   2.657  0.7394  0.6824  0.3828
   56SOL     OW  745   4.498   6.609   7.839  0.1262 -0.0105 -0.3336
   56SOL    HW1  746   4.526   6.659   7.763  1.1852 -1.1601 -0.7323
   56SOL    HW2  747   4.434   6.547   7.804  0.0093 -0.0035 -0.1360
   57SOL     OW  748   1.862   6.681   9.113 -0.8668  0.5041 -1.0456
   57SOL    HW1  749   1.951   6.674   9.149 -1.0522 -1.5161 -0.8663
   57SOL    HW2  750   1.856   6.610   9.049 -2.9642 -0.7241  0.3800
   58SOL     OW  751   0.204  -0.007   3.231 -0.0785 -0.5720 -0.6013
   58SOL    HW1  752   0.187   0.085   3.247  1.8588 -0.6101  2.4870
   58SOL    HW2  753   0.165  -0.024   3.145 -1.5904  2.7579 -0.7359
   59SOL     OW  754   3.919   9.429   7.138 -0.4907  0.4623  0.1826
   59SOL    HW1  755   3.893   9.371   7.067  2.4085  0.1109 -0.7306
   59SOL    HW2  756   3.939   9.513   7.095 -0.9772  0.9744  0.9346
   60SOL     OW  757   4.469   0.829   5.494 -0.7989  0.2841 -0.1414
   60SOL    HW1  758   4.525   0.900   5.526 -1.9418  0.8411  0.6933
   60SOL    HW2  759   4.522   0.783   5.430 -0.3154  2.3998 -1.3197
   61SOL     OW  760   0.684   5.980   3.546 -0.1460 -0.2190 -0.2854
   61SOL    HW1  761   0.598   5.986   3.586 -0.8021  0.4131 -1.7360
   61SOL    HW2  762   0.733   6.053   3.584 -0.8503  0.5429 -0.7940
   62SOL     OW  763   8.332   2.100   4.918 -0.2424 -0.2987  0.1278
   62SOL    HW1  764   8.356   2.190   4.939 -2.2928  0.3421 -0.0635
   62SOL    HW2  765   8.415   2.052   4.919  0.8821  1.5583  0.3260
   63SOL     OW  766   2.927   3.750   9.723  0.2616 -0.4130 -0.1484
   63SOL    HW1  767   2.957   3.663   9.696 -0.4185 -0.3189 -1.2601
   63SOL    HW2  768   2.891   3.789   9.643  1.8483  1.4615 -0.0279
   64SOL     OW  769   6.952   0.810   5.211 -0.1689 -0.3186 -0.1162
   64SOL    HW1  770   7.025   0.766   5.168  0.1064 -0.1090  0.1362
   64SOL    HW2  771   6.963   0.902   5.189  0.1191 -0.1745  0.6129
   65SOL     OW  772   8.721   6.337   8.769 -0.0840  0.6345 -0.2353
   65SOL    HW1  773   8.804   6.326   8.815  0.1018  1.4370 -0.3760
   65SOL    HW2  774   8.743   6.331   8.676 -0.3487 -0.2060 -0.2602
   66SOL     OW  775   3.378   2.807   5.941 -0.4275  0.1578  0.0025
   66SOL    HW1  776   3.370   2.767   5.855  2.1797  0.7250 -0.5941
   66SOL    HW2  777   3.368   2.901   5.926  2.2023  0.4989 -0.1652
   67SOL     OW  778   1.410   9.045   1.262 -0.5685 -0.0077 -1.1210
   67SOL    HW1  779   1.390   8.954   1.239  2.8318 -1.0384 -0.5060
   67SOL    HW2  780   1.442   9.084   1.181 -1.4731  0.5190 -1.2426
   68SOL     OW  781   6.939   4.958   8.299  0.5369 -0.1848 -0.1484
   68SOL    HW1  782   6.869   4.898   8.322  0.1453 -0.9082 -2.9192
   68SOL    HW2  783   6.900   5.045   8.305 -0.5066 -0.5581 -1.3008
   69SOL     OW  784   6.991   0.811   6.864  0.3804  0.3905 -0.3705
   69SOL    HW1  785   6.934   0.758   6.808 -0.2072 -0.3663  0.9041
   69SOL    HW2  786   7.021   0.750   6.931  1.3508  1.2011 -0.0538
   70SOL     OW  787   3.563   6.406   9.857  0.3629  0.0466 -0.3316
   70SOL    HW1  788   3.550   6.435   9.767  3.5938  0.2945 -0.8438
   70SOL    HW2  789   3.506   6.463   9.909 -1.2754  0.1650 -2.1300
   71SOL     OW  790   5.982   6.984   1.969 -0.0788  0.2750  0.0483
   71SOL    HW1  791   6.051   6.957   1.909  0.3248 -0.3904  0.7908
   71SOL    HW2  792   6.015   7.064   2.010  0.1621  0.0868  0.2292
   72SOL     OW  793   6.826   7.419   0.334 -0.2965  0.4177 -0.2892
   72SOL    HW1  794   6.916   7.451   0.324 -0.7793  1.2211 -3.0202
   72SOL    HW2  795   6.829   7.328   0.304 -0.0262 -0.3233  1.8352
   73SOL     OW  796   9.591   7.288   6.439 -0.0610 -0.3891 -0.2264
   73SOL    HW1  797   9.659   7.237   6.483  2.1778 -0.6536 -3.6267
   73SOL    HW2  798   9.525   7.224   6.414  1.2285 -1.1744 -1.7570
   74SOL     OW  799   3.312   8.717   8.129 -0.0740 -0.2517 -0.2248
   74SOL    HW1  800   3.220   8.710   8.154  0.5631 -1.0523  2.1424
   74SOL    HW2  801   3.335   8.808   8.150  0.4412 -0.8936  2.3951
   75SOL     OW  802   5.764   5.770   0.869 -0.0741  0.0194 -0.6685
   75SOL    HW1  803   5.742   5.794   0.959 -1.0967  0.5294 -1.0351
   75SOL    HW2  804   5.788   5.678   0.873  1.2329  0.3728  0.3339
   76SOL     OW  805   3.314   7.984   9.678  0.3508 -0.0376  0.5253
   76SOL    HW1  806   3.259   7.981   9.599 -0.7542 -1.1786  1.2853
   76SOL    HW2  807   3.281   8.060   9.726  0.8161  0.4769  0.0398
   77SOL     OW  808   2.745   5.977   4.325 -0.6855  0.3922  0.1424
   77SOL    HW1  809   2.738   5.963   4.420 -1.7585  0.1434  0.0308
   77SOL    HW2  810   2.724   5.892   4.287  0.5907  0.2578 -0.3142
   78SOL     OW  811   7.444   3.275   7.248 -0.3819  0.1899 -0.2103
   78SOL    HW1  812   7.521   3.307   7.201  0.9401  1.4326  2.5887
   78SOL    HW2  813   7.464   3.184   7.270  1.0983  0.9490  1.8730
   79SOL     OW  814   4.911   1.419   9.883 -0.1746  0.3434 -0.1517
   79SOL    HW1  815   4.877   1.503   9.854  2.2764  1.4620 -0.0014
   79SOL    HW2  816   4.992   1.440   9.930  0.0434 -2.0365  0.6906
   80SOL     OW  817   5.057   6.299   1.138  0.1026  0.0738  0.3466
   80SOL    HW1  818   5.058   6.213   1.180 -1.9932 -0.1838 -0.0353
   80SOL    HW2  819   5.059   6.361   1.211  0.3443 -0.3132  0.6736
   81SOL     OW  820   3.230   0.870   1.870 -0.1995 -0.1598 -0.0425
   81SOL    HW1  821   3.186   0.913   1.944  0.6055  0.6699 -0.0419
   81SOL    HW2  822   3.284   0.938   1.831  1.1231 -1.1731 -0.0216
   82SOL     OW  823   9.582   4.330   4.433  0.1152  0.0165  0.2346
   82SOL    HW1  824   9.638   4.269   4.482 -1.1663 -2.6055 -1.3722
   82SOL    HW2  825   9.493   4.307   4.460 -0.3909  3.0698  1.5746
   83SOL     OW  826   6.266   6.364   0.489  0.3043  0.1447  0.8564
   83SOL    HW1  827   6.335   6.394   0.430 -0.3643 -0.6092 -0.3364
   83SOL    HW2  828   6.311   6.306   0.551  0.6109 -1.0882 -0.4757
   84SOL     OW  829   9.880   0.367   5.233 -0.1487 -0.4862  0.2154
   84SOL    HW1  830   9.906   0.316   5.310 -1.7079 -2.6957 -0.6020
   84SOL    HW2  831   9.880   0.303   5.162 -2.2836  0.6385 -0.8708
   85SOL     OW  832   2.264   6.824   1.253 -0.6491 -0.1837 -0.0984
   85SOL    HW1  833   2.325   6.751   1.239 -0.2608 -0.5703  2.8417
   85SOL    HW2  834   2.320   6.901   1.262 -0.7584 -0.1461  0.3006
   86SOL     OW  835   1.887   7.565   2.245 -0.1543 -0.1863 -0.5015
   86SOL    HW1  836   1.935   7.523   2.317  1.3512  3.5167  0.9168
   86SOL    HW2  837   1.953   7.576   2.177 -0.2672  0.5880 -0.4941
   87SOL     OW  838   8.724   5.968   9.158  0.6185 -0.0124 -0.1805
   87SOL    HW1  839   8.690   5.894   9.109  0.9886 -1.0649  1.0847
   87SOL    HW2  840   8.773   5.928   9.231 -0.7289  1.4341  1.6211
   88SOL     OW  841   9.941   3.637   5.140  0.2904  0.0868  0.6519
   88SOL    HW1  842  10.007   3.675   5.081  1.2657 -1.3758  0.7390
   88SOL    HW2  843   9.883   3.587   5.083 -0.1260  0.5145  0.6948
   89SOL     OW  844   0.401   4.000   1.547 -0.3731 -0.6167 -0.1103
   89SOL    HW1  845   0.480   3.963   1.585  0.0026  0.0940 -0.1883
   89SOL    HW2  846   0.414   3.991   1.452  0.4376  1.1382 -0.1900
   90SOL     OW  847   5.534   0.769   6.051  0.0980 -0.0606  0.1908
   90SOL    HW1  848   5.456   0.814   6.084 -1.0806  0.2598 -2.7513
   90SOL    HW2  849   5.547   0.696   6.113 -2.3603  0.0404  0.9429
   91SOL     OW  850   1.169   7.823   9.472  0.1858  0.2290  0.3457
   91SOL    HW1  851   1.080   7.843   9.501  0.0558  1.2851 -0.6864
   91SOL    HW2  852   1.210   7.909   9.461  0.9838 -0.2148 -0.2152
   92SOL     OW  853   4.508   5.348   1.138 -0.3825  0.1281  0.0366
   92SOL    HW1  854   4.548   5.261   1.145  0.2193  0.1644 -2.1605
   92SOL    HW2  855   4.579   5.408   1.161  0.3108  0.1213 -1.9371
   93SOL     OW  856   2.165   9.515   4.733 -0.1116  0.0645 -0.2305
   93SOL    HW1  857   2.241   9.473   4.772 -1.1503 -1.6150  0.0991
   93SOL    HW2  858   2.194   9.540   4.645  1.0025  0.0589  0.1250
   94SOL     OW  859   0.075   7.849   0.532 -0.1998 -0.2154 -0.0390
   94SOL    HW1  860   0.080   7.767   0.483  1.1407  0.3602 -0.9263
   94SOL    HW2  861   0.096   7.917   0.468 -1.1756  0.8331  0.7013
   95SOL     OW  862   5.299   5.600   9.276  0.0609  0.1227 -0.0675
   95SOL    HW1  863   5.294   5.514   9.318 -0.6005  0.9392  1.6042
   95SOL    HW2  864   5.305   5.662   9.348 -0.1221  1.5364 -1.2199
   96SOL     OW  865   6.206   5.440   4.655  0.2361 -0.2070 -0.0856
   96SOL    HW1  866   6.194   5.535   4.643  2.3043 -0.0562 -1.6146
   96SOL    HW2  867   6.131   5.413   4.708 -1.2633  2.0138 -0.9057
   97SOL     OW  868   9.709   5.535   9.097 -0.2853  0.4977 -0.8155
   97SOL    HW1  869   9.631   5.523   9.150 -0.7518  0.3960 -1.5186
   97SOL    HW2  870   9.759   5.603   9.142  0.5360 -1.2755  1.1156
   98SOL     OW  871   3.540   5.307   8.687  0.0143  0.1735 -0.4347
   98SOL    HW1  872   3.565   5.344   8.771 -3.1644  2.9561 -0.5186
   98SOL    HW2  873   3.502   5.222   8.708  0.0441  0.4544  0.8126
   99SOL     OW  874   3.481   1.151   7.865 -0.7531  0.5587 -0.6190
   99SOL    HW1  875   3.568   1.121   7.894 -0.6912  0.7442 -0.6093
   99SOL    HW2  876   3.500   1.214   7.796 -0.9097 -0.0652 -1.2443
  100SOL     OW  877   2.109   0.533   2.821 -0.3454  0.1740  0.1259
  100SOL    HW1  878   2.158   0.564   2.745  2.1128 -1.3201  0.9974
  100SOL    HW2  879   2.123   0.600   2.887 -1.0099  0.6069 -0.1573
  101SOL     OW  880   3.105   4.849   0.965 -0.6671 -0.0686  0.0237
  101SOL    HW1  881   3.186   4.815   1.004 -0.4668  0.6115  0.2140
  101SOL    HW2  882   3.135   4.911   0.899 -1.0133 -0.9202 -0.9640
  102SOL     OW  883   6.129   0.313   5.119  0.0897 -0.0063  0.1080
  102SOL    HW1  884   6.165   0.389   5.165 -0.3406 -0.6460  1.5653
  102SOL    HW2  885   6.183   0.304   5.040  2.4485 -0.2931  1.6701
  103SOL     OW  886   7.647   0.932   4.672  0.0676  0.2133  0.1189
  103SOL    HW1  887   7.633   0.913   4.765 -0.0799  0.3782  0.1297
  103SOL    HW2  888   7.567   0.903   4.629  0.8201 -1.5270 -0.1988
  104SOL     OW  889   3.570   7.223   4.112 -0.2206  0.1656  0.2419
  104SOL    HW1  890   3.640   7.287   4.105 -0.8054  0.6487 -1.7830
  104SOL    HW2  891   3.550   7.198   4.022 -1.0997 -1.6836  0.8928
  105SOL     OW  892   5.619   9.580   2.501 -0.0572  0.1792 -0.1627
  105SOL    HW1  893   5.642   9.660   2.549  0.0186  0.3597 -0.4981
  105SOL    HW2  894   5.641   9.600   2.410 -2.3216  0.6831 -0.6588
  106SOL     OW  895   9.606   4.651   7.001 -0.4462 -0.6921  0.1560
  106SOL    HW1  896   9.546   4.595   7.050  0.5358 -0.5494  1.5794
  106SOL    HW2  897   9.569   4.739   7.010 -1.2572 -0.9070 -0.9391
  107SOL     OW  898   8.892   7.371   4.755 -0.1516  0.3103 -0.1373
  107SOL    HW1  899   8.912   7.397   4.845 -2.9920  3.7183 -0.2887
  107SOL    HW2  900   8.798   7.353   4.755  0.0065 -0.8309 -2.2157
  108SOL     OW  901   9.472   7.754   8.388 -0.7012 -0.5717 -0.1832
  108SOL    HW1  902   9.380   7.779   8.379 -0.6288  0.5564  1.7562
  108SOL    HW2  903   9.515   7.797   8.314 -1.5633 -0.1901 -0.4816
  109SOL     OW  904   8.703   1.060   0.173 -0.1487 -0.3234 -0.0253
  109SOL    HW1  905   8.627   1.073   0.116  0.5515  0.1646 -0.8599
  109SOL    HW2  906   8.669   1.008   0.246 -1.0670 -0.9618 -0.8752
  110SOL     OW  907   9.567   5.515   8.488  0.8195  0.4402 -0.1460
  110SOL    HW1  908   9.555   5.596   8.537  1.5005  0.9969 -0.8716
  110SOL    HW2  909   9.478   5.483   8.472  0.5436  1.0375  0.1574
  111SOL     OW  910   7.843   9.165   1.036 -0.5334  0.2505  0.0829
  111SOL    HW1  911   7.936   9.185   1.029 -0.4336  0.0104  0.6477
  111SOL    HW2  912   7.840   9.078   1.076 -0.9503 -0.8140 -2.1119
  112SOL     OW  913   2.027   7.715   7.161  0.1121  0.1143 -0.0602
  112SOL    HW1  914   2.078   7.687   7.237  0.2234  0.4098 -0.0231
  112SOL    HW2  915   2.069   7.797   7.133 -0.1937  0.2345 -0.1745
  113SOL     OW  916   2.767   7.147   3.821  0.5580 -0.3307  0.4178
  113SOL    HW1  917   2.767   7.099   3.738 -0.7952  0.3732 -0.0275
  113SOL    HW2  918   2.858   7.144   3.850  0.7837 -1.8977 -0.3109
  114SOL     OW  919   3.473   0.876   8.149 -0.4650 -0.5572 -0.6131
  114SOL    HW1  920   3.527   0.858   8.226 -0.2694  1.3174 -0.2641
  114SOL    HW2  921   3.383   0.872   8.182 -0.3728  2.8821  0.4940
  115SOL     OW  922   0.961   0.762   4.800  0.2084  0.5647 -0.2230
  115SOL    HW1  923   0.911   0.832   4.756  0.2658  1.3957  0.9787
  115SOL    HW2  924   1.028   0.737   4.736  0.0016  1.4080 -0.7980
  116SOL     OW  925   8.665   4.555   4.694 -0.2370  0.2965 -0.5022
  116SOL    HW1  926   8.735   4.620   4.695 -0.4092  0.5067 -1.4104
  116SOL    HW2  927   8.642   4.546   4.602 -1.0489 -0.1549 -0.2626
  117SOL     OW  928   8.897   6.496   7.162 -0.2070  0.1327  0.5468
  117SOL    HW1  929   8.809   6.518   7.191 -0.3264 -1.2752  1.3167
  117SOL    HW2  930   8.939   6.455   7.238 -0.4396 -3.4257 -1.0331
  118SOL     OW  931   0.994   7.361   9.458  0.2940  0.3763 -0.2807
  118SOL    HW1  932   0.976   7.314   9.377 -0.7109  0.7047 -0.2594
  118SOL    HW2  933   1.065   7.422   9.435 -0.4534  0.9555 -1.1102
  119SOL     OW  934   2.187   1.324   0.117 -0.0728  0.0909 -0.1964
  119SOL    HW1  935   2.207   1.418   0.108 -2.2622  0.6461  0.2551
  119SOL    HW2  936   2.119   1.307   0.052  0.6594 -1.3440 -0.6362
  120SOL     OW  937   5.768   6.609   3.812 -0.0486  0.0162 -0.6138
  120SOL    HW1  938   5.712   6.680   3.782  0.6639 -0.1693 -2.5610
  120SOL    HW2  939   5.756   6.540   3.747 -0.7372 -1.7010  1.2284
  121SOL     OW  940   3.313   7.558   0.832  0.2770 -0.0437  0.0145
  121SOL    HW1  941   3.367   7.554   0.911  1.1631  0.1479 -0.5622
  121SOL    HW2  942   3.231   7.516   0.857  0.9721 -1.0615  0.6859
  122SOL     OW  943   1.586   9.660   6.452  0.2859 -0.2019  0.2961
  122SOL    HW1  944   1.501   9.653   6.497  0.9121 -1.1778  1.3757
  122SOL    HW2  945   1.568   9.626   6.364  0.1166 -3.1493  1.3392
  123SOL     OW  946   5.935   2.898   0.929  0.1516  0.0832  0.6670
  123SOL    HW1  947   5.915   2.982   0.887 -0.4249  0.5290  1.8101
  123SOL    HW2  948   6.024   2.909   0.963  0.3382 -0.0190  0.2202
  124SOL     OW  949   5.351   7.477   4.419 -0.5200 -0.2786 -0.1541
  124SOL    HW1  950   5.353   7.568   4.449  0.2730 -0.4899  0.4621
  124SOL    HW2  951   5.314   7.429   4.492  0.7667 -0.6996  0.2372
  125SOL     OW  952   7.040   3.808   7.771  0.0655 -0.1075 -0.1328
  125SOL    HW1  953   7.055   3.789   7.678  1.8329  0.8315 -0.0835
  125SOL    HW2  954   7.060   3.726   7.816 -0.1372 -0.3772 -0.5347
  126SOL     OW  955   9.906   4.821   0.945  0.1874  0.2195  0.2631
  126SOL    HW1  956   9.998   4.841   0.930 -0.0548 -0.2867 -2.4112
  126SOL    HW2  957   9.868   4.904   0.975  1.7068  0.0727  2.8761
  127SOL     OW  958   4.089   6.740   0.764  0.4117 -0.6526  0.1539
  127SOL    HW1  959   4.125   6.673   0.706  0.8310  0.3916 -0.8399
  127SOL    HW2  960   4.147   6.738   0.840 -0.1644 -2.0637  0.5959
  128SOL     OW  961   8.231   7.462   5.704  0.6661  0.7100 -0.3207
  128SOL    HW1  962   8.162   7.456   5.771  1.2702 -0.1426  0.2603
  128SOL    HW2  963   8.193   7.422   5.626  0.7864 -0.6420  0.2742
  129SOL     OW  964   1.022   2.316   3.594  0.6560 -0.2716  0.6307
  129SOL    HW1  965   0.991   2.235   3.634 -0.8086  0.1353  0.3523
  129SOL    HW2  966   0.980   2.386   3.645  1.4390  0.3169  0.4966
  130SOL     OW  967   1.155   3.016   6.168 -0.1907 -0.5459  0.3779
  130SOL    HW1  968   1.108   2.962   6.231  0.0903 -1.8628 -0.4983
  130SOL    HW2  969   1.231   2.963   6.144 -0.8238 -0.5308 -1.8164
  131SOL     OW  970   8.270   1.209   2.505 -0.1122  0.4647 -0.4866
  131SOL    HW1  971   8.181   1.217   2.539  0.3095  0.5086  0.6756
  131SOL    HW2  972   8.270   1.257   2.423 -0.8483  1.5245  0.1190
  132SOL     OW  973   7.694   2.228   5.997 -0.6714  0.0926  0.9483
  132SOL    HW1  974   7.649   2.311   5.981  0.5124  0.4130 -1.0464
  132SOL    HW2  975   7.777   2.236   5.950 -0.3410 -2.0714  1.0657
  133SOL     OW  976   2.189   1.496   4.228  0.1481  0.2013 -0.3120
  133SOL    HW1  977   2.251   1.569   4.231 -0.8042  1.2669 -3.2290
  133SOL    HW2  978   2.237   1.426   4.183 -0.2963  0.5651 -1.3771
  134SOL     OW  979   4.951   2.679   1.544  0.0348  0.1564  0.3165
  134SOL    HW1  980   5.040   2.662   1.512 -1.2568  2.2268 -5.8895
  134SOL    HW2  981   4.953   2.771   1.571 -0.0617 -0.0375  0.9894
  135SOL     OW  982   9.284   3.688   2.098  0.5899 -0.6060  0.3542
  135SOL    HW1  983   9.337   3.616   2.133 -1.0399 -1.3752  1.3908
  135SOL    HW2  984   9.200   3.647   2.076  1.0511  0.0823 -3.3939
  136SOL     OW  985   0.647   2.552   1.808  0.6934 -0.5305  0.2126
  136SOL    HW1  986   0.578   2.499   1.848 -1.5205  0.3474 -2.1708
  136SOL    HW2  987   0.721   2.491   1.799 -0.6118 -2.2549  0.6247
  137SOL     OW  988   7.286   3.275   6.705 -0.5000  0.1679  0.1698
  137SOL    HW1  989   7.266   3.228   6.786  0.3219 -0.5112 -0.0059
  137SOL    HW2  990   7.247   3.222   6.636  1.6031 -1.0799 -0.1603
  138SOL     OW  991   1.624   2.843   0.206  0.4337 -0.0566  0.1066
  138SOL    HW1  992   1.529   2.841   0.204  0.3736  0.8230  0.9017
  138SOL    HW2  993   1.652   2.797   0.127 -0.6774  1.0628 -0.9754
  139SOL     OW  994   2.097   3.518   7.775  0.2594  0.2799  1.4250
  139SOL    HW1  995   2.021   3.567   7.743  1.1566  0.6111 -0.2846
  139SOL    HW2  996   2.065   3.428   7.783 -0.7549  0.6918  2.3677
  140SOL     OW  997   9.662   2.668   3.862 -0.4204  0.6124  0.2937
  140SOL    HW1  998   9.672   2.754   3.822 -1.4039  0.8959  0.6239
  140SOL    HW2  999   9.697   2.678   3.951  1.6275  0.0215 -0.3706
  141SOL     OW 1000   4.592   5.225   5.100  0.2272  0.1688 -0.4358
  141SOL    HW1 1001   4.557   5.152   5.049  1.3317  0.0864 -1.1151
  141SOL    HW2 1002   4.678   5.242   5.061  0.7867  0.6029  0.9198
  142SOL     OW 1003   3.344   8.179   3.376  0.8569 -0.2356  0.1208
  142SOL    HW1 1004   3.331   8.270   3.349 -1.3696 -0.5960 -0.1750
  142SOL    HW2 1005   3.258   8.137   3.365  1.4166 -1.9888  1.7512
  143SOL     OW 1006   9.129   6.222   0.141  0.4037 -0.1265  0.1381
  143SOL    HW1 1007   9.117   6.154   0.207  2.6890 -1.5185 -0.7401
  143SOL    HW2 1008   9.058   6.207   0.078  0.1523 -0.9096  0.5946
  144SOL     OW 1009   3.021   3.322   7.418 -0.4296  0.5475  0.3837
  144SOL    HW1 1010   2.960   3.300   7.349  0.6997 -1.3777 -0.0759
  144SOL    HW2 1011   2.989   3.276   7.495 -0.4227  0.8162  0.5489
  145SOL     OW 1012   1.808   6.271   8.469 -0.3960  0.4260  0.1613
  145SOL    HW1 1013   1.836   6.349   8.419 -1.9798  0.4400 -0.7761
  145SOL    HW2 1014   1.819   6.199   8.407 -2.3577  0.4376 -0.2561
  146SOL     OW 1015   1.229   0.415   4.455  0.1538  0.1204  1.3087
  146SOL    HW1 1016   1.198   0.401   4.366 -0.5651  1.2297  1.3659
  146SOL    HW2 1017   1.175   0.358   4.509  1.4403 -1.5465  0.9565
  147SOL     OW 1018   3.149   7.160   8.256 -0.0267 -0.4557  0.2057
  147SOL    HW1 1019   3.074   7.194   8.303 -0.7351 -1.4228 -0.1963
  147SOL    HW2 1020   3.119   7.153   8.165  0.6019 -0.7012  0.0109
  148SOL     OW 1021   9.899   1.451   8.580  0.0260 -0.4479 -0.2374
  148SOL    HW1 1022   9.894   1.472   8.487  0.8107  0.4754 -0.0890
  148SOL    HW2 1023   9.992   1.437   8.596 -0.1045 -0.6001  0.4101
  149SOL     OW 1024   6.802   5.896   4.889  0.1087 -0.1308 -0.1856
  149SOL    HW1 1025   6.864   5.823   4.883 -0.2265 -0.3806 -0.6286
  149SOL    HW2 1026   6.792   5.911   4.983 -0.1036 -0.8954 -0.0863
  150SOL     OW 1027   1.212   5.382   8.623 -0.0070  0.9765 -0.1835
  150SOL    HW1 1028   1.162   5.454   8.584  0.2541  2.1801  1.5771
  150SOL    HW2 1029   1.186   5.382   8.715  2.3422  0.9225  0.5582
  151SOL     OW 1030   5.597   9.443   0.486  0.0467 -0.2610  0.0017
  151SOL    HW1 1031   5.563   9.533   0.487 -1.6010 -0.8538  1.1173
  151SOL    HW2 1032   5.588   9.415   0.395  3.5665  1.6915 -1.1539
  152SOL     OW 1033   8.134   0.667   6.871  0.1385 -0.1451 -0.0136
  152SOL    HW1 1034   8.172   0.739   6.921 -0.2407 -0.3916  0.6335
  152SOL    HW2 1035   8.040   0.682   6.874  0.1531  0.5987 -1.8292
  153SOL     OW 1036   5.351   3.944   1.689 -0.2517 -0.2910  0.3029
  153SOL    HW1 1037   5.273   3.916   1.736  0.0773 -0.5424  0.7037
  153SOL    HW2 1038   5.368   3.873   1.626 -1.0617  0.3377 -0.6565
  154SOL     OW 1039   6.421   1.748   4.363 -0.5811  0.3262  0.3967
  154SOL    HW1 1040   6.365   1.805   4.416 -2.9888 -1.9883  0.5575
  154SOL    HW2 1041   6.417   1.663   4.407  1.3744 -0.4832 -0.8409
  155SOL     OW 1042   5.582   4.479   6.233  0.4567  0.1278  0.0776
  155SOL    HW1 1043   5.568   4.415   6.164  1.0815  0.2014 -0.1142
  155SOL    HW2 1044   5.559   4.563   6.193  1.2050  0.2197 -0.1660
  156SOL     OW 1045   9.444   1.173   2.082 -0.3128  0.0374 -0.5483
  156SOL    HW1 1046   9.419   1.260   2.051  0.9971  1.4607  2.0263
  156SOL    HW2 1047   9.389   1.158   2.159  1.7877  0.2040  1.0865
  157SOL     OW 1048   5.143   7.940   9.175 -0.2428  0.6365 -0.1276
  157SOL    HW1 1049   5.048   7.948   9.180 -0.1409  1.5201  1.0938
  157SOL    HW2 1050   5.166   7.878   9.244 -0.0706 -1.3050 -1.8561
  158SOL     OW 1051   9.605   0.088   3.907 -0.7127  0.2639  0.3602
  158SOL    HW1 1052   9.592   0.047   3.821 -0.8360 -0.9592  0.9388
  158SOL    HW2 1053   9.698   0.075   3.925 -0.8405 -0.1418  0.7328
  159SOL     OW 1054   9.771   7.536   7.954  0.0552 -0.0528 -0.0077
  159SOL    HW1 1055   9.697   7.480   7.929  0.4874 -0.5881 -0.1185
  159SOL    HW2 1056   9.789   7.513   8.045  0.1172  0.0334  0.0018
  160SOL     OW 1057   4.898   7.687   1.353 -0.5796  0.2278 -0.0078
  160SOL    HW1 1058   4.915   7.742   1.429  1.1327  0.7697 -0.7335
  160SOL    HW2 1059   4.901   7.598   1.387  0.5972  0.4437  0.5215
  161SOL     OW 1060   8.647   7.990   6.971  0.1211 -0.1368  0.5322
  161SOL    HW1 1061   8.741   8.000   6.984  0.2504 -1.5386  0.8730
  161SOL    HW2 1062   8.607   8.028   7.050  0.3833  0.5113  0.3602
  162SOL     OW 1063   7.040   4.697   8.350 -0.6797  0.0619 -0.1541
  162SOL    HW1 1064   7.093   4.713   8.272  1.5174  0.9771  1.4517
  162SOL    HW2 1065   7.017   4.785   8.382 -1.3698 -0.2977  0.3788
  163SOL     OW 1066   7.560   1.180   0.423  0.5871  0.0510 -0.0072
  163SOL    HW1 1067   7.526   1.218   0.504 -0.5585  0.0642 -0.4679
  163SOL    HW2 1068   7.571   1.254   0.364  1.0487 -0.0027  0.0095
  164SOL     OW 1069   9.696   5.418   0.476  0.2931 -0.2218  0.0602
  164SOL    HW1 1070   9.688   5.435   0.570  0.0498 -0.6772  0.1220
  164SOL    HW2 1071   9.789   5.429   0.457  0.3965 -0.4755  0.4206
  165SOL     OW 1072   2.714   6.454   7.380  0.4811  0.2170  0.2327
  165SOL    HW1 1073   2.757   6.503   7.309  1.9123  0.4479  1.2225
  165SOL    HW2 1074   2.755   6.487   7.460  0.6158 -1.7465  1.0218
  166SOL     OW 1075   9.770   1.666   0.592 -0.0317  0.5327 -0.1152
  166SOL    HW1 1076   9.816   1.700   0.515  0.7056  1.7621  0.8251
  166SOL    HW2 1077   9.679   1.657   0.564  0.3488  0.2837 -1.3301
  167SOL     OW 1078   4.720   8.422   4.821  0.4956  0.0096 -0.0086
  167SOL    HW1 1079   4.721   8.372   4.903  1.0338  2.5566  1.6792
  167SOL    HW2 1080   4.810   8.415   4.789  0.2088 -1.2545 -0.6001
  168SOL     OW 1081   7.872   3.330   1.644 -0.1291  0.1231 -0.0778
  168SOL    HW1 1082   7.963   3.357   1.636  0.0466 -0.6108 -0.7367
  168SOL    HW2 1083   7.829   3.403   1.688  0.7734  0.4743  0.2506
  169SOL     OW 1084   6.883   8.939   5.088  0.4473  0.1373  0.4495
  169SOL    HW1 1085   6.902   9.030   5.069 -0.3269  0.3448  0.6393
  169SOL    HW2 1086   6.968   8.894   5.081  0.7620  0.7997 -0.0202
  170SOL     OW 1087   9.133   6.058   4.380  0.0399 -0.3696 -0.1657
  170SOL    HW1 1088   9.050   6.098   4.354 -0.3139 -1.0434 -0.1018
  170SOL    HW2 1089   9.174   6.032   4.297 -0.5753 -1.5130 -0.1278
  171SOL     OW 1090   1.554   4.338   2.254  0.0646  0.9105 -0.2183
  171SOL    HW1 1091   1.559   4.428   2.286 -2.1008  1.2117 -0.5436
  171SOL    HW2 1092   1.538   4.347   2.160  1.0836  0.1376 -0.4827
  172SOL     OW 1093   8.860   9.595   6.164  0.5323 -0.5336 -0.6358
  172SOL    HW1 1094   8.848   9.520   6.105  0.7994 -0.5046 -0.7257
  172SOL    HW2 1095   8.890   9.665   6.107  1.1787 -0.6185 -0.4008
  173SOL     OW 1096   6.867   8.327   7.688 -0.0442 -0.5325  0.3985
  173SOL    HW1 1097   6.891   8.245   7.731  0.6751 -0.6040 -0.1299
  173SOL    HW2 1098   6.785   8.352   7.730  0.2956 -0.9488  1.3423
  174SOL     OW 1099   2.113   1.639   8.008  0.2652 -0.4315 -0.1000
  174SOL    HW1 1100   2.155   1.661   8.091  0.1799 -0.9062  0.0683
  174SOL    HW2 1101   2.089   1.547   8.016  0.8516 -0.6664 -0.9014
  175SOL     OW 1102   9.361   9.518   5.422  0.3440  0.2240 -0.1407
  175SOL    HW1 1103   9.301   9.446   5.403 -1.4654  1.1826  1.5961
  175SOL    HW2 1104   9.390   9.549   5.336 -1.3606 -0.5185 -1.0243
  176SOL     OW 1105   3.854   6.770   6.852  0.1728  0.5910  0.1896
  176SOL    HW1 1106   3.949   6.760   6.858  0.0309 -1.1107  0.0332
  176SOL    HW2 1107   3.841   6.840   6.788  1.3098  0.7820  0.1484
  177SOL     OW 1108   8.346   3.763   9.823  0.0116 -0.3966  0.4274
  177SOL    HW1 1109   8.433   3.731   9.804  0.4342  1.4200 -0.9791
  177SOL    HW2 1110   8.300   3.762   9.739 -0.4617  1.0502  0.6374
  178SOL     OW 1111   7.682   8.373   0.874 -0.2197 -0.4674 -0.1856
  178SOL    HW1 1112   7.776   8.361   0.862 -0.1832  0.6930 -1.3707
  178SOL    HW2 1113   7.652   8.292   0.915  1.4457 -0.4337  1.1839
  179SOL     OW 1114   2.141   2.453   1.855  0.0486 -0.2217 -0.4852
  179SOL    HW1 1115   2.156   2.498   1.772 -1.7980  1.1921 -0.1078
  179SOL    HW2 1116   2.171   2.515   1.922 -0.7226 -0.3345 -0.0217
  180SOL     OW 1117   5.506   5.418   6.862 -0.3991  0.4716 -0.4179
  180SOL    HW1 1118   5.471   5.380   6.942  1.0090  0.2006  0.0884
  180SOL    HW2 1119   5.558   5.349   6.822  0.7293  1.2891 -0.4080
  181SOL     OW 1120   3.085   7.166   7.614 -0.5890  0.2742 -0.8404
  181SOL    HW1 1121   3.156   7.182   7.552  1.3030  0.5759  1.2904
  181SOL    HW2 1122   3.075   7.249   7.662 -0.6115 -0.5132  0.5756
  182SOL     OW 1123   2.937   2.795   7.638  0.2234 -0.7919 -0.6818
  182SOL    HW1 1124   3.008   2.838   7.686 -0.5017  0.2305 -0.4736
  182SOL    HW2 1125   2.969   2.790   7.548 -0.3751  2.1012 -1.1888
  183SOL     OW 1126   9.023   2.488   2.242 -0.3622 -0.2728  0.0150
  183SOL    HW1 1127   9.107   2.499   2.197  0.5566 -0.8923  1.4713
  183SOL    HW2 1128   9.006   2.394   2.237 -1.7478  0.0264 -1.5393
  184SOL     OW 1129   8.766   0.991   4.196  0.3199 -0.2259 -0.6506
  184SOL    HW1 1130   8.790   0.970   4.106  0.0627 -0.0197 -0.7707
  184SOL    HW2 1131   8.846   0.977   4.247  0.7022  0.5123 -1.0442
  185SOL     OW 1132   1.317   8.986   7.591  0.2988 -0.1139 -0.4360
  185SOL    HW1 1133   1.310   9.080   7.575 -0.7418 -0.1333 -0.1747
  185SOL    HW2 1134   1.279   8.974   7.678  0.4697 -0.7749 -0.4461
  186SOL     OW 1135   5.136   7.373   9.035 -0.1203 -0.3807  0.2131
  186SOL    HW1 1136   5.155   7.412   8.950 -0.1539 -0.1609  0.3064
  186SOL    HW2 1137   5.190   7.294   9.038 -1.6686 -1.5411 -0.8791
  187SOL     OW 1138   9.712   5.027   2.712 -0.2044 -0.0951  0.2320
  187SOL    HW1 1139   9.779   4.959   2.719  1.1227  1.1530  0.1125
  187SOL    HW2 1140   9.760   5.109   2.721 -1.6029  0.8783 -0.7306
  188SOL     OW 1141   9.193   6.569   8.355  0.7593  0.3056  0.1532
  188SOL    HW1 1142   9.226   6.622   8.428  0.0029  0.6442  0.2549
  188SOL    HW2 1143   9.239   6.602   8.278  1.4429  0.0569  0.4436
  189SOL     OW 1144   4.683   0.720   2.175  0.0744 -0.1457 -0.8555
  189SOL    HW1 1145   4.705   0.679   2.092  1.3205 -1.3339  0.0259
  189SOL    HW2 1146   4.767   0.728   2.221 -0.6916 -0.3017  0.6335
  190SOL     OW 1147   4.720   1.868   4.539  0.0990 -0.4953 -0.5229
  190SOL    HW1 1148   4.634   1.833   4.516  0.4432 -1.3485 -0.5589
  190SOL    HW2 1149   4.782   1.816   4.486  0.7429 -0.9664  0.6368
  191SOL     OW 1150   9.734   6.596   5.777 -0.0838 -0.2732 -0.7003
  191SOL    HW1 1151   9.754   6.689   5.763  1.2272 -0.2296  1.1761
  191SOL    HW2 1152   9.802   6.549   5.728 -1.3050 -0.3382 -2.4632
  192SOL     OW 1153   3.101   0.644   4.759  0.2919  0.1835 -0.0382
  192SOL    HW1 1154   3.034   0.622   4.693  0.2232  0.5414 -0.0925
  192SOL    HW2 1155   3.175   0.587   4.738  0.1404  0.0473 -0.2093
  193SOL     OW 1156   8.611   9.962   6.848 -0.0138 -0.2551  0.4344
  193SOL    HW1 1157   8.666  10.033   6.815 -0.1699 -0.3062  0.0533
  193SOL    HW2 1158   8.670   9.908   6.900  0.6959 -1.2259 -1.3154
  194SOL     OW 1159   8.081   3.511   6.203 -0.6521  0.3182  0.4666
  194SOL    HW1 1160   8.005   3.492   6.258 -0.7165 -1.8110 -0.2352
  194SOL    HW2 1161   8.063   3.465   6.121  0.7024  1.0742 -0.2941
  195SOL     OW 1162   8.676   9.735   4.775  0.8262 -0.5268  0.0934
  195SOL    HW1 1163   8.649   9.672   4.842 -1.9160  0.5247  0.1105
  195SOL    HW2 1164   8.651   9.694   4.692 -0.4519  0.2476  0.0719
  196SOL     OW 1165   8.542   0.315   1.258 -0.3295  0.8165  0.2158
  196SOL    HW1 1166   8.533   0.403   1.221  0.3044  1.5597  1.7367
  196SOL    HW2 1167   8.510   0.323   1.348 -1.0979 -0.7429  0.1267
  197SOL     OW 1168   6.554   7.010   0.478  0.3656 -0.5178  0.0252
  197SOL    HW1 1169   6.524   6.922   0.454  0.0558 -0.5069  0.3598
  197SOL    HW2 1170   6.493   7.038   0.546  1.7368 -0.8955  1.4633
  198SOL     OW 1171   2.459   0.491   4.665 -0.5248 -0.4923 -0.0933
  198SOL    HW1 1172   2.539   0.447   4.635 -1.5140 -0.9525 -2.2176
  198SOL    HW2 1173   2.463   0.485   4.761  2.5625  0.5784 -0.0416
  199SOL     OW 1174   5.404   6.523   9.137  0.1815 -0.1378  0.8689
  199SOL    HW1 1175   5.467   6.455   9.115 -0.3514 -0.5090  0.4841
  199SOL    HW2 1176   5.424   6.595   9.076  1.2305  0.3586  1.7714
  200SOL     OW 1177   0.461   9.770   7.446 -0.2735 -0.2412 -0.3222
  200SOL    HW1 1178   0.541   9.820   7.458 -0.3073 -0.0892 -0.7216
  200SOL    HW2 1179   0.392   9.836   7.438 -0.3149 -0.3454 -0.8843
  201SOL     OW 1180   0.600   1.521   5.003 -0.3102  0.0514 -0.2108
  201SOL    HW1 1181   0.678   1.509   4.949 -0.0405 -2.1898  0.5756
  201SOL    HW2 1182   0.561   1.434   5.009 -1.4729  0.6280  1.5345
  202SOL     OW 1183   7.061   1.760   6.784  0.1945  0.8458 -0.8049
  202SOL    HW1 1184   6.979   1.745   6.830  1.0959 -0.7244  0.3873
  202SOL    HW2 1185   7.097   1.839   6.825  1.8307 -1.4388  2.7352
  203SOL     OW 1186   1.660   8.386   2.453 -0.6344 -0.0107  0.3979
  203SOL    HW1 1187   1.621   8.459   2.501  0.5565  0.4872  0.6376
  203SOL    HW2 1188   1.586   8.328   2.433 -1.4237  0.7006  1.1895
  204SOL     OW 1189   8.132   9.658   4.085  0.6937 -0.2771 -0.1496
  204SOL    HW1 1190   8.181   9.683   4.007  1.2144 -0.5882  0.0654
  204SOL    HW2 1191   8.040   9.668   4.061  0.7483 -2.4849 -1.5793
  205SOL     OW 1192   8.310   7.274   5.214 -0.7876 -0.7391 -0.3182
  205SOL    HW1 1193   8.361   7.335   5.267  0.1743  0.8152 -2.8073
  205SOL    HW2 1194   8.300   7.196   5.268  1.1177  0.2730  1.6190
  206SOL     OW 1195   3.512   3.877   9.361 -0.2328  0.9486 -0.0778
  206SOL    HW1 1196   3.583   3.912   9.307 -1.0106 -1.2702 -2.7819
  206SOL    HW2 1197   3.434   3.886   9.307 -1.1546 -1.0589  0.8227
  207SOL     OW 1198   4.407   0.147   0.812  0.1274  0.1029  0.7847
  207SOL    HW1 1199   4.356   0.067   0.820  2.2791 -1.2922  1.2382
  207SOL    HW2 1200   4.444   0.161   0.899  0.1284  1.3797  0.6050
  208SOL     OW 1201   5.032   3.688   3.487 -0.2029 -0.2014 -0.2418
  208SOL    HW1 1202   5.066   3.650   3.405  2.3189 -4.2578  2.2848
  208SOL    HW2 1203   4.969   3.623   3.518 -0.1631  0.5808  1.5703
  209SOL     OW 1204   3.949   0.406   2.919  0.3762  0.0599 -0.0250
  209SOL    HW1 1205   3.932   0.499   2.902  0.9245  0.2497  0.4345
  209SOL    HW2 1206   4.039   0.404   2.950 -0.5166 -0.2320  2.8560
  210SOL     OW 1207   0.992   1.028   4.199  0.1835 -0.6468 -0.2198
  210SOL    HW1 1208   1.018   1.079   4.276  2.4604 -1.9655  0.0039
  210SOL    HW2 1209   0.957   1.092   4.138  1.1972  0.9105  0.7533
  211SOL     OW 1210   3.803   2.309   9.004  0.0689  0.1954  0.1889
  211SOL    HW1 1211   3.812   2.267   8.918  1.9742  1.0643 -0.1053
  211SOL    HW2 1212   3.859   2.257   9.062 -1.0445 -0.2608  0.8673
  212SOL     OW 1213   0.491   8.748   8.246 -0.1562 -0.9694 -0.1929
  212SOL    HW1 1214   0.430   8.794   8.188  0.2139  1.1296  0.9630
  212SOL    HW2 1215   0.448   8.750   8.332  0.0829 -2.4583 -0.0060
  213SOL     OW 1216   2.782   1.818   9.740  0.5877 -0.1359  0.1382
  213SOL    HW1 1217   2.708   1.781   9.692  1.5679  0.2765 -1.7841
  213SOL    HW2 1218   2.742   1.868   9.810 -1.0182  0.7546 -1.3331
  214SOL     OW 1219   3.498   9.421   2.032 -0.4371 -0.0315 -0.4378
  214SOL    HW1 1220   3.578   9.442   2.081 -1.8310 -0.0902  2.0152
  214SOL    HW2 1221   3.515   9.335   1.994  0.4078 -0.4033  0.7136
  215SOL     OW 1222   4.108   7.473   3.620 -0.5318 -0.1391 -0.5076
  215SOL    HW1 1223   4.120   7.528   3.698 -1.4560  0.6902 -0.9380
  215SOL    HW2 1224   4.020   7.437   3.629  0.3481 -2.2871  0.1937
  216SOL     OW 1225   0.384   8.627   1.502 -0.0414  0.0581 -0.4937
  216SOL    HW1 1226   0.411   8.593   1.588 -0.3391  0.9529 -0.0306
  216SOL    HW2 1227   0.292   8.602   1.495 -0.3885  1.1063  0.0470
  217SOL     OW 1228   4.973   2.519   6.732 -0.2129 -0.2778  0.5931
  217SOL    HW1 1229   5.010   2.605   6.714 -1.4018 -0.0301 -0.8061
  217SOL    HW2 1230   4.928   2.530   6.816  0.1275  0.2944  0.7083
  218SOL     OW 1231   4.376   7.875   8.843  0.4483  0.3076 -0.4079
  218SOL    HW1 1232   4.368   7.954   8.896 -2.0806 -0.1637  0.0487
  218SOL    HW2 1233   4.359   7.803   8.904  1.3121 -0.5230 -1.1119
  219SOL     OW 1234   9.409   8.540   1.775 -0.1218  0.5754 -0.2106
  219SOL    HW1 1235   9.406   8.617   1.718  0.7731  0.8375  0.0753
  219SOL    HW2 1236   9.417   8.576   1.863 -0.3975  0.1578 -0.0127
  220SOL     OW 1237   4.137   4.775   6.257 -0.3535  0.4604  0.3113
  220SOL    HW1 1238   4.111   4.836   6.188  1.8809  1.9382  0.6715
  220SOL    HW2 1239   4.189   4.709   6.212  0.1439  0.7867  0.3986
  221SOL     OW 1240   6.505   9.749   4.394  0.4035 -0.0021 -0.3412
  221SOL    HW1 1241   6.463   9.674   4.353 -0.5309 -1.1908  2.5324
  221SOL    HW2 1242   6.594   9.720   4.412  0.3890 -0.0076 -0.2772
  222SOL     OW 1243   5.321   5.832   4.310  0.0244 -0.3437 -0.4049
  222SOL    HW1 1244   5.412   5.807   4.321  0.1509 -0.3695 -1.4052
  222SOL    HW2 1245   5.275   5.750   4.290  0.1455 -0.0676 -1.9405
  223SOL     OW 1246   0.069   7.195   1.108 -0.5293 -0.0309  0.0685
  223SOL    HW1 1247   0.097   7.284   1.131  0.3599  0.0301 -1.1433
  223SOL    HW2 1248  -0.019   7.188   1.145  0.0511  0.7252  1.6846
  224SOL     OW 1249   7.034   7.842   5.036 -0.2476  0.1194  0.0972
  224SOL    HW1 1250   7.018   7.869   4.945 -0.2770 -0.1457  0.0218
  224SOL    HW2 1251   7.117   7.883   5.059  1.3536 -2.2785 -1.0832
  225SOL     OW 1252   1.556   5.580   9.660  0.7996  0.2721 -0.6562
  225SOL    HW1 1253   1.638   5.585   9.709  0.4315 -0.8296  0.1054
  225SOL    HW2 1254   1.552   5.490   9.628  0.2470  0.5290 -1.3367
  226SOL     OW 1255   1.051   5.631   8.560 -0.0246  0.2772 -0.2786
  226SOL    HW1 1256   1.053   5.622   8.464  1.8474  0.3099 -0.2797
  226SOL    HW2 1257   1.071   5.723   8.576  2.0289 -0.2055  0.1605
  227SOL     OW 1258   2.332   8.409   0.374 -0.2991 -0.3501 -0.6949
  227SOL    HW1 1259   2.410   8.362   0.345  0.4508  0.6921 -0.3976
  227SOL    HW2 1260   2.343   8.417   0.469 -0.7769 -0.1988 -0.6470
  228SOL     OW 1261   8.979   1.762   5.871 -0.0693 -0.2258  0.0910
  228SOL    HW1 1262   8.989   1.845   5.918 -0.6231  1.2873 -2.2747
  228SOL    HW2 1263   9.067   1.742   5.840 -0.3211  0.8847 -1.4563
  229SOL     OW 1264   1.648   4.459   7.271  0.6658 -0.0152 -0.0128
  229SOL    HW1 1265   1.563   4.450   7.229  0.1147  0.9795  0.8419
  229SOL    HW2 1266   1.669   4.372   7.303 -1.2323  0.1769  1.9834
  230SOL     OW 1267   5.853   1.924   8.595 -0.7212 -0.4991  0.2755
  230SOL    HW1 1268   5.865   1.968   8.511  0.2426 -3.5602 -1.3363
  230SOL    HW2 1269   5.910   1.973   8.655  0.8624  0.0676 -1.5541
  231SOL     OW 1270   8.047   8.776   8.681  0.0501  0.1844 -0.4352
  231SOL    HW1 1271   7.953   8.794   8.682  0.1229  0.8472 -1.8466
  231SOL    HW2 1272   8.055   8.688   8.718 -1.0498  0.3640  0.2901
  232SOL     OW 1273   5.144   3.508   0.146  0.0491 -0.2948 -0.5869
  232SOL    HW1 1274   5.090   3.470   0.215  2.6060 -0.7319  1.3115
  232SOL    HW2 1275   5.083   3.522   0.073 -2.4523 -1.2598  1.1795
  233SOL     OW 1276   5.297   8.393   8.195 -0.1187 -0.1904 -0.0304
  233SOL    HW1 1277   5.268   8.391   8.104  1.6451 -0.5025 -0.6074
  233SOL    HW2 1278   5.360   8.321   8.202  1.1029  0.9345  0.9584
  234SOL     OW 1279   6.486   9.290   7.512 -0.7669 -0.8608  0.1901
  234SOL    HW1 1280   6.506   9.291   7.605 -0.9721  0.6438  0.2541
  234SOL    HW2 1281   6.569   9.310   7.469 -0.9052 -0.3713  0.1352
  235SOL     OW 1282   4.499   5.717   1.411  0.1269 -0.3629 -0.4061
  235SOL    HW1 1283   4.535   5.665   1.339  0.0847 -1.0203  0.0333
  235SOL    HW2 1284   4.411   5.682   1.425  0.6877 -1.3424  0.9821
  236SOL     OW 1285   5.847   9.382   2.379 -0.0985  0.7180  0.0690
  236SOL    HW1 1286   5.868   9.474   2.360  0.2703  0.4215 -1.0168
  236SOL    HW2 1287   5.773   9.387   2.440 -1.7648  1.7546 -1.8859
  237SOL     OW 1288   6.688   2.372   5.167 -0.4175 -0.0518  0.1323
  237SOL    HW1 1289   6.667   2.450   5.116 -1.1692  0.2937  0.9424
  237SOL    HW2 1290   6.667   2.298   5.110  1.4553  0.2978 -1.1162
  238SOL     OW 1291   3.412   9.278   7.345 -0.0023 -0.4849 -0.1784
  238SOL    HW1 1292   3.434   9.186   7.331  0.0677 -0.3701 -0.8290
  238SOL    HW2 1293   3.450   9.298   7.431  0.3995 -0.9279 -0.2484
  239SOL     OW 1294   8.351   8.053   0.953 -0.3574  0.5944 -0.3928
  239SOL    HW1 1295   8.312   7.967   0.938 -1.2201  1.3430 -3.0516
  239SOL    HW2 1296   8.410   8.065   0.878  0.6589  1.8362  0.5705
  240SOL     OW 1297   8.581   1.296   4.008  0.2448 -0.1959  0.2562
  240SOL    HW1 1298   8.624   1.248   3.938  2.3454  1.1267  0.5394
  240SOL    HW2 1299   8.489   1.270   4.004  0.6509 -1.4298 -1.8673
  241SOL     OW 1300   9.581   5.951   2.756  0.0165  1.2559 -0.0722
  241SOL    HW1 1301   9.530   5.995   2.688  1.8444  0.2332 -2.2495
  241SOL    HW2 1302   9.648   6.015   2.781 -0.0059  1.2564 -0.0121
  242SOL     OW 1303   7.816   9.038   2.339  0.2459 -0.1226  0.3464
  242SOL    HW1 1304   7.755   9.082   2.399 -1.2066 -0.5930 -0.7192
  242SOL    HW2 1305   7.770   9.036   2.255  0.8481 -2.3733  0.0027
  243SOL     OW 1306   2.178   1.385   4.676 -0.0213  0.1258 -0.1830
  243SOL    HW1 1307   2.158   1.364   4.768 -1.2239  1.7128 -0.0420
  243SOL    HW2 1308   2.202   1.477   4.678 -2.9292  1.0315 -1.8220
  244SOL     OW 1309   4.566   1.353   7.587  0.4941 -0.2319 -0.0508
  244SOL    HW1 1310   4.661   1.358   7.571  0.5911  2.1193  0.7494
  244SOL    HW2 1311   4.530   1.427   7.537 -0.5337  0.5330  1.7123
  245SOL     OW 1312   4.785   4.242   5.372 -0.0261  0.3575 -0.2080
  245SOL    HW1 1313   4.767   4.190   5.450 -0.9793  3.2915  1.6963
  245SOL    HW2 1314   4.714   4.221   5.312 -0.3072 -0.6158  0.4550
  246SOL     OW 1315   3.554   7.425   3.215 -0.4769  0.4879  0.2717
  246SOL    HW1 1316   3.504   7.498   3.179 -1.2184 -0.3130 -0.3488
  246SOL    HW2 1317   3.528   7.420   3.307 -2.9964 -1.0757 -0.4519
  247SOL     OW 1318   9.362   5.331   3.130 -0.5607 -0.2314 -0.2032
  247SOL    HW1 1319   9.322   5.245   3.114 -1.3171  0.3600 -1.6907
  247SOL    HW2 1320   9.445   5.328   3.082  0.2313 -0.6887  1.1236
  248SOL     OW 1321   0.751   9.729   3.759  0.5856  0.0163  0.3351
  248SOL    HW1 1322   0.798   9.698   3.837 -1.2142  0.4613  1.6576
  248SOL    HW2 1323   0.659   9.727   3.784 -0.0948 -0.2518 -1.9627
  249SOL     OW 1324   3.078   8.697   0.436 -0.0990 -0.6235  0.1557
  249SOL    HW1 1325   3.069   8.640   0.513 -1.0919 -1.6158 -0.6619
  249SOL    HW2 1326   3.160   8.744   0.451 -1.1769  0.6402  2.7282
  250SOL     OW 1327   0.900   1.851   6.484 -0.2715  0.3972 -0.3277
  250SOL    HW1 1328   0.857   1.863   6.569  0.4967 -0.6276  0.2364
  250SOL    HW2 1329   0.969   1.917   6.482  0.3794 -0.2464  0.3199
  251SOL     OW 1330   8.461   9.573   2.526  0.0639  0.0940 -0.3039
  251SOL    HW1 1331   8.435   9.577   2.618  1.2528 -0.2793  0.0675
  251SOL    HW2 1332   8.484   9.663   2.504 -1.6607  0.4821 -0.7108
  252SOL     OW 1333   2.126   1.910   1.389  0.2517  0.6818  0.2838
  252SOL    HW1 1334   2.049   1.856   1.410  0.5964  0.7535  1.8775
  252SOL    HW2 1335   2.092   1.979   1.333 -0.1643 -1.2791 -2.0275
  253SOL     OW 1336   9.402   6.321   2.302 -0.6653 -0.2569  0.1567
  253SOL    HW1 1337   9.370   6.392   2.358 -0.7204 -1.3934  1.6518
  253SOL    HW2 1338   9.490   6.302   2.335 -0.4057 -0.4649 -0.6439
  254SOL     OW 1339   5.687   5.378   1.366  0.7697  0.9019  0.5353
  254SOL    HW1 1340   5.609   5.402   1.317  2.2639  1.5360 -1.6599
  254SOL    HW2 1341   5.699   5.284   1.349 -0.8049  0.1646  2.9155
  255SOL     OW 1342   1.643   0.173   4.797  0.0719 -0.4373  0.2170
  255SOL    HW1 1343   1.600   0.223   4.728  0.2109 -0.6071  0.0067
  255SOL    HW2 1344   1.736   0.174   4.774  0.1740 -0.1513  0.6198
  256SOL     OW 1345   5.559   1.441   1.333 -0.2705  0.5410 -0.6278
  256SOL    HW1 1346   5.607   1.471   1.256 -0.6381  3.3466  0.1065
  256SOL    HW2 1347   5.482   1.397   1.299  1.6687 -2.1538 -1.8193
  257SOL     OW 1348   7.487   9.712   8.593  0.0861  0.5538 -0.4913
  257SOL    HW1 1349   7.436   9.642   8.634 -0.9221  0.2386 -2.2237
  257SOL    HW2 1350   7.517   9.766   8.667  1.3057 -1.9085  0.9404
  258SOL     OW 1351   6.346   0.818   7.634 -0.2228  0.1492 -0.5417
  258SOL    HW1 1352   6.326   0.758   7.706 -0.6738  0.7132 -0.1877
  258SOL    HW2 1353   6.272   0.880   7.633 -0.0836  0.3151 -1.3085
  259SOL     OW 1354   2.554   2.336   1.415  0.1448 -0.0370 -0.4451
  259SOL    HW1 1355   2.506   2.259   1.449 -0.3513 -0.1260 -1.3209
  259SOL    HW2 1356   2.615   2.300   1.351  0.5735  0.2099 -0.1826
  260SOL     OW 1357   5.058   1.550   5.876 -0.4202  0.2890  0.2208
  260SOL    HW1 1358   4.997   1.607   5.830 -0.2213  0.7549  0.5268
  260SOL    HW2 1359   5.037   1.462   5.845 -1.2062  0.4498  0.2762
  261SOL     OW 1360   4.339   6.154   4.619 -0.1868 -0.1298 -0.2856
  261SOL    HW1 1361   4.323   6.073   4.668 -1.0869  0.4187  0.3668
  261SOL    HW2 1362   4.321   6.224   4.682  2.6563  0.6124 -0.1872
  262SOL     OW 1363   6.627   2.333   7.278  0.0672  0.2465  0.3750
  262SOL    HW1 1364   6.709   2.382   7.276  1.1291 -1.3817  1.1189
  262SOL    HW2 1365   6.622   2.299   7.368  0.5657 -2.7542 -0.6101
  263SOL     OW 1366   6.064   2.552   9.419  0.1822  0.9004 -0.4352
  263SOL    HW1 1367   6.000   2.603   9.468 -0.1410  0.1326 -0.0431
  263SOL    HW2 1368   6.136   2.613   9.401 -0.8414  1.8892 -1.2577
  264SOL     OW 1369   8.277   9.488   7.488  0.0832  0.3488  0.3462
  264SOL    HW1 1370   8.322   9.447   7.414 -3.1747 -1.5962 -0.7705
  264SOL    HW2 1371   8.242   9.569   7.454 -0.2829  0.1082  0.1479
  265SOL     OW 1372   8.570   0.906   1.120 -0.3367  0.2693  0.4695
  265SOL    HW1 1373   8.597   0.910   1.212  2.3036 -0.7047 -0.1562
  265SOL    HW2 1374   8.628   0.968   1.075 -1.2769  0.3931 -0.6248
  266SOL     OW 1375   7.899   3.119   6.326  0.4586 -0.5773 -0.9222
  266SOL    HW1 1376   7.810   3.113   6.291  0.3578  1.0172 -1.0147
  266SOL    HW2 1377   7.911   3.039   6.376 -2.7798  1.1149  3.1104
  267SOL     OW 1378   4.091   4.916   6.491  0.1772 -0.8123  0.0135
  267SOL    HW1 1379   4.181   4.947   6.506 -0.4789  0.9080  0.7767
  267SOL    HW2 1380   4.096   4.861   6.413  1.5437  1.0952 -1.3353
  268SOL     OW 1381   2.468   5.876   9.911 -0.1100 -0.0662 -0.2824
  268SOL    HW1 1382   2.434   5.941   9.850 -0.6519 -1.0367 -1.0410
  268SOL    HW2 1383   2.407   5.877   9.985 -1.3417 -1.1701 -1.2370
  269SOL     OW 1384   9.478   7.486   8.334  0.2846 -0.1045  0.5228
  269SOL    HW1 1385   9.566   7.448   8.334 -0.1859 -1.3075  2.0489
  269SOL    HW2 1386   9.492   7.578   8.357  1.1683 -0.2240  0.4962
  270SOL     OW 1387   2.736   4.025   4.129  0.4262 -0.4226  0.2999
  270SOL    HW1 1388   2.811   4.084   4.131 -1.9420  2.9391 -0.7396
  270SOL    HW2 1389   2.727   4.001   4.037  0.4500 -1.1893  0.4868
  271SOL     OW 1390   5.007   9.658   1.415  0.2412 -0.0838  0.0172
  271SOL    HW1 1391   5.041   9.647   1.504 -0.6323 -1.5200  0.2066
  271SOL    HW2 1392   5.050   9.590   1.364 -1.0567 -0.8470 -0.1028
  272SOL     OW 1393   1.459   2.744   1.323 -0.7775  0.5111 -0.0413
  272SOL    HW1 1394   1.510   2.663   1.313 -0.6274  0.8178 -2.2381
  272SOL    HW2 1395   1.370   2.714   1.340 -0.2904 -0.0497  1.7602
  273SOL     OW 1396   2.871   7.588   4.979 -0.1760  0.2133  0.0490
  273SOL    HW1 1397   2.906   7.608   4.892 -1.7165  0.9731 -0.4364
  273SOL    HW2 1398   2.860   7.673   5.021 -0.2162 -0.0960  0.6906
  274SOL     OW 1399   1.049   6.616   5.528 -0.6943  0.2948  0.5394
  274SOL    HW1 1400   1.058   6.711   5.536 -3.7180  0.5923  1.7351
  274SOL    HW2 1401   1.024   6.602   5.437 -0.5739  0.7007  0.4420
  275SOL     OW 1402   1.741   0.831   1.503  0.0995  0.0616  0.0044
  275SOL    HW1 1403   1.791   0.750   1.513  1.4365  0.9711  1.2003
  275SOL    HW2 1404   1.808   0.899   1.495 -0.9210  1.3369  1.6429
  276SOL     OW 1405   4.223   9.738   5.748  0.0296 -0.5185  0.5548
  276SOL    HW1 1406   4.257   9.677   5.813 -1.2488 -1.5613  0.2904
  276SOL    HW2 1407   4.146   9.778   5.791 -0.0337 -0.2289  0.1740
  277SOL     OW 1408   1.497   5.185   1.348  0.6345  0.1598 -0.0057
  277SOL    HW1 1409   1.557   5.137   1.405  0.5019 -0.3543 -0.2838
  277SOL    HW2 1410   1.538   5.180   1.261  0.1836 -0.2156 -0.2017
  278SOL     OW 1411   4.449   5.807   0.354  0.4212  0.4701  0.4670
  278SOL    HW1 1412   4.383   5.803   0.424  1.0760  1.1574  1.1389
  278SOL    HW2 1413   4.402   5.844   0.280 -0.3619 -0.5376  0.4334
  279SOL     OW 1414   8.528   4.928   0.969  0.2336 -0.2149  0.1305
  279SOL    HW1 1415   8.556   4.837   0.980 -2.6326 -1.0861  0.9754
  279SOL    HW2 1416   8.524   4.941   0.874  0.5870 -0.9756  0.0047
  280SOL     OW 1417   6.833   5.651   3.385  0.7333 -0.1647  0.0236
  280SOL    HW1 1418   6.798   5.739   3.370  1.5795  0.0467 -0.7735
  280SOL    HW2 1419   6.764   5.606   3.435 -0.0303  0.7058 -0.2174
  281SOL     OW 1420   7.211   1.172   9.299  0.0389 -0.1687 -0.2147
  281SOL    HW1 1421   7.122   1.193   9.325  0.5355  0.7421  0.8131
  281SOL    HW2 1422   7.243   1.112   9.368  0.9660  1.3242  0.7073
  282SOL     OW 1423   3.050   7.783   8.439 -0.0439  0.1063  0.1211
  282SOL    HW1 1424   3.094   7.717   8.385 -0.6899  1.2148 -1.8861
  282SOL    HW2 1425   2.964   7.744   8.457 -0.0275 -0.0598 -0.1357
  283SOL     OW 1426   0.504   8.259   8.124 -0.7449  0.3747 -0.4551
  283SOL    HW1 1427   0.534   8.169   8.123 -1.9681 -0.0784  0.6353
  283SOL    HW2 1428   0.509   8.288   8.033 -0.4101 -0.8117 -0.8208
  284SOL     OW 1429   3.221   7.895   3.747  1.0824  0.5362 -0.5368
  284SOL    HW1 1430   3.287   7.872   3.682  0.1918 -0.4733 -1.1324
  284SOL    HW2 1431   3.230   7.989   3.760  0.7343  0.9387 -2.7811
  285SOL     OW 1432   0.738   3.976   8.112  0.5550  0.3518 -0.8965
  285SOL    HW1 1433   0.826   3.938   8.102 -0.4671 -1.7750 -2.4735
  285SOL    HW2 1434   0.754   4.061   8.155  3.0790 -1.3269  1.9348
  286SOL     OW 1435   6.054   5.326   0.386 -0.2163 -0.1490  0.3140
  286SOL    HW1 1436   6.142   5.317   0.424  0.9624  1.4429 -1.7639
  286SOL    HW2 1437   6.060   5.278   0.303 -1.4687 -0.4036  0.3619
  287SOL     OW 1438   7.070   3.532   0.003 -0.7919 -0.6815 -0.4591
  287SOL    HW1 1439   7.101   3.603  -0.052  1.4609 -1.5254 -0.3798
  287SOL    HW2 1440   7.062   3.571   0.090  0.7545 -0.5537 -0.3443
  288SOL     OW 1441   9.517   6.102   4.830 -0.3698 -0.6990  0.0840
  288SOL    HW1 1442   9.536   6.178   4.884 -1.7108 -2.6445  3.6814
  288SOL    HW2 1443   9.602   6.076   4.794  0.2482  1.8310 -0.4679
  289SOL     OW 1444   4.113   7.873   9.484 -0.4290 -0.3826  0.0929
  289SOL    HW1 1445   4.173   7.938   9.520 -1.6471  1.1604 -0.5219
  289SOL    HW2 1446   4.152   7.848   9.401 -0.0963 -0.2054  0.1902
  290SOL     OW 1447   6.763   3.844   0.650  0.3769 -0.0087  0.0140
  290SOL    HW1 1448   6.728   3.900   0.719 -1.8911  0.1980 -1.2116
  290SOL    HW2 1449   6.822   3.901   0.600  1.6910 -0.0462  1.4627
  291SOL     OW 1450   5.526   3.741   9.630 -0.2583  0.0733 -0.4884
  291SOL    HW1 1451   5.592   3.758   9.697 -0.4440  0.6380 -0.4393
  291SOL    HW2 1452   5.484   3.826   9.616 -1.9408 -0.5415  0.5152
  292SOL     OW 1453   2.521   5.386   1.458 -0.6801  0.0093  0.3310
  292SOL    HW1 1454   2.514   5.344   1.544 -2.2749 -1.0205 -0.2621
  292SOL    HW2 1455   2.491   5.319   1.396  1.0173  0.5134 -1.1157
  293SOL     OW 1456   1.850   3.676   7.773  0.1030  0.7243 -0.1839
  293SOL    HW1 1457   1.775   3.679   7.833  0.7437  1.1909  0.6084
  293SOL    HW2 1458   1.820   3.722   7.695 -0.1474  1.6871  0.4668
  294SOL     OW 1459   4.502   3.303   8.637  0.1710  0.4456  0.0738
  294SOL    HW1 1460   4.529   3.389   8.606  0.4929 -0.0370 -1.0220
  294SOL    HW2 1461   4.548   3.241   8.581 -1.8428 -0.4179 -0.7607
  295SOL     OW 1462   0.947   8.353   1.808 -0.1745 -0.0091  0.4212
  295SOL    HW1 1463   0.956   8.391   1.895  0.9490 -0.8676  0.6921
  295SOL    HW2 1464   1.029   8.372   1.764 -0.4523 -0.2188 -0.2049
  296SOL     OW 1465   8.216   6.024   5.967  0.6426  0.1252 -0.1405
  296SOL    HW1 1466   8.289   5.970   5.937 -0.5443 -0.3104 -2.4980
  296SOL    HW2 1467   8.149   5.960   5.991  1.1572  0.5035  2.5541
  297SOL     OW 1468   1.287   3.864   6.041  0.2444  0.0667 -0.3071
  297SOL    HW1 1469   1.196   3.880   6.014 -0.0507 -0.4103  0.3848
  297SOL    HW2 1470   1.324   3.811   5.971 -0.9116 -2.3329  0.7708
  298SOL     OW 1471   6.259   0.981   3.988 -0.2201 -0.1178  0.5370
  298SOL    HW1 1472   6.274   0.925   4.065 -0.4585  1.5619  1.8701
  298SOL    HW2 1473   6.335   1.039   3.985 -0.9777  0.9012  0.5012
  299SOL     OW 1474   5.879   9.318   1.556 -0.0546 -0.1829 -0.0322
  299SOL    HW1 1475   5.791   9.355   1.553 -0.4313 -0.8337  1.6381
  299SOL    HW2 1476   5.865   9.223   1.558  0.7469 -0.3340 -0.9890
  300SOL     OW 1477   5.562   8.988   6.736 -0.6828  0.0313  0.4646
  300SOL    HW1 1478   5.519   9.053   6.681  0.5841  0.1366 -0.4394
  300SOL    HW2 1479   5.617   9.038   6.795 -1.5848 -0.1172  1.4663
  301SOL     OW 1480   0.803   1.499   7.572 -0.6070 -0.1149 -0.1880
  301SOL    HW1 1481   0.758   1.484   7.488  0.4835 -0.3692 -0.7540
  301SOL    HW2 1482   0.805   1.412   7.613  3.9890 -1.5107 -2.5955
  302SOL     OW 1483   1.057   9.563   0.724  0.2831 -0.1903  0.6293
  302SOL    HW1 1484   1.149   9.555   0.747  0.1556  0.1881  1.2647
  302SOL    HW2 1485   1.016   9.487   0.766  0.5848 -1.4729 -1.2329
  303SOL     OW 1486   1.269   1.259   5.900 -0.3877  0.0864  0.1880
  303SOL    HW1 1487   1.348   1.261   5.847  0.0138 -1.8915  0.6485
  303SOL    HW2 1488   1.216   1.189   5.862 -0.5124 -0.7175  1.7655
  304SOL     OW 1489   9.471   5.582   6.293 -0.1596  0.0487 -0.4844
  304SOL    HW1 1490   9.435   5.497   6.268  0.6434 -0.1947 -0.8381
  304SOL    HW2 1491   9.483   5.576   6.388 -0.6303 -0.0254 -0.4277
  305SOL     OW 1492   7.634   5.518   7.491  0.1355 -0.4423 -0.1334
  305SOL    HW1 1493   7.693   5.498   7.564 -1.2623 -0.5438  1.0123
  305SOL    HW2 1494   7.631   5.437   7.441  1.1999 -0.3372 -0.4050
  306SOL     OW 1495   1.988   1.635   1.515 -0.0829 -0.2304 -0.1722
  306SOL    HW1 1496   2.080   1.611   1.500 -0.1915 -0.0116 -1.2676
  306SOL    HW2 1497   1.938   1.569   1.468 -0.4627  0.1431 -0.3010
  307SOL     OW 1498   1.692   6.907   3.643  0.3267 -0.0385  0.5429
  307SOL    HW1 1499   1.738   6.889   3.561  1.7384  0.2220  1.2425
  307SOL    HW2 1500   1.628   6.837   3.651  0.0640  0.0282 -0.8548
  308SOL     OW 1501   2.642   1.728   5.037  0.2426  0.3010 -0.1456
  308SOL    HW1 1502   2.710   1.735   4.970  0.7365 -0.4596  0.2591
  308SOL    HW2 1503   2.564   1.767   4.997  1.2725  2.5635 -0.0755
  309SOL     OW 1504   4.996   1.298   9.041 -0.1622 -0.6052  0.2585
  309SOL    HW1 1505   5.060   1.307   8.971 -0.0677 -2.0546  0.1378
  309SOL    HW2 1506   4.972   1.206   9.041 -1.3017 -0.3384  1.1418
  310SOL     OW 1507   2.467   6.405   9.121 -0.2791  0.1213 -0.0896
  310SOL    HW1 1508   2.387   6.401   9.069 -0.4815  1.9997  0.0041
  310SOL    HW2 1509   2.528   6.455   9.066  0.1034  0.5491  0.7123
  311SOL     OW 1510   3.364   0.847   6.543  0.2028 -0.7509 -0.2332
  311SOL    HW1 1511   3.459   0.863   6.550  0.6949 -3.3353  0.0827
  311SOL    HW2 1512   3.338   0.825   6.632 -1.0607  1.3113 -0.0285
  312SOL     OW 1513   3.006   6.556   4.564 -0.8144  0.2006  0.0662
  312SOL    HW1 1514   3.007   6.553   4.469 -0.3335  1.0442  0.0350
  312SOL    HW2 1515   3.080   6.612   4.587 -1.2919  0.5038  0.9167
  313SOL     OW 1516   9.727   1.610   5.910 -0.2664  0.1495 -0.3132
  313SOL    HW1 1517   9.747   1.517   5.923 -0.4318  0.3031  1.2672
  313SOL    HW2 1518   9.632   1.613   5.907 -0.3698  0.4514  1.6949
  314SOL     OW 1519   3.024   5.481   9.948  0.3845 -0.1492 -0.3911
  314SOL    HW1 1520   3.106   5.525   9.968 -0.2492  1.7470 -1.6690
  314SOL    HW2 1521   2.993   5.523   9.867 -2.5876  0.3761  0.8655
  315SOL     OW 1522   8.597   3.137   5.563  0.2091  0.1304  0.2853
  315SOL    HW1 1523   8.648   3.066   5.601 -0.2788 -0.6937 -0.5616
  315SOL    HW2 1524   8.541   3.094   5.498 -0.1342  1.2806 -0.1984
  316SOL     OW 1525   3.510   5.128   5.633 -0.1967  0.6320 -0.4110
  316SOL    HW1 1526   3.505   5.035   5.609 -0.4328  1.1945 -2.7186
  316SOL    HW2 1527   3.604   5.147   5.639 -0.1177  0.6063 -1.4996
  317SOL     OW 1528   7.151  10.001   9.024 -0.2925  0.0542 -0.7704
  317SOL    HW1 1529   7.161   9.957   8.939 -1.0382 -0.1929 -0.7336
  317SOL    HW2 1530   7.106   9.937   9.079 -1.2955  0.8107 -0.6827
  318SOL     OW 1531   3.516   4.732   6.393  0.1184 -0.1838  0.0874
  318SOL    HW1 1532   3.481   4.652   6.352 -1.7335  0.5635  0.1315
  318SOL    HW2 1533   3.539   4.788   6.319 -0.1406 -0.1197  0.0532
  319SOL     OW 1534   8.456   7.455   0.235  0.2931 -0.5849 -0.2216
  319SOL    HW1 1535   8.479   7.425   0.324  0.2220 -0.9624 -0.3305
  319SOL    HW2 1536   8.539   7.450   0.187  0.5513  0.5377  0.0696
  320SOL     OW 1537   5.610   3.896   5.782 -0.2122  0.2785 -0.0763
  320SOL    HW1 1538   5.549   3.836   5.825 -1.0212  0.6431 -0.6739
  320SOL    HW2 1539   5.590   3.888   5.688  0.4550  0.6261 -0.2597
  321SOL     OW 1540   3.381   9.585   7.846  0.3361 -0.3157 -0.1311
  321SOL    HW1 1541   3.457   9.526   7.848  0.5557 -0.0680 -0.9432
  321SOL    HW2 1542   3.416   9.670   7.873 -0.1124 -0.6750  1.6899
  322SOL     OW 1543   6.099   5.856   3.275  0.0884  0.0552 -0.6817
  322SOL    HW1 1544   6.143   5.935   3.308  2.9625 -1.7014  0.0649
  322SOL    HW2 1545   6.025   5.843   3.334  2.8295 -0.8128  2.8839
  323SOL     OW 1546   5.028   5.411   7.231  0.1667  0.0814  0.4161
  323SOL    HW1 1547   4.958   5.473   7.209 -0.1816 -0.6253 -0.5386
  323SOL    HW2 1548   5.053   5.373   7.147 -0.5232 -2.0187  1.1130
  324SOL     OW 1549   6.787   7.273   3.520 -0.7127  0.1254 -0.1760
  324SOL    HW1 1550   6.825   7.361   3.512 -1.5585  0.4399 -0.9147
  324SOL    HW2 1551   6.766   7.265   3.613  2.4368 -0.6428  0.5953
  325SOL     OW 1552   2.620   7.927   0.046  0.1369  0.1372  0.5369
  325SOL    HW1 1553   2.693   7.909  -0.013  0.3457 -0.1476  0.8798
  325SOL    HW2 1554   2.578   8.004   0.008  1.3509  1.0670  1.0137
  326SOL     OW 1555   3.923   3.928   8.494 -0.1168  0.0526  0.0800
  326SOL    HW1 1556   3.937   3.983   8.571  0.6368  0.5905 -0.4346
  326SOL    HW2 1557   4.009   3.891   8.474 -0.4954 -0.8453  0.0539
  327SOL     OW 1558   6.688   7.796   9.615 -0.4420  0.1058 -0.3334
  327SOL    HW1 1559   6.776   7.784   9.651 -0.8250  1.5742  1.1831
  327SOL    HW2 1560   6.684   7.734   9.541  1.7823 -0.1082 -0.3377
  328SOL     OW 1561   8.368   0.285   4.666 -0.0721  0.2955  0.0944
  328SOL    HW1 1562   8.406   0.373   4.673 -1.7041  1.0842 -0.5130
  328SOL    HW2 1563   8.378   0.248   4.753  0.0522  1.3374  0.5442
  329SOL     OW 1564   2.388   6.417   9.707  0.3957 -0.6191  0.5534
  329SOL    HW1 1565   2.429   6.504   9.713 -1.3260  0.5172 -2.1442
  329SOL    HW2 1566   2.366   6.395   9.797  1.2158  1.5893  1.3736
  330SOL     OW 1567   4.685   6.122   2.738 -0.0097 -0.3596 -0.2252
  330SOL    HW1 1568   4.655   6.127   2.647  0.7067 -2.0382 -0.6033
  330SOL    HW2 1569   4.634   6.050   2.775 -2.2305  1.9599  1.5545
  331SOL     OW 1570   7.428   0.756   9.644 -0.4102  0.4215  0.3443
  331SOL    HW1 1571   7.359   0.808   9.602  0.1967  0.7789 -0.2208
  331SOL    HW2 1572   7.401   0.665   9.628 -1.3682  0.5436  1.1590
  332SOL     OW 1573   4.027   2.221   3.896  0.5684 -0.0323  0.1830
  332SOL    HW1 1574   3.945   2.262   3.923 -0.1085 -1.6604  0.6853
  332SOL    HW2 1575   4.083   2.225   3.974  0.0519 -1.1529  0.6242
  333SOL     OW 1576   6.204   0.812   5.338  0.5879 -0.2541  0.5182
  333SOL    HW1 1577   6.203   0.902   5.305  1.9870 -0.1850  0.6427
  333SOL    HW2 1578   6.206   0.821   5.433  0.3198 -0.4313  0.5435
  334SOL     OW 1579   2.369   5.472   2.534 -0.6578  0.1758 -0.2537
  334SOL    HW1 1580   2.298   5.499   2.476 -0.9526 -1.1015 -0.5319
  334SOL    HW2 1581   2.448   5.502   2.490 -0.9976  1.3011 -0.1212
  335SOL     OW 1582   6.658   1.067   1.865 -0.2957  0.1337 -0.3467
  335SOL    HW1 1583   6.592   0.998   1.858 -1.2929  0.9842  0.4034
  335SOL    HW2 1584   6.706   1.047   1.945 -0.2098  0.0077 -0.4284
  336SOL     OW 1585   0.441   7.713   1.958 -0.8036 -0.1421 -0.2403
  336SOL    HW1 1586   0.502   7.646   1.928  2.6325  1.1321  3.0530
  336SOL    HW2 1587   0.391   7.671   2.028  0.1990  0.2340  0.7218
  337SOL     OW 1588   4.442   6.172   6.959 -0.4862 -0.1307 -0.1897
  337SOL    HW1 1589   4.346   6.166   6.964 -0.6888  0.8312 -2.1683
  337SOL    HW2 1590   4.466   6.228   7.033 -1.3246 -1.0275  0.8226
  338SOL     OW 1591   2.057   9.223   8.588 -0.2262  0.9854 -0.2358
  338SOL    HW1 1592   2.043   9.206   8.495 -0.6733  1.7993 -0.3224
  338SOL    HW2 1593   2.127   9.162   8.613 -0.1121  0.7501 -1.0915
  339SOL     OW 1594   4.433   8.602   4.995  0.2256  0.0318 -0.2131
  339SOL    HW1 1595   4.368   8.673   4.996 -0.5533 -0.6620  0.9447
  339SOL    HW2 1596   4.481   8.615   4.914 -1.7042  0.2673 -1.3750
  340SOL     OW 1597   9.423   1.621   0.876 -0.2656 -0.1826 -0.1333
  340SOL    HW1 1598   9.491   1.687   0.863 -2.0237  1.4793 -1.5687
  340SOL    HW2 1599   9.421   1.572   0.794  0.2860 -1.3409  0.5214
  341SOL     OW 1600   7.700   3.848   9.831 -0.0507 -0.2731  0.1612
  341SOL    HW1 1601   7.661   3.814   9.750  0.3456  0.0860 -0.1867
  341SOL    HW2 1602   7.794   3.847   9.815 -0.0237  3.7314 -1.0890
  342SOL     OW 1603   9.622   9.927   9.293  0.4420  0.5296  0.0124
  342SOL    HW1 1604   9.705   9.904   9.335  0.7515 -1.5360 -1.5595
  342SOL    HW2 1605   9.648   9.979   9.216  0.1182  1.4751  0.5284
  343SOL     OW 1606   1.340   3.555   9.528 -0.3026  0.0059 -0.2706
  343SOL    HW1 1607   1.307   3.471   9.559 -1.3300  0.7541  0.7463
  343SOL    HW2 1608   1.331   3.613   9.603  1.1534  0.8479 -0.6977
  344SOL     OW 1609   8.139   7.393   4.845 -0.0463  0.5717  0.0057
  344SOL    HW1 1610   8.162   7.433   4.762 -1.1154 -0.3229 -0.7534
  344SOL    HW2 1611   8.044   7.388   4.844  0.0147 -1.7029  0.1508
  345SOL     OW 1612   2.402   9.236   1.916  0.7572 -0.2289 -0.3657
  345SOL    HW1 1613   2.333   9.303   1.923  1.9876  1.0472  0.0844
  345SOL    HW2 1614   2.409   9.219   1.822 -0.6409 -0.9121 -0.3722
  346SOL     OW 1615   6.144   5.047   4.720  0.8337 -0.5382 -0.1546
  346SOL    HW1 1616   6.171   4.967   4.766 -0.4847  0.7701  3.2369
  346SOL    HW2 1617   6.049   5.037   4.709  0.4519  0.9275  1.3511
  347SOL     OW 1618   0.707   4.261   7.904  0.2166 -0.6322  0.4692
  347SOL    HW1 1619   0.660   4.241   7.984 -0.5931  1.6932  0.6355
  347SOL    HW2 1620   0.800   4.254   7.928 -0.0220 -0.5680  1.4395
  348SOL     OW 1621   0.388   7.197   9.585 -0.1956 -0.1186 -0.2419
  348SOL    HW1 1622   0.306   7.154   9.610 -0.1171 -1.9111 -2.7041
  348SOL    HW2 1623   0.360   7.279   9.544 -0.6757 -0.2226 -0.1253
  349SOL     OW 1624   8.386   9.372   2.202 -0.4308 -0.3336 -0.3777
  349SOL    HW1 1625   8.343   9.422   2.272 -1.3184  1.7901 -2.3079
  349SOL    HW2 1626   8.473   9.411   2.195 -0.2108 -0.7939 -0.2036
  350SOL     OW 1627   7.861   4.170   5.273 -0.2297 -0.0547 -0.4940
  350SOL    HW1 1628   7.953   4.161   5.248  0.4611  0.9332  1.5278
  350SOL    HW2 1629   7.813   4.119   5.207  1.6052  0.7320 -2.5689
  351SOL     OW 1630   9.187   6.178   9.717 -0.0949  0.2610  0.0838
  351SOL    HW1 1631   9.176   6.161   9.624 -1.6748 -1.3372  0.4970
  351SOL    HW2 1632   9.225   6.097   9.752 -0.3602  0.4964  0.9467
  352SOL     OW 1633   8.604   0.250   9.965 -0.1268 -0.3188 -0.1388
  352SOL    HW1 1634   8.656   0.170   9.956  0.8854  0.3880 -0.7250
  352SOL    HW2 1635   8.656   0.306  10.022 -0.6708  0.0616 -0.0127
  353SOL     OW 1636   0.959   9.212   4.240 -0.5630 -0.0933  0.2346
  353SOL    HW1 1637   0.938   9.123   4.212  0.3486 -0.5673  0.9720
  353SOL    HW2 1638   1.013   9.248   4.169 -0.0795 -0.5037  0.3904
  354SOL     OW 1639   5.296   1.557   8.029  0.3299  0.4944  0.3808
  354SOL    HW1 1640   5.314   1.649   8.050  0.8340 -0.0065  2.4103
  354SOL    HW2 1641   5.206   1.556   7.998  0.9230  1.9084 -1.5464
  355SOL     OW 1642   9.310   4.444   3.314 -0.4388  0.2284  0.2701
  355SOL    HW1 1643   9.367   4.506   3.360  1.7132 -0.9657 -0.6208
  355SOL    HW2 1644   9.327   4.360   3.357 -0.5694 -0.3701 -0.8079
  356SOL     OW 1645   8.751   0.935   7.815 -0.0842  0.0748  0.9099
  356SOL    HW1 1646   8.746   0.994   7.740 -2.7846 -0.7622  0.3062
  356SOL    HW2 1647   8.829   0.882   7.799 -0.2612  0.3229 -1.0181
  357SOL     OW 1648   7.763   1.436   7.176  0.6227  0.3262 -0.6482
  357SOL    HW1 1649   7.847   1.477   7.196  0.4178  1.6895 -2.3822
  357SOL    HW2 1650   7.786   1.353   7.135  1.2466  1.6606 -3.1644
  358SOL     OW 1651   7.649   5.481   9.830  0.3525 -0.7837  0.3049
  358SOL    HW1 1652   7.641   5.502   9.923  1.2420 -0.3794  0.2971
  358SOL    HW2 1653   7.615   5.558   9.784 -0.8685 -1.3135  0.2836
  359SOL     OW 1654   4.123   4.997   8.855 -0.1894 -0.0458 -0.0962
  359SOL    HW1 1655   4.150   4.962   8.770  0.2350  0.0270  0.0065
  359SOL    HW2 1656   4.158   4.936   8.919 -1.5083 -0.7499 -0.0066
  360SOL     OW 1657   2.337   1.711   5.310  0.1843 -0.0620 -0.0114
  360SOL    HW1 1658   2.391   1.763   5.252  2.5237 -2.0236  0.2353
  360SOL    HW2 1659   2.269   1.674   5.253  1.5561 -0.7684 -1.2662
  361SOL     OW 1660   7.225   0.543   2.276 -0.0932  0.3331  0.8325
  361SOL    HW1 1661   7.268   0.458   2.285  0.8320  0.9352  2.5391
  361SOL    HW2 1662   7.141   0.523   2.236  0.9164 -1.1304 -0.7099
  362SOL     OW 1663   9.620   4.307   0.444 -0.1508  0.0585  0.0192
  362SOL    HW1 1664   9.529   4.297   0.471 -0.4475  2.8565  0.3498
  362SOL    HW2 1665   9.652   4.381   0.495  2.5766 -1.2562  0.4261
  363SOL     OW 1666   5.746   2.329   2.553  0.1511  0.0320 -0.4030
  363SOL    HW1 1667   5.757   2.250   2.501  2.8750 -0.7416  1.1370
  363SOL    HW2 1668   5.747   2.298   2.644  0.1221  1.7286  0.2105
  364SOL     OW 1669   8.700   6.617   3.001 -0.5596 -0.2951 -0.2151
  364SOL    HW1 1670   8.794   6.599   3.011 -0.7692 -1.2749  0.0585
  364SOL    HW2 1671   8.676   6.664   3.081 -0.1446  0.6914 -0.6481
  365SOL     OW 1672   7.659   9.465   9.603 -0.4304  0.5436 -0.1026
  365SOL    HW1 1673   7.664   9.443   9.510 -1.0022  1.2146 -0.2955
  365SOL    HW2 1674   7.640   9.381   9.646 -2.4399  0.5813 -0.8200
  366SOL     OW 1675   0.819   9.634   1.754  0.0231  0.2847 -0.5304
  366SOL    HW1 1676   0.829   9.557   1.697  0.7107  0.4397 -0.6323
  366SOL    HW2 1677   0.725   9.653   1.752 -0.1194 -0.3878 -0.7205
  367SOL     OW 1678   2.281   3.637   8.796  0.4785 -1.0428  0.1932
  367SOL    HW1 1679   2.213   3.603   8.854  1.9166  0.5478  3.0357
  367SOL    HW2 1680   2.241   3.715   8.757 -0.9127 -2.7679 -2.0455
  368SOL     OW 1681   1.019   9.654   1.921 -0.4371 -0.1987 -0.5992
  368SOL    HW1 1682   0.940   9.640   1.869 -0.1955  0.6594 -1.2280
  368SOL    HW2 1683   1.089   9.617   1.868 -0.4096 -1.0315 -0.0044
  369SOL     OW 1684   1.814   9.958   7.073 -0.0604 -0.0870  0.3920
  369SOL    HW1 1685   1.768   9.964   6.989  0.1405 -0.2949  0.2625
  369SOL    HW2 1686   1.896  10.006   7.058 -0.2167  0.2578  0.6114
  370SOL     OW 1687   2.731   8.823   4.386 -0.1550 -0.7077  0.1883
  370SOL    HW1 1688   2.816   8.803   4.427  0.3960  0.1001 -0.5406
  370SOL    HW2 1689   2.753   8.877   4.311 -1.3787  0.0783  0.3776
  371SOL     OW 1690   9.817   8.359   2.202  0.1027  0.2305 -0.2538
  371SOL    HW1 1691   9.835   8.420   2.274  1.6618 -1.0488  0.5132
  371SOL    HW2 1692   9.723   8.366   2.187 -0.2090  0.7580  1.7191
  372SOL     OW 1693   4.272   9.543   6.312  0.0437  0.2775 -0.2000
  372SOL    HW1 1694   4.282   9.515   6.403 -0.6817 -0.7440 -0.4174
  372SOL    HW2 1695   4.180   9.525   6.292  0.4232 -0.3659 -1.4223
  373SOL     OW 1696   3.161   7.208   8.641  0.3281  0.1877 -0.3112
  373SOL    HW1 1697   3.162   7.270   8.714  0.7030 -1.7989  1.5088
  373SOL    HW2 1698   3.068   7.194   8.623  0.2005  0.1861  0.3029
  374SOL     OW 1699   4.113   6.503   4.073 -0.6634  0.1378  0.0653
  374SOL    HW1 1700   4.065   6.438   4.021 -1.1738 -0.3202  1.0823
  374SOL    HW2 1701   4.094   6.480   4.163  1.2121  0.1603  0.5011
  375SOL     OW 1702   1.701   2.573   6.879 -0.0715 -0.5509  1.0308
  375SOL    HW1 1703   1.770   2.638   6.891 -0.7555  0.6592 -1.0808
  375SOL    HW2 1704   1.625   2.624   6.852 -0.6435 -2.2042 -0.6967
  376SOL     OW 1705   7.640   4.446   3.811  0.0762  0.5379  0.4452
  376SOL    HW1 1706   7.597   4.529   3.830  1.0184  1.4591 -1.2358
  376SOL    HW2 1707   7.704   4.467   3.743  1.4328 -1.2662  1.0803
  377SOL     OW 1708   5.452   1.982   1.691 -0.6693  0.1198  0.4629
  377SOL    HW1 1709   5.482   1.951   1.606 -0.1192  2.1669 -0.1499
  377SOL    HW2 1710   5.375   1.929   1.710 -0.4425 -0.7979 -1.0168
  378SOL     OW 1711   5.120   1.195   8.129  0.3158  0.0482  0.6385
  378SOL    HW1 1712   5.059   1.254   8.084 -0.4318 -1.2306 -0.0674
  378SOL    HW2 1713   5.189   1.253   8.161  0.7451  1.0612 -1.9007
  379SOL     OW 1714   2.878   8.098   1.420 -0.3442 -0.3786 -0.3436
  379SOL    HW1 1715   2.813   8.157   1.458  1.2651  1.3103 -0.0554
  379SOL    HW2 1716   2.828   8.020   1.395 -2.5519  1.0240 -0.5991
  380SOL     OW 1717   1.367   4.308   0.364 -0.4718  0.6057 -0.1397
  380SOL    HW1 1718   1.271   4.312   0.363 -0.4853  1.0820  1.2666
  380SOL    HW2 1719   1.393   4.372   0.429  0.9265  1.9416 -1.9316
  381SOL     OW 1720   2.492   1.126   8.803 -0.4257 -0.1484 -0.1749
  381SOL    HW1 1721   2.535   1.041   8.820  1.4759  0.5357 -1.1911
  381SOL    HW2 1722   2.453   1.115   8.716  1.2116  0.4746 -1.0292
  382SOL     OW 1723   4.159   6.822   0.324 -0.1854 -0.1813 -0.2211
  382SOL    HW1 1724   4.137   6.914   0.338 -1.1515 -0.2980 -0.8599
  382SOL    HW2 1725   4.222   6.801   0.393 -1.2055  0.5010  0.9538
  383SOL     OW 1726   9.408   6.257   4.210  0.1786  0.0020  0.6108
  383SOL    HW1 1727   9.407   6.162   4.220 -0.9890 -0.0734 -0.0027
  383SOL    HW2 1728   9.329   6.287   4.254 -1.4913  0.2852 -2.3107
  384SOL     OW 1729   7.002   0.135   8.278  0.8033  0.4416  0.2270
  384SOL    HW1 1730   7.063   0.102   8.343 -0.4518 -0.8593  0.8015
  384SOL    HW2 1731   6.959   0.210   8.321 -1.9951 -2.0300  2.1337
  385SOL     OW 1732   9.143   1.258   8.625  0.1639 -0.1328 -0.4140
  385SOL    HW1 1733   9.187   1.343   8.613  0.2149 -0.2677 -1.2470
  385SOL    HW2 1734   9.056   1.270   8.588 -0.2277 -0.1171  0.4889
  386SOL     OW 1735   3.553   5.998   4.692 -0.1953 -0.4115 -0.7633
  386SOL    HW1 1736   3.563   5.945   4.613 -0.3084 -0.2305 -0.9003
  386SOL    HW2 1737   3.477   6.053   4.674  0.4253  0.4004 -0.9742
  387SOL     OW 1738   4.414   9.508   4.822 -0.6474  0.6911 -0.3568
  387SOL    HW1 1739   4.355   9.469   4.887  2.0934  0.4629  2.2467
  387SOL    HW2 1740   4.428   9.598   4.852  1.2492  0.3610 -0.0676
  388SOL     OW 1741   5.625   4.428   9.823  0.0906  0.3314 -0.0162
  388SOL    HW1 1742   5.600   4.512   9.785 -1.1452  0.2540  0.5941
  388SOL    HW2 1743   5.671   4.451   9.904  0.6776  0.4285 -0.3669
  389SOL     OW 1744   5.367   3.061   5.441  0.2145  0.4352  0.1708
  389SOL    HW1 1745   5.391   3.035   5.352  0.6268 -0.5778  0.5612
  389SOL    HW2 1746   5.278   3.094   5.433 -0.7805 -2.0815 -0.2356
  390SOL     OW 1747   0.427   8.425   9.309 -0.3967 -0.0005  0.3693
  390SOL    HW1 1748   0.419   8.354   9.373 -1.6400 -0.5162 -0.3452
  390SOL    HW2 1749   0.519   8.452   9.315 -0.6505  0.5870  3.0295
  391SOL     OW 1750   1.406   7.968   2.535  0.3494  0.1231  1.1904
  391SOL    HW1 1751   1.430   7.889   2.486  0.8889  1.1914 -0.3616
  391SOL    HW2 1752   1.489   7.998   2.574  0.7441  1.3777 -0.4952
  392SOL     OW 1753   2.994   3.483   5.375  0.7078 -0.3469  0.5869
  392SOL    HW1 1754   2.907   3.523   5.379  1.1446  0.5397  1.9211
  392SOL    HW2 1755   2.978   3.396   5.337 -1.0214 -0.8644  2.2868
  393SOL     OW 1756   5.331   3.242   9.030 -0.2453  0.1951  0.1048
  393SOL    HW1 1757   5.350   3.157   9.069  0.8878 -0.1310 -1.0991
  393SOL    HW2 1758   5.371   3.305   9.090  0.8002 -0.2527 -0.0992
  394SOL     OW 1759   2.328   1.273   1.583 -0.2014 -0.0512 -0.3131
  394SOL    HW1 1760   2.246   1.284   1.535 -0.0915 -0.0481 -0.4999
  394SOL    HW2 1761   2.323   1.338   1.653 -1.6025 -1.8913  1.4018
  395SOL     OW 1762   3.654   4.023   9.177  0.3090 -0.0920  0.0595
  395SOL    HW1 1763   3.648   3.974   9.094  2.0643  2.0315 -1.4580
  395SOL    HW2 1764   3.745   4.055   9.178  0.2227  0.2237  2.6887
  396SOL     OW 1765   0.694   8.576   3.388  0.2638 -0.2242  0.1135
  396SOL    HW1 1766   0.636   8.636   3.342 -1.6469 -1.5756  0.6654
  396SOL    HW2 1767   0.682   8.595   3.481  1.3893  0.0594  0.2227
  397SOL     OW 1768   7.060   3.955   5.351 -0.1500  0.8576 -0.3841
  397SOL    HW1 1769   7.008   4.028   5.386 -1.3311  0.4246 -1.1511
  397SOL    HW2 1770   7.005   3.878   5.365  1.7314 -0.2003  1.8705
  398SOL     OW 1771   3.343   6.353   9.142 -0.6395 -0.2126 -0.2541
  398SOL    HW1 1772   3.401   6.356   9.065 -0.7021  1.1525 -0.2752
  398SOL    HW2 1773   3.349   6.441   9.180 -1.0261 -0.7084  1.0067
  399SOL     OW 1774   6.452   9.599   8.590 -0.2778  0.1281  0.3044
  399SOL    HW1 1775   6.538   9.637   8.608 -0.7583  0.9383  0.9662
  399SOL    HW2 1776   6.391   9.672   8.601 -0.8994  0.0525 -2.0297
  400SOL     OW 1777   8.044   0.348   6.252 -0.0273 -0.5798 -0.3146
  400SOL    HW1 1778   8.065   0.255   6.239 -0.0769 -0.7465  0.7431
  400SOL    HW2 1779   7.982   0.368   6.182 -1.3005 -1.7953  0.3994
  401SOL     OW 1780   9.624   9.185   7.815 -0.3883 -0.2396  0.0443
  401SOL    HW1 1781   9.690   9.171   7.882  0.6533 -0.8614 -1.0741
  401SOL    HW2 1782   9.550   9.130   7.842 -0.3208  0.1538  1.0883
  402SOL     OW 1783   0.517   1.191   1.309  0.0461 -0.2352  0.0580
  402SOL    HW1 1784   0.527   1.201   1.404 -2.5090 -0.6193  0.4663
  402SOL    HW2 1785   0.589   1.240   1.271  1.2478 -0.2213  2.2011
  403SOL     OW 1786   4.668   9.586   8.467  0.6736 -0.4211  0.2528
  403SOL    HW1 1787   4.675   9.681   8.475  1.0645 -0.1641 -2.1921
  403SOL    HW2 1788   4.574   9.568   8.472  0.5589  0.1549  0.2242
  404SOL     OW 1789   1.071   6.040   9.804  0.5361 -0.2418 -0.5634
  404SOL    HW1 1790   1.143   6.001   9.756  0.1303  0.2715 -1.6415
  404SOL    HW2 1791   0.993   5.992   9.774  0.2683  0.1425 -0.4975
  405SOL     OW 1792   3.823   3.836   4.491  0.4007 -0.1903 -0.0330
  405SOL    HW1 1793   3.781   3.879   4.416 -0.1927 -0.6744  0.0127
  405SOL    HW2 1794   3.819   3.743   4.470  2.0881 -0.2215 -0.3478
  406SOL     OW 1795   8.355   5.396   7.852  0.1898 -0.3754 -0.6541
  406SOL    HW1 1796   8.398   5.324   7.807  1.0307 -0.4859  0.3015
  406SOL    HW2 1797   8.264   5.367   7.860  0.0246 -0.3631 -2.2190
  407SOL     OW 1798   2.622   5.564   3.149  0.2948 -0.3923 -0.0057
  407SOL    HW1 1799   2.714   5.584   3.167  0.2897 -0.3157 -0.0657
  407SOL    HW2 1800   2.600   5.618   3.073 -0.7180  2.0287  1.8868
  408SOL     OW 1801   8.913   8.130   7.019 -0.0428  0.1005 -0.2595
  408SOL    HW1 1802   8.984   8.077   7.055  1.0873  2.2946  0.9433
  408SOL    HW2 1803   8.953   8.215   7.004 -2.3493  1.3088  0.1333
  409SOL     OW 1804   5.608   8.937   4.031  0.3907  0.2968 -0.2374
  409SOL    HW1 1805   5.558   9.006   3.987  0.5504  1.1285  0.8307
  409SOL    HW2 1806   5.697   8.971   4.033  0.6176 -0.2939 -0.3810
  410SOL     OW 1807   2.386   2.777   4.908  0.0315  0.2542 -0.0206
  410SOL    HW1 1808   2.423   2.689   4.900  0.9545  0.6425 -0.1409
  410SOL    HW2 1809   2.390   2.796   5.001 -1.0992 -0.2049  0.1440
  411SOL     OW 1810   8.549   6.215   1.451 -0.1586 -0.3661  0.1638
  411SOL    HW1 1811   8.489   6.141   1.440  0.9487 -0.9666 -2.3538
  411SOL    HW2 1812   8.523   6.278   1.384 -2.5438  2.7599  3.6019
  412SOL     OW 1813   4.671   4.533   1.550  0.1172  0.5902  0.6316
  412SOL    HW1 1814   4.737   4.527   1.619 -1.1643  2.3267  2.1049
  412SOL    HW2 1815   4.606   4.468   1.574  1.4748 -1.5778 -1.1700
  413SOL     OW 1816   0.736   3.708   5.811 -0.0016  0.2226 -0.5222
  413SOL    HW1 1817   0.749   3.710   5.716 -0.8453  0.8180 -0.6385
  413SOL    HW2 1818   0.644   3.683   5.821  0.2876 -0.6315  0.1680
  414SOL     OW 1819   6.899   2.899   3.411  0.0859  0.2486  0.0526
  414SOL    HW1 1820   6.975   2.902   3.468  0.3874 -1.0706 -0.2385
  414SOL    HW2 1821   6.840   2.837   3.453 -1.2490  1.8989  0.7305
  415SOL     OW 1822   7.493   8.713   8.183  0.1894 -0.0827  0.3307
  415SOL    HW1 1823   7.509   8.625   8.218 -2.0755 -0.1531  1.3599
  415SOL    HW2 1824   7.515   8.772   8.256 -0.0618  0.0764  0.2778
  416SOL     OW 1825   8.131   2.177   0.235  0.0177  0.2341 -0.0540
  416SOL    HW1 1826   8.044   2.216   0.237 -0.0049  0.3487 -2.0309
  416SOL    HW2 1827   8.116   2.085   0.213  0.3909  0.2594 -0.4294
  417SOL     OW 1828   8.320   8.270   5.366 -0.0980 -0.1433  0.5015
  417SOL    HW1 1829   8.264   8.331   5.318  0.6739  0.0814 -0.1537
  417SOL    HW2 1830   8.261   8.225   5.426 -0.8814  0.4445  0.1950
  418SOL     OW 1831   5.717   4.427   1.049 -0.3465 -0.2369  0.5615
  418SOL    HW1 1832   5.697   4.418   1.142 -0.4953 -0.0836  0.5456
  418SOL    HW2 1833   5.645   4.480   1.014 -0.8350 -1.1442  0.1530
  419SOL     OW 1834   0.739   9.314   7.775 -0.5308 -0.2205 -0.4458
  419SOL    HW1 1835   0.756   9.220   7.773 -0.9439 -0.3015 -2.1772
  419SOL    HW2 1836   0.681   9.327   7.850  0.7104 -1.0959  0.7141
  420SOL     OW 1837   7.986   7.361   6.313  0.1798 -0.6862  0.7098
  420SOL    HW1 1838   7.960   7.271   6.333  1.2914 -1.6947 -1.9423
  420SOL    HW2 1839   8.048   7.352   6.241  0.9685  2.1863  0.9300
  421SOL     OW 1840   6.673   1.655   1.164 -0.0542  0.3597  0.6103
  421SOL    HW1 1841   6.723   1.735   1.149  0.1433  0.0705 -0.3236
  421SOL    HW2 1842   6.581   1.681   1.153  0.0677  0.2377 -0.7784
  422SOL     OW 1843   4.080   2.181   7.102  0.0340  0.2836  0.0747
  422SOL    HW1 1844   4.093   2.184   7.007  0.5714  1.7051  0.1677
  422SOL    HW2 1845   4.045   2.094   7.118 -1.3609  0.4762 -1.5945
  423SOL     OW 1846   0.857   3.771   4.964 -0.0104 -0.1570 -0.2544
  423SOL    HW1 1847   0.798   3.817   5.025  0.1931  0.1816 -0.3132
  423SOL    HW2 1848   0.941   3.815   4.974  0.0098 -0.0706 -0.8215
  424SOL     OW 1849   4.939   9.489   2.446  0.3399  0.6923 -0.9605
  424SOL    HW1 1850   4.872   9.552   2.420  1.4981  1.3447 -2.5303
  424SOL    HW2 1851   4.900   9.404   2.427 -0.8389  0.9511  0.1811
  425SOL     OW 1852   4.459   3.525   7.896 -0.6119 -0.4345 -0.2623
  425SOL    HW1 1853   4.542   3.505   7.852  0.2114  1.3104  0.4021
  425SOL    HW2 1854   4.416   3.440   7.905  0.8061 -1.3017 -1.2084
  426SOL     OW 1855   6.494   5.303   6.108 -0.3808  0.5087  0.4173
  426SOL    HW1 1856   6.446   5.252   6.174  0.6848 -1.6866 -0.3788
  426SOL    HW2 1857   6.437   5.302   6.031  0.2321 -0.8583 -0.0665
  427SOL     OW 1858   2.649   4.941   2.541  0.3885 -0.4281  0.0212
  427SOL    HW1 1859   2.703   5.008   2.585  0.8031 -0.7963  0.0832
  427SOL    HW2 1860   2.712   4.874   2.514  0.0370 -0.5597 -0.4811
  428SOL     OW 1861   3.100   4.438   0.197  0.2884 -0.0722 -0.1582
  428SOL    HW1 1862   3.163   4.506   0.173  1.5773 -0.7363  1.1811
  428SOL    HW2 1863   3.115   4.367   0.135 -0.0506  0.2799 -0.6466
  429SOL     OW 1864   2.448   5.449   5.615  0.7880 -0.4007  0.2440
  429SOL    HW1 1865   2.436   5.517   5.682 -0.0796  0.6398 -0.9207
  429SOL    HW2 1866   2.446   5.367   5.664 -0.5881  0.2849  1.4314
  430SOL     OW 1867   2.413   9.811   0.762 -0.1468 -0.2503 -0.7195
  430SOL    HW1 1868   2.464   9.805   0.843 -0.2769  1.3111 -0.4928
  430SOL    HW2 1869   2.476   9.843   0.697  0.2676 -2.6026 -1.5851
  431SOL     OW 1870   7.274   1.407   3.664 -0.6999 -0.3776 -0.4764
  431SOL    HW1 1871   7.307   1.356   3.591 -2.8101 -0.0130 -1.7574
  431SOL    HW2 1872   7.235   1.343   3.723  1.4314 -0.7281  0.6842
  432SOL     OW 1873   6.048   1.943   6.347 -0.2700  0.1286 -0.5424
  432SOL    HW1 1874   6.059   1.867   6.405 -1.7842  0.0632 -0.2906
  432SOL    HW2 1875   6.030   1.905   6.261  0.6601  0.2175 -0.7781
  433SOL     OW 1876   4.575   2.180   1.334 -1.0768  1.3487 -0.0248
  433SOL    HW1 1877   4.533   2.094   1.342  0.5463  0.4376 -0.5842
  433SOL    HW2 1878   4.555   2.224   1.416  0.0467 -0.5481  1.3597
  434SOL     OW 1879   4.914   6.351   4.108  0.2387 -0.0974 -0.2744
  434SOL    HW1 1880   4.822   6.356   4.135  0.6482  1.2759  1.0191
  434SOL    HW2 1881   4.939   6.441   4.090  1.4514 -0.4003 -0.2108
  435SOL     OW 1882   9.314   2.920   3.794  0.3859 -0.0880  0.8160
  435SOL    HW1 1883   9.312   2.890   3.885  1.1770 -1.0896  0.5156
  435SOL    HW2 1884   9.402   2.956   3.783  0.9126 -1.5478 -0.0174
  436SOL     OW 1885   6.558   7.939   7.437  0.0558  0.1148 -0.1113
  436SOL    HW1 1886   6.629   7.880   7.460  0.6158  0.5510 -0.6743
  436SOL    HW2 1887   6.559   7.940   7.341 -0.1502  0.7889 -0.1096
  437SOL     OW 1888   7.522   7.655   3.065  0.0075  0.0850 -0.7362
  437SOL    HW1 1889   7.468   7.730   3.091  1.7323  0.6151  1.7527
  437SOL    HW2 1890   7.492   7.583   3.121 -0.5939 -0.6791 -2.0074
  438SOL     OW 1891   1.456   9.639   3.558  0.4004  0.1758 -0.0295
  438SOL    HW1 1892   1.434   9.608   3.470 -0.8818 -0.4158  0.4751
  438SOL    HW2 1893   1.373   9.634   3.606  0.5827  2.4999  0.6309
  439SOL     OW 1894   6.384   0.566   9.288 -0.3499 -0.2763  0.4784
  439SOL    HW1 1895   6.395   0.602   9.376  0.7250  1.4010 -0.3003
  439SOL    HW2 1896   6.353   0.639   9.235 -0.9369 -1.2475 -0.5816
  440SOL     OW 1897   4.958   0.133   7.044  0.1009 -0.3066  0.0111
  440SOL    HW1 1898   4.933   0.216   7.002 -0.6681  0.5345  1.9992
  440SOL    HW2 1899   5.034   0.156   7.098 -1.8050 -0.1249  2.8075
  441SOL     OW 1900   9.456   6.238   7.473 -0.2020 -0.1868  0.1804
  441SOL    HW1 1901   9.518   6.277   7.411 -0.9911  0.8906  0.0344
  441SOL    HW2 1902   9.403   6.312   7.502 -0.4123 -0.8354  1.4798
  442SOL     OW 1903   8.454   5.195   9.356  0.0509 -0.0722 -0.0281
  442SOL    HW1 1904   8.442   5.279   9.401 -2.2858  0.6656 -1.8239
  442SOL    HW2 1905   8.370   5.150   9.366 -0.0191 -0.5578 -2.1952
  443SOL     OW 1906   8.616   5.525   2.086 -1.0327  0.1546  0.3375
  443SOL    HW1 1907   8.674   5.597   2.062 -0.0679 -0.5470  0.5035
  443SOL    HW2 1908   8.673   5.461   2.129 -1.7550 -0.9841 -0.3472
  444SOL     OW 1909   8.020   3.956   2.964  0.0836 -0.2694  0.2299
  444SOL    HW1 1910   7.943   3.900   2.972 -1.5633  1.9293  0.7635
  444SOL    HW2 1911   7.985   4.045   2.965  2.4561  0.7965 -1.8654
  445SOL     OW 1912   0.373   4.460   5.856  0.1745 -0.7528 -0.0190
  445SOL    HW1 1913   0.333   4.503   5.931  2.6413  2.4862 -0.3257
  445SOL    HW2 1914   0.424   4.388   5.893 -0.4515 -0.6274  1.1218
  446SOL     OW 1915   8.174   0.957   4.325  0.0616 -0.1404 -0.1880
  446SOL    HW1 1916   8.192   0.929   4.235  1.2471  1.2146 -0.4069
  446SOL    HW2 1917   8.166   1.052   4.319  2.0826  0.1961  1.4329
  447SOL     OW 1918   2.356   0.384   0.915  0.3527 -0.2370  0.0616
  447SOL    HW1 1919   2.447   0.374   0.887  0.8661  2.8937  0.2598
  447SOL    HW2 1920   2.305   0.370   0.835  1.1650  0.1661 -0.5411
  448SOL     OW 1921   4.034   8.932   0.733 -0.2091  0.0562 -0.0594
  448SOL    HW1 1922   4.115   8.961   0.690  0.5224 -1.3518  0.2810
  448SOL    HW2 1923   3.970   9.000   0.714  1.4461  1.9862  0.9410
  449SOL     OW 1924   5.347   9.067   3.367 -0.0855  0.5801 -0.0348
  449SOL    HW1 1925   5.429   9.055   3.319 -0.9198 -1.9393 -0.9861
  449SOL    HW2 1926   5.311   9.148   3.331  0.7832  0.3824 -1.4425
  450SOL     OW 1927   5.426   1.011   0.393 -0.0355 -0.5502  0.1144
  450SOL    HW1 1928   5.453   1.054   0.475 -1.1938 -0.3213  0.3896
  450SOL    HW2 1929   5.483   0.935   0.387 -0.9548 -1.4610  1.9715
  451SOL     OW 1930   7.503   3.908   4.767 -0.2909 -0.2119 -0.1770
  451SOL    HW1 1931   7.533   3.906   4.676 -0.8037 -1.0436 -0.3346
  451SOL    HW2 1932   7.521   3.820   4.800  0.2563  0.1973  0.6600
  452SOL     OW 1933   2.989   1.962   2.749  0.4466  0.0296  0.3990
  452SOL    HW1 1934   2.939   1.895   2.702  0.4540  0.2956  0.0018
  452SOL    HW2 1935   2.944   1.971   2.833 -0.3462  0.4570 -0.0573
  453SOL     OW 1936   6.846   8.566   3.161  0.1062 -0.3002 -0.2329
  453SOL    HW1 1937   6.758   8.595   3.183  0.3047 -0.2892  0.5692
  453SOL    HW2 1938   6.858   8.485   3.210  0.0135 -1.1031 -1.4886
  454SOL     OW 1939   9.554   6.544   1.216  0.6103 -0.0486 -0.1444
  454SOL    HW1 1940   9.472   6.542   1.168  0.0441 -1.8781  0.8022
  454SOL    HW2 1941   9.615   6.494   1.162  0.5081 -0.4721  0.1284
  455SOL     OW 1942   8.844   4.655   5.593 -0.6383  0.2018  0.1010
  455SOL    HW1 1943   8.760   4.692   5.620 -0.8717  0.0614 -0.4168
  455SOL    HW2 1944   8.848   4.672   5.498  0.5791  1.5427  0.3584
  456SOL     OW 1945   3.106   2.019   0.259  0.4191 -0.1614 -0.4325
  456SOL    HW1 1946   3.192   1.994   0.226 -0.4113 -0.5854 -2.4687
  456SOL    HW2 1947   3.045   1.961   0.212 -1.1123  1.5803 -0.6966
  457SOL     OW 1948   2.106   1.576   8.906  0.3738 -0.2943  0.6761
  457SOL    HW1 1949   2.197   1.605   8.910  0.2509 -0.0303  2.2221
  457SOL    HW2 1950   2.111   1.481   8.903  0.7113 -0.2574 -1.2923
  458SOL     OW 1951  -0.001   9.155   5.652  0.0774  0.5579  0.4866
  458SOL    HW1 1952  -0.015   9.197   5.567 -0.0111 -1.9219 -0.7885
  458SOL    HW2 1953   0.081   9.193   5.684  1.3347 -0.1018 -1.7760
  459SOL     OW 1954   6.940   5.352   6.422 -0.2666 -0.1682  0.4068
  459SOL    HW1 1955   7.026   5.342   6.464 -0.9107  0.7607  2.0173
  459SOL    HW2 1956   6.923   5.266   6.384  0.5752 -0.9501  1.6911
  460SOL     OW 1957   5.966   2.200   0.176 -0.0776  0.4702  0.1577
  460SOL    HW1 1958   5.882   2.219   0.219  1.4067  4.4372  1.7633
  460SOL    HW2 1959   6.027   2.186   0.248  1.0417 -0.5254 -0.9399
  461SOL     OW 1960   9.955   8.254   0.729 -0.0067  0.8946 -0.1192
  461SOL    HW1 1961   9.933   8.282   0.640  0.0688  0.5302 -0.2542
  461SOL    HW2 1962  10.051   8.259   0.732 -0.0397  1.4216  0.1144
  462SOL     OW 1963   4.013   0.934   4.237 -0.4645 -0.2115  0.0184
  462SOL    HW1 1964   4.067   0.970   4.306  2.1564  0.1965 -2.0777
  462SOL    HW2 1965   4.001   0.842   4.261  0.0943  0.0097  1.1742
  463SOL     OW 1966   5.695   7.791   4.243  0.0706  0.0180 -0.3412
  463SOL    HW1 1967   5.676   7.716   4.300  1.0831  0.3298  0.4302
  463SOL    HW2 1968   5.615   7.844   4.248  1.2297  1.7859  3.5973
  464SOL     OW 1969   3.458   9.373   5.177  0.2040 -0.2093  0.0175
  464SOL    HW1 1970   3.433   9.284   5.155  0.7914 -0.3379 -0.1525
  464SOL    HW2 1971   3.542   9.387   5.133 -0.3785  0.7887 -0.8166
  465SOL     OW 1972   1.905   1.474   3.162  0.4596  0.1775 -0.0248
  465SOL    HW1 1973   1.920   1.539   3.094  0.0242  0.1211 -0.1784
  465SOL    HW2 1974   1.811   1.477   3.178  0.4658 -0.2600  0.1202
  466SOL     OW 1975   1.234   5.929   1.046 -0.5702  0.0607 -0.0499
  466SOL    HW1 1976   1.310   5.971   1.088 -0.0313  0.9584 -1.7691
  466SOL    HW2 1977   1.216   5.986   0.970 -1.4243 -1.4819 -1.0448
  467SOL     OW 1978   2.893   4.161   2.440  0.5446 -0.2864  0.2092
  467SOL    HW1 1979   2.850   4.196   2.518  0.8547  1.2551 -0.2692
  467SOL    HW2 1980   2.983   4.143   2.468  0.2966 -1.0613  0.5437
  468SOL     OW 1981   4.568   3.476   7.434  0.2648  0.5090  0.4893
  468SOL    HW1 1982   4.532   3.469   7.522  0.2559 -0.8530  0.3903
  468SOL    HW2 1983   4.662   3.464   7.445  0.1124 -1.2362  0.1703
  469SOL     OW 1984   8.612   2.271   5.029  0.2912 -0.3573 -0.3050
  469SOL    HW1 1985   8.635   2.329   5.102 -0.6588 -0.9974  0.5339
  469SOL    HW2 1986   8.628   2.183   5.063 -2.2391 -0.7765 -0.0546
  470SOL     OW 1987   0.746   9.780   0.507 -0.2175  0.3285  0.2547
  470SOL    HW1 1988   0.793   9.697   0.502 -2.5375 -1.0867  0.1794
  470SOL    HW2 1989   0.707   9.791   0.421 -0.9021  0.8642  0.6225
  471SOL     OW 1990   0.119   3.743   4.903 -0.4303  0.4417 -0.1555
  471SOL    HW1 1991   0.171   3.821   4.884 -0.3492  0.1613 -1.1653
  471SOL    HW2 1992   0.173   3.671   4.869 -1.6244  0.1778 -1.5740
  472SOL     OW 1993   7.926   3.130   9.738 -0.0985 -0.6079 -0.2571
  472SOL    HW1 1994   7.987   3.057   9.731  0.7462  0.0241  0.3455
  472SOL    HW2 1995   7.953   3.190   9.668 -1.1885 -1.1381 -1.1629
  473SOL     OW 1996   3.926   6.810   9.026  0.4270  0.2817  0.4004
  473SOL    HW1 1997   3.837   6.797   9.057  0.0532  0.8509 -0.4225
  473SOL    HW2 1998   3.970   6.727   9.044 -0.4456 -0.2305  0.2063
  474SOL     OW 1999   5.616   8.372   8.726 -0.1320  0.0410  0.4995
  474SOL    HW1 2000   5.546   8.430   8.695  0.1943 -0.3680 -1.1374
  474SOL    HW2 2001   5.576   8.285   8.730  0.5115 -0.4364 -1.6778
  475SOL     OW 2002   1.280   4.494   1.000  0.3272 -0.2971 -0.2220
  475SOL    HW1 2003   1.242   4.412   0.969  2.3175 -1.6771  0.7674
  475SOL    HW2 2004   1.334   4.469   1.075  0.0244  2.1145  0.9173
  476SOL     OW 2005   7.334   1.480   5.718  0.1221  0.2874 -0.0851
  476SOL    HW1 2006   7.331   1.392   5.682  2.0105  0.1324  0.0489
  476SOL    HW2 2007   7.426   1.493   5.742  0.2977  2.9599 -1.8161
  477SOL     OW 2008   0.171   3.224   9.818 -0.3480  0.0966  0.3763
  477SOL    HW1 2009   0.087   3.267   9.836 -0.4759 -0.5392  1.4147
  477SOL    HW2 2010   0.146   3.142   9.775 -0.1429  0.7348 -0.9957
  478SOL     OW 2011   9.178   3.903   6.331 -0.2634 -0.5088  0.2198
  478SOL    HW1 2012   9.189   3.894   6.236  1.3502 -0.3102  0.3450
  478SOL    HW2 2013   9.093   3.945   6.342 -0.5839 -0.7643 -1.1254
  479SOL     OW 2014   8.156   2.862   4.513 -0.0227  0.0902  0.6705
  479SOL    HW1 2015   8.182   2.926   4.447 -1.7990 -0.1084 -0.2603
  479SOL    HW2 2016   8.102   2.912   4.575 -0.9000 -0.3584  0.2784
  480SOL     OW 2017   2.086   5.208   3.872 -0.6072  0.0660 -0.4456
  480SOL    HW1 2018   2.178   5.228   3.885 -0.3422 -1.6511  0.5369
  480SOL    HW2 2019   2.084   5.151   3.794 -0.6817 -0.9170  0.2618
  481SOL     OW 2020   1.444   4.913   3.402 -0.4160  0.1301  0.0213
  481SOL    HW1 2021   1.367   4.957   3.439  0.1356  1.9420 -0.8768
  481SOL    HW2 2022   1.492   4.882   3.478 -0.4731  1.7428  0.7700
  482SOL     OW 2023   3.206   9.616   0.137  0.0698  0.4164  0.3733
  482SOL    HW1 2024   3.186   9.649   0.225  1.0323  0.7161  0.4940
  482SOL    HW2 2025   3.121   9.609   0.094 -0.3311  1.1505  1.0234
  483SOL     OW 2026   5.552   7.969   6.003 -0.1821  0.4072  0.4541
  483SOL    HW1 2027   5.581   7.946   6.091  2.1076 -0.9902 -0.5690
  483SOL    HW2 2028   5.626   8.015   5.964 -1.5032  1.8417 -0.4678
  484SOL     OW 2029   0.915   2.705   2.298 -0.4068  0.1397  0.0966
  484SOL    HW1 2030   0.940   2.789   2.260 -0.5878 -0.2074 -0.8088
  484SOL    HW2 2031   0.946   2.710   2.389 -0.9851  1.4258  0.2496
  485SOL     OW 2032   7.305   0.258   6.276  0.3429  0.5062 -0.1039
  485SOL    HW1 2033   7.372   0.249   6.208 -0.7467 -0.7864 -1.0663
  485SOL    HW2 2034   7.247   0.328   6.243 -0.8341 -0.8963 -1.1329
  486SOL     OW 2035   8.052   0.853   6.598  0.5476  0.2402 -0.1351
  486SOL    HW1 2036   8.029   0.809   6.517  1.3009 -0.4470  0.0104
  486SOL    HW2 2037   8.138   0.818   6.621  0.8849  1.3165  0.3279
  487SOL     OW 2038   3.578   7.501   0.368 -0.1454 -0.1007 -0.1024
  487SOL    HW1 2039   3.579   7.595   0.388 -2.2599 -0.2463  0.9274
  487SOL    HW2 2040   3.565   7.459   0.453  3.3460 -1.5712 -0.1232
  488SOL     OW 2041   9.982   4.910   9.682  0.1039 -0.4277 -0.2812
  488SOL    HW1 2042   9.901   4.861   9.670  0.0453 -0.8388  1.5304
  488SOL    HW2 2043   9.954   4.996   9.715  0.3394  0.0505 -1.2732
  489SOL     OW 2044   0.808   9.143   8.882  0.0639 -0.2436  0.0495
  489SOL    HW1 2045   0.803   9.048   8.895  0.8227 -0.5266 -1.4919
  489SOL    HW2 2046   0.902   9.162   8.881 -0.0855  0.6449  0.9607
  490SOL     OW 2047   6.479   6.618   4.205  0.0338  0.4472  0.0860
  490SOL    HW1 2048   6.540   6.577   4.267 -0.6481 -1.7405 -0.6112
  490SOL    HW2 2049   6.442   6.545   4.156 -0.3273  2.0064 -2.1209
  491SOL     OW 2050   0.888   3.443   5.335  0.3102  0.2786  0.0051
  491SOL    HW1 2051   0.896   3.388   5.413 -0.3699 -0.1687 -0.2283
  491SOL    HW2 2052   0.977   3.473   5.317  0.4188  0.7366  1.1942
  492SOL     OW 2053   9.423   3.405   8.413 -0.0866 -0.6894 -0.0120
  492SOL    HW1 2054   9.463   3.336   8.466 -0.2234 -0.3482  0.5416
  492SOL    HW2 2055   9.335   3.415   8.449 -0.4188 -0.9115 -0.7354
  493SOL     OW 2056   2.994   1.958   6.724  0.0150 -0.2368  0.4429
  493SOL    HW1 2057   3.055   1.932   6.655  1.6141 -0.0345  1.7198
  493SOL    HW2 2058   2.938   2.024   6.683  1.5707  0.6181 -0.4176
  494SOL     OW 2059   0.722   5.622   1.439 -0.2437 -0.1740 -0.2506
  494SOL    HW1 2060   0.724   5.716   1.421 -5.1067 -0.1602 -1.9657
  494SOL    HW2 2061   0.742   5.616   1.533 -1.6363  2.8081  0.3510
  495SOL     OW 2062   3.832   7.950   7.321 -0.4167 -0.3272 -0.1881
  495SOL    HW1 2063   3.798   7.976   7.406  2.2150  1.6958  0.3819
  495SOL    HW2 2064   3.754   7.937   7.267 -2.2542 -2.8858  2.7206
  496SOL     OW 2065   5.797   8.145   6.973 -0.1130 -0.8694 -0.2269
  496SOL    HW1 2066   5.839   8.148   6.887 -1.0772  1.1023 -0.6838
  496SOL    HW2 2067   5.705   8.125   6.954 -0.3281 -0.4333  0.3460
  497SOL     OW 2068   7.178   4.025   9.247  0.1875  0.3550  0.2983
  497SOL    HW1 2069   7.107   4.082   9.219 -0.1460  0.2788  0.9799
  497SOL    HW2 2070   7.194   4.049   9.338 -0.6419 -1.3075  0.9160
  498SOL     OW 2071   0.588   6.909   3.690 -0.0461 -0.2497 -0.2049
  498SOL    HW1 2072   0.532   6.930   3.615  0.7679  0.3437 -0.6536
  498SOL    HW2 2073   0.676   6.904   3.654  0.2708 -0.6248  0.6009
  499SOL     OW 2074   0.151   3.021   0.085 -0.3266  0.2026  0.1981
  499SOL    HW1 2075   0.173   3.096   0.140 -1.1210  1.1818 -0.7719
  499SOL    HW2 2076   0.057   3.008   0.099 -0.1517 -0.7792  0.5387
  500SOL     OW 2077   4.555   5.343   7.474  0.2716  0.0313  0.5564
  500SOL    HW1 2078   4.556   5.354   7.379 -0.1834  0.2808  0.5790
  500SOL    HW2 2079   4.471   5.379   7.502 -0.1788 -1.2683  0.9131
  501SOL     OW 2080   4.910   8.823   5.330 -0.1748  0.3663  0.1250
  501SOL    HW1 2081   4.869   8.869   5.403 -2.2070 -1.0410 -0.0338
  501SOL    HW2 2082   4.894   8.879   5.254 -1.6083  0.0048  0.1239
  502SOL     OW 2083   7.870   3.664   9.418 -0.1089 -0.2462 -0.2118
  502SOL    HW1 2084   7.872   3.737   9.356  0.4452 -0.1820 -0.1238
  502SOL    HW2 2085   7.938   3.605   9.386 -1.2782 -1.2558 -0.9178
  503SOL     OW 2086   6.503   9.284   9.472 -0.0623  0.4613 -0.3299
  503SOL    HW1 2087   6.489   9.312   9.382  1.1757  0.6555 -0.4714
  503SOL    HW2 2088   6.598   9.288   9.485 -0.3031  1.7125  1.3809
  504SOL     OW 2089   6.226   1.699   1.436 -0.0444 -0.0393 -0.0241
  504SOL    HW1 2090   6.150   1.642   1.443  0.0775 -0.1196  0.7355
  504SOL    HW2 2091   6.190   1.784   1.412 -0.2369 -0.3938 -1.0445
  505SOL     OW 2092   4.895   5.920   8.350 -0.2612 -0.5999 -0.0708
  505SOL    HW1 2093   4.939   5.837   8.331 -0.7248 -0.5664 -1.4084
  505SOL    HW2 2094   4.964   5.986   8.338  0.0962 -0.7756  0.9502
  506SOL     OW 2095   8.033   2.986   1.617 -0.9981  0.2902 -0.0803
  506SOL    HW1 2096   8.078   3.070   1.624 -0.6679  0.1030  0.0664
  506SOL    HW2 2097   8.041   2.947   1.704  0.4272 -0.6800 -0.6114
  507SOL     OW 2098   3.546   6.803   3.687  0.5232  0.1445  0.0477
  507SOL    HW1 2099   3.527   6.742   3.758  3.5259  0.9763  1.7406
  507SOL    HW2 2100   3.642   6.803   3.681  0.5158  2.7934 -1.6056
  508SOL     OW 2101   9.689   5.514   0.734 -0.4543  0.7003 -0.5958
  508SOL    HW1 2102   9.774   5.537   0.772 -0.1878 -0.6343 -0.3219
  508SOL    HW2 2103   9.651   5.451   0.795  0.7559 -2.9079 -3.1343
  509SOL     OW 2104   9.115   9.786   8.512 -0.0919 -0.0847  0.1144
  509SOL    HW1 2105   9.209   9.796   8.496 -0.1033  2.1734  1.0836
  509SOL    HW2 2106   9.110   9.739   8.595  0.0877 -2.2859 -1.0418
  510SOL     OW 2107   9.490   3.081   6.983 -0.1257 -0.3020  0.1824
  510SOL    HW1 2108   9.468   3.027   7.060 -0.8607 -0.8459 -0.4010
  510SOL    HW2 2109   9.585   3.090   6.988  0.2793 -3.1380 -0.6239
  511SOL     OW 2110   3.614   1.862   6.371  0.0208  0.0723 -0.2493
  511SOL    HW1 2111   3.634   1.915   6.448 -0.5974 -1.8893  1.3657
  511SOL    HW2 2112   3.554   1.915   6.319  1.3612  1.9109 -0.0261
  512SOL     OW 2113   7.238   2.656   1.767 -0.1792  0.4925  0.0654
  512SOL    HW1 2114   7.328   2.662   1.798  0.0531 -0.4200 -0.4040
  512SOL    HW2 2115   7.198   2.739   1.793  0.3490  0.2704  1.6802
  513SOL     OW 2116   6.567   1.089   0.675 -0.3474 -0.0644  0.2627
  513SOL    HW1 2117   6.486   1.082   0.726 -0.9169 -0.8773 -0.7062
  513SOL    HW2 2118   6.542   1.139   0.597  0.2224  0.1748  0.2286
  514SOL     OW 2119   4.920   0.964   5.179 -0.6163  0.4320 -0.2673
  514SOL    HW1 2120   4.838   0.922   5.151 -1.0386 -0.2139  1.7904
  514SOL    HW2 2121   4.981   0.948   5.107 -1.2084 -2.3845 -0.2456
  515SOL     OW 2122   0.719   2.586   5.908 -1.0270  0.7791  0.3304
  515SOL    HW1 2123   0.672   2.592   5.825 -0.4194  0.6023 -0.0415
  515SOL    HW2 2124   0.776   2.663   5.909  1.0967 -0.6529 -0.8127
  516SOL     OW 2125   0.758   6.703   8.329 -0.1664 -0.4923  0.8228
  516SOL    HW1 2126   0.778   6.731   8.418 -1.0400  1.1121  0.5433
  516SOL    HW2 2127   0.717   6.617   8.340  1.2522 -1.0942  1.8066
  517SOL     OW 2128   4.298   3.823   7.292 -0.3761  0.0072  0.0492
  517SOL    HW1 2129   4.305   3.734   7.258 -0.1392 -0.7890  2.0219
  517SOL    HW2 2130   4.228   3.818   7.357 -1.5634  1.6987 -1.0214
  518SOL     OW 2131   2.871   8.048   9.925  0.1298  0.9366 -0.6471
  518SOL    HW1 2132   2.897   7.958   9.909 -0.9940  0.5189 -0.2083
  518SOL    HW2 2133   2.820   8.073   9.848 -2.1388  0.1559  0.5308
  519SOL     OW 2134   5.608   7.887   6.262 -0.4591 -0.0883  0.3369
  519SOL    HW1 2135   5.609   7.904   6.357  0.5171  0.2818  0.2660
  519SOL    HW2 2136   5.628   7.794   6.254  0.6473  0.1365  0.4439
  520SOL     OW 2137   9.281   1.895   1.402 -0.3118  0.0799 -0.1316
  520SOL    HW1 2138   9.186   1.895   1.391 -0.3044 -0.4785 -0.1999
  520SOL    HW2 2139   9.294   1.915   1.495 -0.4998  0.0468 -0.0971
  521SOL     OW 2140   9.602   7.062   3.284  0.6493 -0.2170  0.2969
  521SOL    HW1 2141   9.592   6.984   3.338  1.2702 -0.7938 -0.3903
  521SOL    HW2 2142   9.693   7.059   3.254  0.5571  0.5361 -0.1029
  522SOL     OW 2143   9.191   4.180   8.256  0.4097  0.1816  0.0985
  522SOL    HW1 2144   9.146   4.193   8.173 -1.2577 -1.9028  0.5826
  522SOL    HW2 2145   9.208   4.085   8.259 -1.1181 -0.0965  2.8260
  523SOL     OW 2146   2.321   7.466   4.618  0.0091 -0.2752  0.0029
  523SOL    HW1 2147   2.290   7.408   4.688  0.4383  0.5405  0.9011
  523SOL    HW2 2148   2.388   7.520   4.660  1.0157 -0.4606 -1.3281
  524SOL     OW 2149   5.507   1.578   0.534 -0.4927  0.6728  0.0717
  524SOL    HW1 2150   5.451   1.507   0.502 -0.3496  0.7577 -0.3744
  524SOL    HW2 2151   5.567   1.596   0.461  0.9005 -0.2154  0.9350
  525SOL     OW 2152   6.249   2.937   9.722  0.5709  0.1914 -0.1503
  525SOL    HW1 2153   6.269   2.950   9.815  0.4828 -2.8065  0.3803
  525SOL    HW2 2154   6.155   2.953   9.715  0.7713  1.5108  0.0283
  526SOL     OW 2155   3.685   9.908   6.325  0.4139 -0.0813 -0.2452
  526SOL    HW1 2156   3.617   9.961   6.366  0.9445  1.4916 -1.2951
  526SOL    HW2 2157   3.637   9.838   6.279 -0.3420 -0.1515  0.6266
  527SOL     OW 2158   8.763   8.735   9.288  0.3724 -0.4486  0.2914
  527SOL    HW1 2159   8.737   8.652   9.248  0.6615  0.0537 -0.9972
  527SOL    HW2 2160   8.857   8.726   9.303  0.2444 -0.6741  0.9525
  528SOL     OW 2161   4.187   6.539   6.688  0.2341 -0.1927  0.1661
  528SOL    HW1 2162   4.235   6.620   6.670  2.0229 -0.6666  2.3209
  528SOL    HW2 2163   4.188   6.491   6.605  0.4395  1.3359 -0.7476
  529SOL     OW 2164   0.772   2.991   3.529 -0.4376  0.6089 -0.5674
  529SOL    HW1 2165   0.701   3.018   3.472 -0.4949  2.3958  0.2954
  529SOL    HW2 2166   0.840   3.056   3.516  1.0164 -0.9654 -1.2372
  530SOL     OW 2167   1.736   7.513   6.281 -0.0045  0.0257  0.0539
  530SOL    HW1 2168   1.787   7.455   6.224 -0.8834 -0.3932 -0.3161
  530SOL    HW2 2169   1.755   7.601   6.248  1.4945 -0.0073  0.7457
  531SOL     OW 2170   9.964   9.748   5.570 -0.0115 -0.5019  0.1901
  531SOL    HW1 2171   9.870   9.749   5.589  0.0591 -0.1875  0.5167
  531SOL    HW2 2172  10.000   9.682   5.629  0.1307  0.1220  0.8165
  532SOL     OW 2173   0.791   5.335   9.045 -0.3862 -0.2496  0.3446
  532SOL    HW1 2174   0.864   5.283   9.013  0.4098  1.4099 -0.6548
  532SOL    HW2 2175   0.732   5.342   8.971 -0.4173  0.3823  0.4248
  533SOL     OW 2176   5.477   8.011   4.178  0.0922  0.3755  0.1107
  533SOL    HW1 2177   5.388   8.018   4.214  0.2410  0.6789  0.4353
  533SOL    HW2 2178   5.504   8.102   4.164 -0.5388  0.2454 -2.2655
  534SOL     OW 2179   2.756   8.635   2.141 -0.4151 -0.0877 -0.1315
  534SOL    HW1 2180   2.693   8.612   2.073  0.0186 -1.5799 -0.0758
  534SOL    HW2 2181   2.780   8.551   2.181  0.6271  0.5758  0.7094
  535SOL     OW 2182   0.232   6.111   0.174  0.0985 -0.0566  0.1346
  535SOL    HW1 2183   0.297   6.067   0.229  1.8773  1.9189 -0.2202
  535SOL    HW2 2184   0.155   6.055   0.178  1.2748 -1.6965  1.9042
  536SOL     OW 2185   4.049   0.446   3.289 -0.1880 -0.2038  0.6548
  536SOL    HW1 2186   4.080   0.475   3.204 -0.6829 -2.0826 -0.2290
  536SOL    HW2 2187   4.051   0.524   3.344  0.7581  0.9102 -0.8878
  537SOL     OW 2188   0.802   7.576   2.005 -0.0875 -0.5134 -0.0810
  537SOL    HW1 2189   0.751   7.536   2.076 -1.0962  2.7569  1.1946
  537SOL    HW2 2190   0.881   7.609   2.048 -0.3361  0.8000 -0.5994
  538SOL     OW 2191   5.801   1.515   8.742  0.1590 -0.7342  0.0370
  538SOL    HW1 2192   5.854   1.514   8.663  0.6562 -2.9188  0.3435
  538SOL    HW2 2193   5.865   1.514   8.814 -0.2966  0.4555  0.4938
  539SOL     OW 2194   2.564   0.182   3.021 -0.1581  0.0023 -0.2292
  539SOL    HW1 2195   2.519   0.111   3.066  0.7064  0.6271  1.7566
  539SOL    HW2 2196   2.656   0.153   3.018  0.0422  0.6195 -0.2124
  540SOL     OW 2197   2.112   2.038   7.149  0.1045  0.2418 -0.1443
  540SOL    HW1 2198   2.120   1.943   7.147  1.0998  0.2355  1.6489
  540SOL    HW2 2199   2.191   2.068   7.195  1.0630  2.1580 -2.7804
  541SOL     OW 2200   1.117   9.731   2.331  0.2366 -1.1361 -0.4381
  541SOL    HW1 2201   1.055   9.683   2.276 -0.0520 -2.1853  0.7491
  541SOL    HW2 2202   1.172   9.663   2.370  1.4983 -0.2930 -0.6802
  542SOL     OW 2203   8.673   6.289   9.773  0.2856 -0.8691 -0.5871
  542SOL    HW1 2204   8.666   6.235   9.852 -0.7426 -0.7125 -0.5580
  542SOL    HW2 2205   8.765   6.315   9.769  0.0649  0.3907  1.3995
  543SOL     OW 2206   9.259   7.360   4.023 -0.0400  0.3071 -0.1429
  543SOL    HW1 2207   9.299   7.282   3.985  0.3773  0.3265  0.2532
  543SOL    HW2 2208   9.232   7.411   3.947  1.1460  0.5270 -0.4445
  544SOL     OW 2209   0.228   8.782   5.448  0.0474 -0.4351 -0.0689
  544SOL    HW1 2210   0.297   8.828   5.401 -1.3946  0.4511 -1.3978
  544SOL    HW2 2211   0.263   8.770   5.537  1.7615  0.2343 -0.6261
  545SOL     OW 2212   9.123   3.295   4.394  0.2212 -0.0607  0.2334
  545SOL    HW1 2213   9.063   3.340   4.334 -0.0561 -0.1780  0.4198
  545SOL    HW2 2214   9.073   3.220   4.426  0.6526 -0.4507 -0.0093
  546SOL     OW 2215   7.960   0.699   8.475 -0.3954  0.5193 -0.1792
  546SOL    HW1 2216   7.977   0.681   8.383 -1.5506  0.0711 -0.3285
  546SOL    HW2 2217   8.025   0.765   8.500  1.2730 -0.8621 -0.7460
  547SOL     OW 2218   1.925   1.973   1.805 -0.5765 -0.1589 -0.0931
  547SOL    HW1 2219   2.006   2.020   1.784 -1.3784  1.8133  1.0388
  547SOL    HW2 2220   1.895   1.939   1.720  1.1936 -0.5925 -0.5934
  548SOL     OW 2221   6.326   1.927   7.323  0.1713  0.7677 -0.3120
  548SOL    HW1 2222   6.366   1.840   7.318  2.0836  1.3096  2.8654
  548SOL    HW2 2223   6.237   1.911   7.354  0.9743 -0.1160  1.7727
  549SOL     OW 2224   1.848   9.096   2.632 -0.0044  0.3546 -0.3394
  549SOL    HW1 2225   1.869   9.097   2.726  0.3503  0.8771 -0.4209
  549SOL    HW2 2226   1.794   9.018   2.621  0.6081 -0.1558  0.1566
  550SOL     OW 2227   5.768   5.899   4.682 -0.0047  0.3365  0.5780
  550SOL    HW1 2228   5.821   5.978   4.675  0.6349 -0.1653 -0.3276
  550SOL    HW2 2229   5.771   5.877   4.775  1.2704  0.3920  0.5703
  551SOL     OW 2230   4.638   6.338   4.892 -0.6109  0.1117  0.1500
  551SOL    HW1 2231   4.652   6.380   4.807 -0.6915  2.5038  1.2260
  551SOL    HW2 2232   4.674   6.250   4.882 -0.0018  0.5583 -2.1452
  552SOL     OW 2233   6.500   6.359   4.929  0.1848 -0.5646  0.2037
  552SOL    HW1 2234   6.571   6.331   4.871 -1.2252 -1.0199 -1.3867
  552SOL    HW2 2235   6.481   6.449   4.902 -0.6786 -0.8790 -0.2622
  553SOL     OW 2236   1.499   1.692   4.733 -0.5952  0.0991 -0.1849
  553SOL    HW1 2237   1.424   1.644   4.699  0.0586 -0.1697 -1.2913
  553SOL    HW2 2238   1.539   1.733   4.657  1.7046 -1.6238 -0.0248
  554SOL     OW 2239   6.261   7.809   0.151 -0.3529  0.1870 -0.1008
  554SOL    HW1 2240   6.346   7.795   0.193 -0.5972  0.0703  0.3634
  554SOL    HW2 2241   6.222   7.722   0.146 -0.1787  0.1500 -0.9006
  555SOL     OW 2242   3.508   9.522   4.866 -0.2667 -0.2158 -0.4643
  555SOL    HW1 2243   3.534   9.597   4.813  1.0229  1.0507  1.7850
  555SOL    HW2 2244   3.567   9.451   4.839 -0.4330  0.0411 -1.5188
  556SOL     OW 2245   4.223   7.511   3.028  0.2796 -0.2226  0.1772
  556SOL    HW1 2246   4.205   7.556   3.111 -1.9109  0.0940 -0.3944
  556SOL    HW2 2247   4.226   7.419   3.051  2.3036 -0.0141  0.9666
  557SOL     OW 2248   3.257   8.856   2.880  0.6081 -0.5021 -0.1755
  557SOL    HW1 2249   3.279   8.855   2.787  0.6374 -0.2628 -0.1727
  557SOL    HW2 2250   3.340   8.841   2.925  0.4693 -1.4293 -0.1999
  558SOL     OW 2251   3.936   8.734   8.605 -0.3027  0.0888  0.1157
  558SOL    HW1 2252   3.896   8.671   8.545 -0.1415 -0.0840  0.1906
  558SOL    HW2 2253   3.937   8.690   8.690  0.1584  0.0460  0.0907
  559SOL     OW 2254   1.071   6.898   5.481  0.4022  0.3589  0.0581
  559SOL    HW1 2255   0.978   6.915   5.466  0.3775 -1.2540 -1.9636
  559SOL    HW2 2256   1.108   6.984   5.499 -1.5151  0.9893  1.2852
  560SOL     OW 2257   9.286   0.003   5.171 -0.1510  0.0393  0.5363
  560SOL    HW1 2258   9.366   0.047   5.143  0.1013  0.0632  1.2816
  560SOL    HW2 2259   9.227   0.009   5.095  0.8839 -0.8002 -0.3656
  561SOL     OW 2260   1.641   7.081   1.381 -0.0344  0.1904  0.0213
  561SOL    HW1 2261   1.588   7.059   1.458  0.3045 -1.7524 -0.2574
  561SOL    HW2 2262   1.576   7.099   1.313 -0.3463  0.1456  0.3011
  562SOL     OW 2263   0.417   3.543   4.574  0.2593 -0.4288 -0.3645
  562SOL    HW1 2264   0.414   3.449   4.553  1.8238 -0.0054 -2.8801
  562SOL    HW2 2265   0.467   3.547   4.656 -1.2721 -1.8312  0.7236
  563SOL     OW 2266   1.551   7.433   1.219 -0.7988 -0.4667 -0.0036
  563SOL    HW1 2267   1.489   7.500   1.189  0.0448  0.5985  0.5551
  563SOL    HW2 2268   1.593   7.401   1.139 -1.4019 -0.5252 -0.2989
  564SOL     OW 2269   8.036   7.608   7.633  0.0943 -0.6360  0.3992
  564SOL    HW1 2270   8.098   7.535   7.630  1.1931  0.2784  0.1856
  564SOL    HW2 2271   8.072   7.667   7.699  0.5758  0.8755 -1.1464
  565SOL     OW 2272   5.893   8.376   8.197 -0.1571 -0.5607  0.9077
  565SOL    HW1 2273   5.813   8.343   8.155 -1.2189 -0.1902  2.5133
  565SOL    HW2 2274   5.862   8.414   8.279  1.0994  3.5775 -0.3400
  566SOL     OW 2275   7.492   5.894   5.930  0.2182 -0.1300 -0.0783
  566SOL    HW1 2276   7.422   5.951   5.961  0.3999  0.2537 -0.3446
  566SOL    HW2 2277   7.480   5.812   5.976  0.0559  0.1906  0.4532
  567SOL     OW 2278   4.699   0.298   8.769  0.0737 -0.3138 -0.7704
  567SOL    HW1 2279   4.651   0.222   8.735 -0.1674 -0.9998  1.0340
  567SOL    HW2 2280   4.713   0.353   8.691 -2.2644 -0.8225 -1.6509
  568SOL     OW 2281   2.357   1.404   5.725  0.2580 -0.7565 -0.1707
  568SOL    HW1 2282   2.417   1.421   5.653 -1.0503  0.3862 -1.0423
  568SOL    HW2 2283   2.412   1.366   5.794  2.1046  0.8134 -0.6838
  569SOL     OW 2284   2.131   4.050   8.511  0.6833  0.0720  0.0276
  569SOL    HW1 2285   2.128   4.054   8.607 -0.2416 -0.6006  0.0434
  569SOL    HW2 2286   2.055   3.997   8.487  1.3894 -0.5045 -1.0342
  570SOL     OW 2287   8.740   6.400   5.054  0.1759 -0.4392  0.3809
  570SOL    HW1 2288   8.810   6.335   5.046  0.6605  0.2746 -2.5518
  570SOL    HW2 2289   8.670   6.366   4.998 -0.0708  0.8841 -0.1559
  571SOL     OW 2290   3.372   1.597   6.949 -0.2839  0.2478 -0.0792
  571SOL    HW1 2291   3.293   1.641   6.920 -0.8468 -0.8792 -0.3007
  571SOL    HW2 2292   3.436   1.615   6.879 -1.9333 -3.3686 -2.8427
  572SOL     OW 2293   6.011   3.101   3.760 -0.1371  0.8397 -0.3152
  572SOL    HW1 2294   6.079   3.135   3.818  0.5774  0.5364 -0.9529
  572SOL    HW2 2295   5.985   3.176   3.706 -0.9212  1.1626  0.4897
  573SOL     OW 2296   8.028   9.204   7.621  0.5330 -0.1652  0.4430
  573SOL    HW1 2297   7.972   9.156   7.560  1.6235  0.3492 -1.0214
  573SOL    HW2 2298   8.004   9.296   7.607  1.7196  0.0693 -0.2406
  574SOL     OW 2299   0.656   0.100   5.601  0.4885  0.2513 -0.1042
  574SOL    HW1 2300   0.685   0.157   5.530  2.6889 -1.0418 -0.3430
  574SOL    HW2 2301   0.623   0.021   5.557  0.4280  0.0592  0.2785
  575SOL     OW 2302   8.787   4.667   8.365 -0.1903 -0.1610  0.2034
  575SOL    HW1 2303   8.806   4.594   8.306  0.0886  0.7228 -0.8349
  575SOL    HW2 2304   8.695   4.686   8.351 -0.3459 -0.5207  0.7185
  576SOL     OW 2305   6.959   3.879   8.861 -0.8125  0.3717  0.1754
  576SOL    HW1 2306   6.997   3.791   8.861  3.5440  1.9730  0.2701
  576SOL    HW2 2307   6.919   3.888   8.774 -1.3741 -1.6550  0.1710
  577SOL     OW 2308   7.315   1.285   7.479 -0.5242 -0.0003 -0.0870
  577SOL    HW1 2309   7.397   1.292   7.430 -0.3203  1.2293  0.4149
  577SOL    HW2 2310   7.342   1.260   7.567 -0.7460 -0.2792 -0.0973
  578SOL     OW 2311   5.675   4.000   9.948  0.2345 -0.3573  0.2210
  578SOL    HW1 2312   5.729   3.925   9.922 -2.0121 -1.4361 -1.7127
  578SOL    HW2 2313   5.601   3.961   9.995 -0.2925  0.7879  0.3810
  579SOL     OW 2314   0.783   0.901   8.565  0.0236 -0.1240  0.3963
  579SOL    HW1 2315   0.800   0.978   8.511  0.2686 -0.5772 -0.1887
  579SOL    HW2 2316   0.825   0.829   8.518  1.0339 -0.3993  1.6596
  580SOL     OW 2317   9.236   1.780   5.677  0.0341  0.0612 -0.4293
  580SOL    HW1 2318   9.189   1.834   5.614 -2.4686  1.2283  2.2065
  580SOL    HW2 2319   9.204   1.691   5.661 -0.9449  0.4128 -0.5072
  581SOL     OW 2320   9.300   6.549   1.089  0.4043 -0.2955 -0.4429
  581SOL    HW1 2321   9.280   6.636   1.054  1.0751  1.7161  3.5309
  581SOL    HW2 2322   9.215   6.511   1.111  0.1843  0.2428 -0.3501
  582SOL     OW 2323   8.777   2.937   8.657 -0.1121 -0.1486 -0.3292
  582SOL    HW1 2324   8.792   3.031   8.662 -0.5309 -0.1246  0.4903
  582SOL    HW2 2325   8.733   2.924   8.572  1.1187  0.2208 -1.0547
  583SOL     OW 2326   5.841   7.243   7.186 -0.1720  0.5880  0.7115
  583SOL    HW1 2327   5.934   7.261   7.200  0.4728 -1.8660  0.1949
  583SOL    HW2 2328   5.831   7.244   7.090 -0.5361  0.3655  0.7440
  584SOL     OW 2329   2.511   5.660   6.757  0.0572  0.2976  0.0991
  584SOL    HW1 2330   2.548   5.576   6.732 -1.1738  0.1074 -1.1608
  584SOL    HW2 2331   2.433   5.638   6.808 -0.2188  0.6776 -0.1581
  585SOL     OW 2332   3.865   6.874   7.484  0.3817  0.1461  0.0322
  585SOL    HW1 2333   3.906   6.796   7.522  1.0207 -0.1467 -1.1854
  585SOL    HW2 2334   3.922   6.897   7.410 -1.2930  0.1155 -1.3179
  586SOL     OW 2335   7.191   2.355   5.330  0.6466 -0.6930 -0.0400
  586SOL    HW1 2336   7.123   2.417   5.306  0.1053 -0.9529  0.8141
  586SOL    HW2 2337   7.258   2.408   5.373 -0.0603 -0.7619  1.1824
  587SOL     OW 2338   5.306   1.166   3.957 -0.2871 -1.0846  0.1110
  587SOL    HW1 2339   5.283   1.201   3.871  1.1814  1.9450  0.8007
  587SOL    HW2 2340   5.398   1.141   3.948  0.2720  0.4719  1.0511
  588SOL     OW 2341   9.224   7.998   3.719  0.0973  0.2992 -0.0305
  588SOL    HW1 2342   9.313   8.021   3.691 -0.0649 -0.2703 -1.0407
  588SOL    HW2 2343   9.186   7.953   3.644 -1.1077  0.6742  0.3357
  589SOL     OW 2344   5.526   2.679   1.711 -0.1524  0.3814  0.0330
  589SOL    HW1 2345   5.498   2.592   1.741  2.9852 -0.5652  0.5439
  589SOL    HW2 2346   5.609   2.663   1.666 -0.0436  3.0171 -0.8497
  590SOL     OW 2347   9.905   0.507   1.354 -0.3032 -0.1407  0.0254
  590SOL    HW1 2348   9.910   0.553   1.438  0.7484  0.3120 -0.2756
  590SOL    HW2 2349   9.884   0.576   1.291 -0.2558 -0.3408 -0.2079
  591SOL     OW 2350   6.661   7.160   8.732 -0.5078  0.5313  0.4173
  591SOL    HW1 2351   6.712   7.234   8.697 -1.3039  1.4688  1.1907
  591SOL    HW2 2352   6.629   7.191   8.816 -1.1715 -0.5778  0.5906
  592SOL     OW 2353   2.812   8.900   3.635  0.0998 -0.4246  0.7584
  592SOL    HW1 2354   2.896   8.857   3.623  0.9659  1.0387  1.4093
  592SOL    HW2 2355   2.783   8.923   3.547  0.4344 -0.7870  0.5509
  593SOL     OW 2356   2.489   9.065   5.450 -0.2468  0.1441 -0.1966
  593SOL    HW1 2357   2.461   8.999   5.513 -0.9866  1.6410  1.1039
  593SOL    HW2 2358   2.581   9.082   5.471  1.0151 -2.6810 -2.6144
  594SOL     OW 2359   8.458   5.227   7.657  0.0306  0.7887 -0.3348
  594SOL    HW1 2360   8.510   5.182   7.590  2.6501  2.0340  0.7355
  594SOL    HW2 2361   8.425   5.305   7.613  1.0579  1.1886 -0.4168
  595SOL     OW 2362   2.408   1.026   9.384  0.3657 -0.1528 -0.2861
  595SOL    HW1 2363   2.409   1.098   9.448  0.3465  0.4930 -0.9959
  595SOL    HW2 2364   2.341   1.051   9.321  0.4975 -0.7068 -0.6507
  596SOL     OW 2365   5.227   1.483   3.881 -0.4349  0.1041  0.0954
  596SOL    HW1 2366   5.273   1.417   3.829 -0.5513 -1.0363  1.3562
  596SOL    HW2 2367   5.139   1.487   3.842 -1.1662 -2.1875  1.3021
  597SOL     OW 2368   4.579   1.380   3.604  0.2221  0.4292  0.0311
  597SOL    HW1 2369   4.613   1.467   3.587 -0.5461  0.4466 -1.7456
  597SOL    HW2 2370   4.595   1.332   3.522 -0.5540 -0.6860  0.5044
  598SOL     OW 2371   0.513   7.562   8.193 -0.2088 -0.2566  0.1650
  598SOL    HW1 2372   0.578   7.586   8.260 -0.5572 -0.4150  0.5609
  598SOL    HW2 2373   0.553   7.590   8.111  0.0730  0.2601  0.4698
  599SOL     OW 2374   6.725   2.799   8.523  0.1420  0.3907  0.5967
  599SOL    HW1 2375   6.722   2.709   8.489 -2.1891  0.1217  1.3332
  599SOL    HW2 2376   6.716   2.854   8.446  0.7532 -0.0259  0.2203
  600SOL     OW 2377   1.497   2.889   8.996  0.5066  0.1704 -0.1184
  600SOL    HW1 2378   1.505   2.948   9.072 -1.3529 -0.0809  0.3390
  600SOL    HW2 2379   1.584   2.886   8.958  1.7229 -0.3576  2.5215
  601SOL     OW 2380   8.097   9.974   7.504 -0.3089  0.4540  0.1752
  601SOL    HW1 2381   8.100   9.945   7.595  0.3238 -2.3502 -0.6325
  601SOL    HW2 2382   8.003   9.982   7.484 -0.4819 -0.0913  0.7477
  602SOL     OW 2383   7.441   2.472   5.923 -0.2954  0.0917  0.0361
  602SOL    HW1 2384   7.503   2.528   5.971 -0.3372 -0.9654  1.3481
  602SOL    HW2 2385   7.355   2.499   5.955 -0.4845  0.9484 -1.1411
  603SOL     OW 2386   9.660   4.984   0.084 -0.1472 -0.6059  0.4888
  603SOL    HW1 2387   9.679   5.063   0.034 -1.7155  0.6455  1.7827
  603SOL    HW2 2388   9.567   4.968   0.071 -0.5782 -0.3292  2.7912
  604SOL     OW 2389   9.400   5.306   9.430 -0.4196 -0.0039 -0.2630
  604SOL    HW1 2390   9.335   5.301   9.499 -0.2369  2.2075  0.1262
  604SOL    HW2 2391   9.353   5.278   9.351 -0.5005 -3.0183  0.7298
  605SOL     OW 2392   8.037   1.699   0.522 -0.1487  0.3092  0.2747
  605SOL    HW1 2393   8.006   1.750   0.446 -2.8414 -0.7532  0.5321
  605SOL    HW2 2394   8.025   1.758   0.596  0.0684  0.4850  0.1712
  606SOL     OW 2395   4.344   0.720   5.740  0.5025  0.0964  0.7765
  606SOL    HW1 2396   4.374   0.700   5.651  0.1187 -0.6908  0.8130
  606SOL    HW2 2397   4.382   0.805   5.760 -0.1456  0.7131 -0.4912
  607SOL     OW 2398   3.745   1.771   4.345  0.0569 -0.0749  0.2766
  607SOL    HW1 2399   3.709   1.685   4.369 -0.7233 -0.1132 -0.9311
  607SOL    HW2 2400   3.772   1.761   4.254 -0.4130  1.0632 -0.0116
  608SOL     OW 2401   3.987   6.362   7.557 -0.7727 -0.1194  0.0760
  608SOL    HW1 2402   3.957   6.295   7.618 -2.1239 -0.9389 -1.4267
  608SOL    HW2 2403   4.076   6.337   7.534 -1.0702 -1.0903 -0.0343
  609SOL     OW 2404   4.868   2.662   2.305 -0.1424  0.0731  0.1610
  609SOL    HW1 2405   4.960   2.664   2.334 -0.9088 -0.7402  2.9352
  609SOL    HW2 2406   4.861   2.583   2.253  1.0887  1.0767 -1.6331
  610SOL     OW 2407   6.771   6.257   2.229  0.1774 -0.1920  0.0911
  610SOL    HW1 2408   6.745   6.167   2.213 -0.0163 -0.2828  0.8761
  610SOL    HW2 2409   6.719   6.309   2.167  1.2027 -0.7037 -1.2416
  611SOL     OW 2410   9.063   7.977   7.496  0.5260  0.2593 -0.0626
  611SOL    HW1 2411   9.052   8.023   7.580 -1.1710  0.5263 -0.3876
  611SOL    HW2 2412   9.014   8.029   7.433 -0.1832 -1.1717 -0.7543
  612SOL     OW 2413   2.808   1.157   8.546  0.5309  0.0890  0.1723
  612SOL    HW1 2414   2.863   1.229   8.516  0.4624 -0.2214 -0.7316
  612SOL    HW2 2415   2.722   1.197   8.562  0.4960  0.2190 -0.3151
  613SOL     OW 2416   1.903   2.676   4.956 -0.3199 -0.1611 -0.3195
  613SOL    HW1 2417   1.839   2.731   5.001  1.7135  0.8414  1.5554
  613SOL    HW2 2418   1.926   2.727   4.878  0.2632  0.8800  0.4988
  614SOL     OW 2419   3.441   1.979   9.899 -0.2399  0.0668 -0.0430
  614SOL    HW1 2420   3.426   1.970   9.805 -2.4550  0.2523  0.2381
  614SOL    HW2 2421   3.358   2.013   9.933 -0.2829 -2.0889  2.2924
  615SOL     OW 2422   9.144   7.977   4.286 -0.4217 -0.4626 -0.5784
  615SOL    HW1 2423   9.169   7.914   4.218  1.2012  0.0095 -0.4564
  615SOL    HW2 2424   9.144   8.062   4.242 -0.0235 -0.2309 -0.1391
  616SOL     OW 2425   8.055   5.732   9.148  0.5675  0.1735  0.3037
  616SOL    HW1 2426   8.023   5.642   9.138 -2.0186  1.1038 -0.6440
  616SOL    HW2 2427   8.059   5.746   9.242 -1.9897 -0.0460  0.5239
  617SOL     OW 2428   9.288   5.825   8.382  0.7082 -0.4729  0.2181
  617SOL    HW1 2429   9.274   5.786   8.296  0.5690  0.3311 -0.1280
  617SOL    HW2 2430   9.254   5.760   8.444 -2.3228  0.3454 -0.4590
  618SOL     OW 2431   7.522   4.922   1.165  0.4929 -0.0819  0.3573
  618SOL    HW1 2432   7.574   4.843   1.154  0.3268 -0.1402 -0.0765
  618SOL    HW2 2433   7.487   4.939   1.077 -1.4711 -0.9241  0.9146
  619SOL     OW 2434   2.757   9.619   6.446 -0.2101  0.2843  0.3386
  619SOL    HW1 2435   2.736   9.690   6.507 -0.9593 -0.9543  1.5974
  619SOL    HW2 2436   2.852   9.609   6.453 -0.3241 -0.1297  1.6997
  620SOL     OW 2437   9.656   9.832   0.086 -0.3482  0.0739 -0.3794
  620SOL    HW1 2438   9.703   9.777   0.149  0.4960 -0.2533 -1.2670
  620SOL    HW2 2439   9.596   9.772   0.041 -0.9721  0.3136  0.1161
  621SOL     OW 2440   7.852   9.724   8.132  0.0569  0.4026  0.1315
  621SOL    HW1 2441   7.854   9.818   8.116  1.6115  0.1631 -1.5264
  621SOL    HW2 2442   7.845   9.715   8.227 -0.7397  2.1580  0.2722
  622SOL     OW 2443   2.583   7.706   4.246 -0.3092 -0.4848 -0.6424
  622SOL    HW1 2444   2.601   7.612   4.251  0.1363 -0.3779 -0.1935
  622SOL    HW2 2445   2.662   7.743   4.207 -0.7807 -0.3792 -1.5337
  623SOL     OW 2446   0.427   9.436   2.732 -0.2779 -0.0280 -0.1247
  623SOL    HW1 2447   0.415   9.394   2.647  1.9646 -0.4909 -0.2778
  623SOL    HW2 2448   0.522   9.445   2.741 -0.5377  4.0053  0.4051
  624SOL     OW 2449   0.102   9.907   2.546 -0.5171  0.7945 -0.0690
  624SOL    HW1 2450   0.144   9.832   2.589 -0.5199 -0.1297 -1.5968
  624SOL    HW2 2451   0.016   9.874   2.520 -0.5154  1.3228 -0.7575
  625SOL     OW 2452   8.505   4.429   6.598  0.2031  0.5382  0.0424
  625SOL    HW1 2453   8.456   4.489   6.654 -1.1692 -1.0807  0.6776
  625SOL    HW2 2454   8.480   4.454   6.509 -0.1663  1.0701  0.2893
  626SOL     OW 2455   4.041   7.155   2.442  0.6517 -0.1073 -0.4600
  626SOL    HW1 2456   4.117   7.183   2.391  0.5590  0.2968 -0.3865
  626SOL    HW2 2457   4.044   7.060   2.442  0.7010 -0.1090 -1.1534
  627SOL     OW 2458   2.286   3.816   2.906 -0.2912 -0.1992 -0.2249
  627SOL    HW1 2459   2.371   3.787   2.874  0.4007  0.1467  1.2351
  627SOL    HW2 2460   2.231   3.822   2.827  1.5843  1.5256 -1.5058
  628SOL     OW 2461   3.514   4.695   3.036 -0.0280  0.3969 -0.3570
  628SOL    HW1 2462   3.431   4.650   3.019 -0.4444  1.0610 -0.1563
  628SOL    HW2 2463   3.532   4.743   2.955  0.6536 -0.4811 -0.7378
  629SOL     OW 2464   0.549   3.927   2.331  0.4411  0.0051  0.8076
  629SOL    HW1 2465   0.467   3.975   2.316  0.8393  0.6724  0.6965
  629SOL    HW2 2466   0.600   3.985   2.387  1.0505 -0.1642  0.4353
  630SOL     OW 2467   9.565   6.530   0.748 -0.0489 -0.2490  0.5617
  630SOL    HW1 2468   9.648   6.573   0.771 -1.3218  2.3780  0.5961
  630SOL    HW2 2469   9.498   6.593   0.774 -1.9621 -1.1890 -1.7968
  631SOL     OW 2470   8.594   3.897   1.898 -0.7918 -0.7127 -0.0437
  631SOL    HW1 2471   8.515   3.949   1.882 -1.4961 -1.8090 -0.2001
  631SOL    HW2 2472   8.593   3.881   1.993  0.1570  0.6781  0.2315
  632SOL     OW 2473   1.913   5.692   0.981  0.0975 -0.1002 -0.5684
  632SOL    HW1 2474   2.007   5.708   0.974  0.1071 -0.2981 -0.9099
  632SOL    HW2 2475   1.899   5.671   1.074  0.5651 -1.1525 -0.7165
  633SOL     OW 2476   3.815   3.294   4.213 -0.2580 -0.2092  0.3709
  633SOL    HW1 2477   3.829   3.211   4.258 -0.0575 -0.0902  0.5287
  633SOL    HW2 2478   3.851   3.360   4.273 -0.3788 -0.0139  0.2278
  634SOL     OW 2479   7.816   8.253   2.464  0.3582  0.4276  0.3092
  634SOL    HW1 2480   7.773   8.325   2.511  0.6764  1.7681 -1.3562
  634SOL    HW2 2481   7.848   8.293   2.383  0.2668 -1.6682 -0.8274
  635SOL     OW 2482   1.849   9.579   1.731 -0.2603  0.4764  0.0800
  635SOL    HW1 2483   1.780   9.617   1.676  0.7275 -0.0114 -1.5706
  635SOL    HW2 2484   1.922   9.640   1.724 -0.1711  0.5007  1.0352
  636SOL     OW 2485   2.068   7.908   8.690  0.4716 -0.0805 -0.0528
  636SOL    HW1 2486   2.098   7.903   8.781 -4.0191 -0.9191  1.6126
  636SOL    HW2 2487   2.077   7.819   8.657  0.9420 -0.0440 -0.0360
  637SOL     OW 2488   6.482   6.760   7.218 -0.3378  0.2195 -0.1379
  637SOL    HW1 2489   6.448   6.848   7.201  0.7579  0.3826 -1.7247
  637SOL    HW2 2490   6.575   6.773   7.235 -0.1750 -0.6370 -0.3187
  638SOL     OW 2491   2.537   7.127   4.880 -0.0232  0.4660 -0.3619
  638SOL    HW1 2492   2.561   7.185   4.807 -2.8817  3.0811  0.5594
  638SOL    HW2 2493   2.619   7.086   4.907  2.2590  4.1823 -1.0576
  639SOL     OW 2494   1.661   4.313   6.128  0.0427 -0.9511  0.1779
  639SOL    HW1 2495   1.657   4.343   6.219  1.1878 -1.8533  0.5561
  639SOL    HW2 2496   1.613   4.230   6.128 -2.1731  0.2320 -0.6308
  640SOL     OW 2497   5.478   9.395   4.247  0.5619  0.2489  0.5760
  640SOL    HW1 2498   5.396   9.363   4.209  0.9375 -1.5461  1.1948
  640SOL    HW2 2499   5.506   9.465   4.188  0.2451 -1.2868 -1.5198
  641SOL     OW 2500   9.818   0.360   7.334  0.1685  0.6530  0.3566
  641SOL    HW1 2501   9.788   0.443   7.296  1.6903  1.4656  0.8309
  641SOL    HW2 2502   9.749   0.298   7.312  0.0882  1.4807 -2.1352
  642SOL     OW 2503   7.818   3.750   6.694  0.1739  0.2116  0.3402
  642SOL    HW1 2504   7.787   3.671   6.650  1.1947 -1.0408  1.7491
  642SOL    HW2 2505   7.904   3.767   6.656 -0.0017  0.5994  0.1079
  643SOL     OW 2506   7.019   4.888   7.474  0.1393 -0.3202  0.0864
  643SOL    HW1 2507   6.933   4.850   7.491 -0.0834 -0.0380 -0.3881
  643SOL    HW2 2508   7.001   4.968   7.425  0.6202  0.2327  0.7842
  644SOL     OW 2509   4.035   3.562   4.764  0.0802 -0.1104  0.4667
  644SOL    HW1 2510   4.018   3.475   4.799 -2.2207  0.0266 -0.1458
  644SOL    HW2 2511   4.112   3.551   4.709 -0.5003 -1.9262 -0.0628
  645SOL     OW 2512   9.751   5.031   4.613  0.0142 -0.8537 -0.2408
  645SOL    HW1 2513   9.764   5.055   4.522  1.9335  0.9496  0.4114
  645SOL    HW2 2514   9.836   5.045   4.654 -0.7124 -1.8709  1.7842
  646SOL     OW 2515   0.523   9.874   0.339  0.3053 -0.6955 -0.4085
  646SOL    HW1 2516   0.467   9.930   0.392  1.2462 -0.2101  0.1111
  646SOL    HW2 2517   0.555   9.930   0.269 -1.6165 -1.5585 -2.0555
  647SOL     OW 2518   9.368   2.880   1.330  0.2846 -0.2813 -0.1042
  647SOL    HW1 2519   9.350   2.835   1.247 -3.5108  0.6494  0.0465
  647SOL    HW2 2520   9.387   2.810   1.392  0.0125 -1.2335 -1.0723
  648SOL     OW 2521   1.434   4.942   2.707 -0.0857  0.0339 -0.2250
  648SOL    HW1 2522   1.400   4.950   2.618  0.0098  1.3249 -0.1654
  648SOL    HW2 2523   1.528   4.956   2.698 -0.0867  0.2528  0.0843
  649SOL     OW 2524   3.299   4.570   2.244 -0.1490  0.5476  0.0786
  649SOL    HW1 2525   3.345   4.553   2.162 -1.3165 -1.8328 -0.1903
  649SOL    HW2 2526   3.369   4.578   2.309  0.7386  0.5263 -0.8429
  650SOL     OW 2527   2.739   2.686   6.213  0.0190  0.6138  0.1583
  650SOL    HW1 2528   2.765   2.743   6.285  0.3498 -1.1752  1.5385
  650SOL    HW2 2529   2.771   2.599   6.239 -0.9344 -0.3069 -1.5773
  651SOL     OW 2530   9.934   4.076   0.641  0.1806  0.3459 -0.2904
  651SOL    HW1 2531  10.022   4.102   0.668  0.4249  0.1429 -0.8911
  651SOL    HW2 2532   9.927   3.984   0.666  1.4535 -0.7208 -3.3983
  652SOL     OW 2533   4.163   1.409   5.903 -0.0845  0.3408  0.4624
  652SOL    HW1 2534   4.258   1.419   5.912 -0.0497  0.3102  0.1149
  652SOL    HW2 2535   4.133   1.390   5.992 -0.0028  2.3395  0.9684
  653SOL     OW 2536   4.490   0.686   6.828 -0.0384  0.2531  0.4540
  653SOL    HW1 2537   4.470   0.746   6.757 -1.1378 -1.5166 -0.8227
  653SOL    HW2 2538   4.573   0.645   6.802  0.7272  1.1979  1.3355
  654SOL     OW 2539   0.096   1.912   0.929  0.5184 -0.3115 -0.1142
  654SOL    HW1 2540   0.015   1.889   0.883  0.7269  1.2190 -1.3403
  654SOL    HW2 2541   0.159   1.928   0.859  1.3695  0.3149  0.7748
  655SOL     OW 2542   0.825   6.840   5.183 -0.0450  0.0754  0.2176
  655SOL    HW1 2543   0.834   6.926   5.224 -1.2256  0.3357 -0.0235
  655SOL    HW2 2544   0.776   6.788   5.247 -0.7947  0.1042 -0.3200
  656SOL     OW 2545   7.510   3.113   3.089 -0.3497  0.2917  0.0805
  656SOL    HW1 2546   7.578   3.046   3.093 -2.5625 -2.3760 -2.3882
  656SOL    HW2 2547   7.444   3.084   3.152 -1.9311 -0.7683 -1.9371
  657SOL     OW 2548   8.670   4.618   7.917 -0.2727  0.1123  0.1605
  657SOL    HW1 2549   8.608   4.592   7.848  0.9688  2.4196 -1.9940
  657SOL    HW2 2550   8.744   4.558   7.906 -1.3863 -1.6360  1.7169
  658SOL     OW 2551   0.066   3.736   0.919  0.6871 -0.0633 -0.1561
  658SOL    HW1 2552   0.008   3.662   0.902  1.3356 -0.3662 -1.1332
  658SOL    HW2 2553   0.150   3.695   0.940  1.1793  0.3820 -1.1821
  659SOL     OW 2554   4.730   6.360   5.165 -0.3453 -0.1858 -0.1071
  659SOL    HW1 2555   4.719   6.369   5.071  0.6234 -0.5334 -0.2596
  659SOL    HW2 2556   4.796   6.292   5.176  0.2657  0.5260  0.7954
  660SOL     OW 2557   5.182   4.574   6.714  0.1563  0.1286 -0.0187
  660SOL    HW1 2558   5.186   4.574   6.619  0.4554  2.1656 -0.0500
  660SOL    HW2 2559   5.105   4.521   6.735  0.5357 -1.0098 -1.3219
  661SOL     OW 2560   7.164   0.279   8.789  0.3711 -0.2265  0.5951
  661SOL    HW1 2561   7.245   0.287   8.840  0.8571 -0.3409 -0.1559
  661SOL    HW2 2562   7.162   0.357   8.734  0.3497 -0.6023  0.0620
  662SOL     OW 2563   6.433   1.492   4.968 -0.1608 -0.2318 -1.1066
  662SOL    HW1 2564   6.404   1.555   4.902  0.7790  1.3282 -0.1083
  662SOL    HW2 2565   6.528   1.490   4.961 -0.1406 -1.1399 -0.7491
  663SOL     OW 2566   0.610   8.459   4.682  0.2453 -0.3138  0.0841
  663SOL    HW1 2567   0.690   8.502   4.714  0.1546 -0.9624  1.2339
  663SOL    HW2 2568   0.627   8.366   4.693 -1.0528 -0.4357  1.3039
  664SOL     OW 2569   2.428   1.379   9.684 -0.0158 -0.0356  0.3321
  664SOL    HW1 2570   2.416   1.423   9.599 -0.5748  1.3106  1.0873
  664SOL    HW2 2571   2.388   1.293   9.671 -0.9767  0.5059 -0.4906
  665SOL     OW 2572   6.758   2.699   9.188 -0.4704  0.0071  0.3697
  665SOL    HW1 2573   6.826   2.726   9.127 -0.6318 -3.4382 -1.5999
  665SOL    HW2 2574   6.677   2.702   9.136 -1.4957  1.7543  1.9598
  666SOL     OW 2575   4.541   4.672   1.001 -0.0393 -0.9558  0.0361
  666SOL    HW1 2576   4.462   4.726   1.000  0.3265 -0.2790 -2.8449
  666SOL    HW2 2577   4.514   4.589   0.961  1.1106  0.2612 -3.7380
  667SOL     OW 2578   2.298   7.105   4.301  0.0866 -0.0882  0.2469
  667SOL    HW1 2579   2.244   7.129   4.225  2.0558  1.4834 -0.7587
  667SOL    HW2 2580   2.366   7.048   4.265 -0.5700 -1.6865  1.4133
  668SOL     OW 2581   8.490   8.681   9.562 -0.0863  0.2749 -0.0979
  668SOL    HW1 2582   8.441   8.708   9.484  1.4992  1.4166 -0.7768
  668SOL    HW2 2583   8.489   8.586   9.559 -1.9222  0.2633 -0.2628
  669SOL     OW 2584   7.056   9.362   6.752 -0.3611 -0.1069 -0.2241
  669SOL    HW1 2585   7.114   9.390   6.681  0.3576  2.0905  1.1189
  669SOL    HW2 2586   7.097   9.396   6.831 -1.3517 -2.1210  1.2320
  670SOL     OW 2587   9.272   0.346   5.283 -0.2651  0.0912  0.0592
  670SOL    HW1 2588   9.203   0.399   5.324  0.8759  0.8275  1.1073
  670SOL    HW2 2589   9.290   0.278   5.347  1.0567  0.8375  0.5053
  671SOL     OW 2590   8.203   5.772   7.050  0.1229 -0.0582 -0.2367
  671SOL    HW1 2591   8.149   5.736   6.979 -0.3583  0.3218 -0.0671
  671SOL    HW2 2592   8.278   5.811   7.005 -1.5669  2.7878 -0.8526
  672SOL     OW 2593   5.644   2.778   4.388  0.0977  0.0639 -0.0452
  672SOL    HW1 2594   5.707   2.707   4.371 -0.1139  0.1851 -1.4241
  672SOL    HW2 2595   5.615   2.805   4.301 -1.3639  0.4625  0.5493
  673SOL     OW 2596   4.480   6.884   1.360  0.1349  0.3120  0.4406
  673SOL    HW1 2597   4.500   6.858   1.270 -2.4071 -1.8558  0.3662
  673SOL    HW2 2598   4.489   6.979   1.361  1.1243  0.2965 -1.8370
  674SOL     OW 2599   3.626   7.581   6.576 -0.4883  0.0120 -0.3184
  674SOL    HW1 2600   3.596   7.606   6.488 -1.9203  0.8312  0.3633
  674SOL    HW2 2601   3.653   7.490   6.567 -1.1658 -0.0993 -1.4881
  675SOL     OW 2602   2.433   8.444   2.174 -0.4152  0.2787 -0.0234
  675SOL    HW1 2603   2.389   8.507   2.232 -0.1332 -0.6168  1.1989
  675SOL    HW2 2604   2.463   8.374   2.232 -0.1975 -0.7068 -1.2755
  676SOL     OW 2605   3.072   7.104   4.895  0.0623  0.0089  0.3604
  676SOL    HW1 2606   3.150   7.131   4.846 -0.0867 -2.9882 -1.8698
  676SOL    HW2 2607   3.107   7.066   4.976  0.8422 -0.0275  0.0224
  677SOL     OW 2608   0.774   1.069   4.903 -0.1797  0.6197  0.1872
  677SOL    HW1 2609   0.764   1.070   4.808 -1.7411 -0.3927  0.3035
  677SOL    HW2 2610   0.719   0.997   4.933  2.3573 -0.8525  1.6696
  678SOL     OW 2611   4.890   3.237   4.637 -0.2626  0.3050 -0.2355
  678SOL    HW1 2612   4.906   3.238   4.731 -1.3978 -0.0994 -0.0189
  678SOL    HW2 2613   4.968   3.277   4.599  0.8493 -0.8016  0.7698
  679SOL     OW 2614   3.190   0.676   4.372 -0.5263  0.1302 -0.0227
  679SOL    HW1 2615   3.285   0.671   4.365 -0.4859  0.2632  0.3558
  679SOL    HW2 2616   3.157   0.610   4.312 -0.2105  0.5093 -0.6183
  680SOL     OW 2617   9.180   8.439   1.448 -0.2262 -0.2495  0.1087
  680SOL    HW1 2618   9.144   8.378   1.384  2.3480 -1.6129 -0.1750
  680SOL    HW2 2619   9.210   8.513   1.395  0.5677 -0.7190 -0.1182
  681SOL     OW 2620   1.283   7.675   2.594 -1.1621 -0.2945  0.1900
  681SOL    HW1 2621   1.341   7.637   2.660  1.5184  2.2491 -0.4693
  681SOL    HW2 2622   1.202   7.693   2.641 -0.0298 -0.3287  2.3013
  682SOL     OW 2623   1.984   9.616   2.146  0.2004  0.3238 -0.0747
  682SOL    HW1 2624   2.065   9.665   2.137  0.2129  0.1138 -1.2277
  682SOL    HW2 2625   1.985   9.583   2.237  1.4231  0.2735 -0.0970
  683SOL     OW 2626   2.397   3.942   1.980  0.1932 -0.1715  0.3864
  683SOL    HW1 2627   2.422   3.997   2.054  0.5375  0.9249 -0.5009
  683SOL    HW2 2628   2.474   3.888   1.964  0.5049  0.3185  0.2002
  684SOL     OW 2629   5.574   2.083   4.646 -0.1380 -0.1728 -0.4816
  684SOL    HW1 2630   5.498   2.130   4.682  0.5596 -0.3042  1.2510
  684SOL    HW2 2631   5.647   2.145   4.655 -0.1482  0.2923 -2.9620
  685SOL     OW 2632   5.032   5.630   8.402 -0.0418  0.0332  0.2878
  685SOL    HW1 2633   4.949   5.598   8.368  0.2106 -0.1705 -0.1427
  685SOL    HW2 2634   5.093   5.557   8.389  0.7708  0.9774 -1.5618
  686SOL     OW 2635   7.544   9.959   4.219 -0.1788 -0.1929  0.1176
  686SOL    HW1 2636   7.557  10.007   4.138  1.3221 -0.8339 -0.0576
  686SOL    HW2 2637   7.493   9.882   4.194 -1.4142  0.5805  0.1623
  687SOL     OW 2638   7.041   2.692   0.569 -0.3563  0.4908 -0.4742
  687SOL    HW1 2639   7.077   2.734   0.491  1.9888  0.5623  0.5661
  687SOL    HW2 2640   6.991   2.760   0.612 -0.9545  0.6920 -1.4427
  688SOL     OW 2641   3.464   9.591   5.640  0.0500 -0.3197 -0.2799
  688SOL    HW1 2642   3.392   9.651   5.622  0.0934 -0.4508 -0.9070
  688SOL    HW2 2643   3.476   9.595   5.735  0.1904  0.8059 -0.3412
  689SOL     OW 2644   4.934   8.489   6.313  0.4510  1.0023 -0.6112
  689SOL    HW1 2645   4.983   8.567   6.284 -0.5205  1.1085 -2.1152
  689SOL    HW2 2646   4.968   8.419   6.258 -2.0036  1.3600 -2.8374
  690SOL     OW 2647   9.328   5.046   2.473  0.0934 -0.0711 -0.1353
  690SOL    HW1 2648   9.282   5.129   2.489 -0.3146 -0.1263 -1.0070
  690SOL    HW2 2649   9.320   4.999   2.556 -0.8969  0.1819 -0.0672
  691SOL     OW 2650   1.091   9.246   3.160  0.4025  0.1750  0.2422
  691SOL    HW1 2651   0.999   9.273   3.156  0.9616  2.0658 -1.5695
  691SOL    HW2 2652   1.092   9.159   3.119 -0.5258  0.3221 -0.1211
  692SOL     OW 2653   6.089   8.448   2.338 -0.0199 -0.2246 -0.2187
  692SOL    HW1 2654   6.084   8.469   2.245 -1.4230  0.9536  0.0874
  692SOL    HW2 2655   6.172   8.401   2.347 -0.0987 -0.8363 -2.1391
  693SOL     OW 2656   5.351   0.602   5.067  0.0089 -0.4477 -0.2712
  693SOL    HW1 2657   5.353   0.506   5.073  1.2917 -0.3718  1.1573
  693SOL    HW2 2658   5.437   0.625   5.032 -0.1104  0.2105 -0.1409
  694SOL     OW 2659   1.266   6.155   0.617  0.4897 -0.0467  0.3046
  694SOL    HW1 2660   1.240   6.144   0.708  1.3351 -1.3130  0.4115
  694SOL    HW2 2661   1.333   6.088   0.603  1.1725  0.8550 -0.9288
  695SOL     OW 2662   3.532   4.494   8.504  0.1278  0.2143  0.1037
  695SOL    HW1 2663   3.534   4.539   8.589  2.0060  1.9776 -0.7783
  695SOL    HW2 2664   3.610   4.438   8.505 -1.1457 -1.6484  0.4191
  696SOL     OW 2665   0.867   1.347   0.826  0.1192 -0.5315  0.2649
  696SOL    HW1 2666   0.953   1.371   0.793 -0.1359 -1.8822 -1.5490
  696SOL    HW2 2667   0.826   1.431   0.850  1.6138  0.1865  0.3872
  697SOL     OW 2668   9.272   7.182   7.001  0.1598 -0.1554 -0.0345
  697SOL    HW1 2669   9.250   7.129   7.077  0.0848 -1.9890 -1.2720
  697SOL    HW2 2670   9.190   7.225   6.978  0.3838  1.0908  1.3896
  698SOL     OW 2671   5.647   2.279   2.817 -0.0930  0.3610 -0.0308
  698SOL    HW1 2672   5.557   2.247   2.802 -0.0512  0.9196 -1.7560
  698SOL    HW2 2673   5.635   2.358   2.870 -0.4048 -0.8658  1.8189
  699SOL     OW 2674   8.793   3.526   2.541  0.2213 -0.4273  0.1391
  699SOL    HW1 2675   8.771   3.589   2.610  1.0662 -0.8198  0.7870
  699SOL    HW2 2676   8.816   3.446   2.589 -1.6425 -1.5300 -0.6848
  700SOL     OW 2677   1.899   9.554   2.741  0.3931  0.1326 -0.3182
  700SOL    HW1 2678   1.829   9.597   2.692 -2.4482 -2.8053  0.8422
  700SOL    HW2 2679   1.951   9.627   2.776 -2.9114  2.5899 -0.0587
  701SOL     OW 2680   4.486   9.402   8.738  0.7674 -0.0010 -0.1423
  701SOL    HW1 2681   4.504   9.417   8.831  2.3816  1.0392 -0.5823
  701SOL    HW2 2682   4.396   9.370   8.736  1.3925 -2.2140  1.9743
  702SOL     OW 2683   9.952   4.547   9.546  0.6849  0.3375  0.1800
  702SOL    HW1 2684   9.932   4.540   9.453 -1.0328 -2.4991  0.6489
  702SOL    HW2 2685   9.990   4.462   9.569  1.4865  1.1209  2.0027
  703SOL     OW 2686   0.849   0.292   4.458  0.5923 -0.2931  0.4591
  703SOL    HW1 2687   0.927   0.280   4.511 -0.7828 -1.2946  2.3784
  703SOL    HW2 2688   0.811   0.205   4.450 -0.0877  0.0887 -0.8576
  704SOL     OW 2689   1.310   4.328   9.735 -0.2431 -0.0803 -0.0992
  704SOL    HW1 2690   1.250   4.270   9.782 -2.8991  1.4506 -1.3478
  704SOL    HW2 2691   1.271   4.414   9.743  0.3413  0.5968 -3.2015
  705SOL     OW 2692   9.942   2.678   4.428  0.6491 -0.0027 -0.0384
  705SOL    HW1 2693   9.983   2.723   4.354  0.2599 -0.6817 -0.6796
  705SOL    HW2 2694   9.853   2.661   4.399 -0.0356  1.2617  1.2646
  706SOL     OW 2695   0.096   7.017   7.097 -0.5901  0.0395 -0.0822
  706SOL    HW1 2696   0.134   7.028   7.184  0.0084 -0.7572 -0.2350
  706SOL    HW2 2697   0.162   6.969   7.047 -0.3206  1.6394 -1.3965
  707SOL     OW 2698   6.002   9.862   3.025 -0.2557 -0.4274 -0.2301
  707SOL    HW1 2699   5.983   9.915   3.103 -3.1987  1.6802 -2.1487
  707SOL    HW2 2700   5.948   9.783   3.036 -1.3279  0.2501 -0.4366
  708SOL     OW 2701   7.603   7.627   1.083  0.0179  0.2487 -0.4280
  708SOL    HW1 2702   7.682   7.588   1.046 -0.9639 -1.0387 -1.2645
  708SOL    HW2 2703   7.549   7.649   1.007  0.5373  3.4137 -0.0093
  709SOL     OW 2704   4.162   8.708   4.427 -0.2072  0.0814 -0.4913
  709SOL    HW1 2705   4.096   8.775   4.407 -2.1707 -1.6852 -0.2607
  709SOL    HW2 2706   4.140   8.634   4.371  0.7442 -1.0668  0.5802
  710SOL     OW 2707   7.078   7.096   7.897 -0.1209  0.3723 -0.2425
  710SOL    HW1 2708   7.045   7.184   7.918 -1.2889 -0.8466  3.9640
  710SOL    HW2 2709   7.165   7.094   7.937 -1.0869 -1.0696  1.9165
  711SOL     OW 2710   5.669   3.850   7.208  0.2237 -0.2129  0.1472
  711SOL    HW1 2711   5.758   3.877   7.186  0.2461 -0.0110  0.4866
  711SOL    HW2 2712   5.680   3.770   7.260  0.1593 -0.8788 -0.8190
  712SOL     OW 2713   5.171   9.488   1.268 -0.0904 -0.3947 -0.5164
  712SOL    HW1 2714   5.225   9.536   1.206 -2.0195 -0.3602 -2.2747
  712SOL    HW2 2715   5.169   9.398   1.234  1.3464 -1.1780  1.2834
  713SOL     OW 2716   7.522   1.664   4.768 -0.0880  0.2126 -0.5373
  713SOL    HW1 2717   7.582   1.736   4.749 -0.7120  0.4006 -1.8730
  713SOL    HW2 2718   7.440   1.707   4.793  0.3994 -0.0298  1.7861
  714SOL     OW 2719   1.974   6.484   2.437  0.2126  0.2485  0.3711
  714SOL    HW1 2720   2.043   6.547   2.416  0.4197 -0.0897  0.0329
  714SOL    HW2 2721   1.938   6.457   2.353  0.9379 -0.9835  0.4353
  715SOL     OW 2722   2.467   8.701   6.817  0.0778 -0.6063  0.0057
  715SOL    HW1 2723   2.473   8.687   6.722 -0.1467 -1.7135  0.1369
  715SOL    HW2 2724   2.404   8.772   6.827 -0.1980 -0.7512 -0.6606
  716SOL     OW 2725   1.942   2.341   7.869  0.0702 -0.3187 -0.3071
  716SOL    HW1 2726   1.872   2.308   7.925  0.2712 -1.2541 -0.5855
  716SOL    HW2 2727   1.951   2.274   7.801 -0.0559  0.6997 -1.3662
  717SOL     OW 2728   9.655   2.476   1.470 -0.5056 -0.4043  0.2488
  717SOL    HW1 2729   9.588   2.538   1.500  0.1048 -0.2259  1.2922
  717SOL    HW2 2730   9.702   2.523   1.401 -0.8441 -0.1804  0.1664
  718SOL     OW 2731   4.985   7.265   8.039  0.0645 -0.0384  0.0991
  718SOL    HW1 2732   5.065   7.288   7.992  0.2936 -1.5772 -0.3359
  718SOL    HW2 2733   4.924   7.239   7.971 -1.4041  2.5974  0.2981
  719SOL     OW 2734   2.595   9.848   3.544  0.0962 -0.0357  0.3135
  719SOL    HW1 2735   2.586   9.928   3.596  1.4666 -0.4724  1.2821
  719SOL    HW2 2736   2.598   9.778   3.609  0.6460 -0.7073 -0.4283
  720SOL     OW 2737   2.301   9.438   7.870 -0.2426 -0.2106 -0.8882
  720SOL    HW1 2738   2.210   9.451   7.841  0.5363  0.2908 -3.3743
  720SOL    HW2 2739   2.295   9.370   7.937 -2.3966 -0.5863 -1.3674
  721SOL     OW 2740   6.275   5.130   6.931 -0.4896 -0.4800 -0.7715
  721SOL    HW1 2741   6.254   5.066   6.999 -1.1493  0.1534 -0.3621
  721SOL    HW2 2742   6.281   5.214   6.978  3.2454 -0.5810 -0.7964
  722SOL     OW 2743   6.123   1.053   5.236  0.2625 -0.3549 -0.4737
  722SOL    HW1 2744   6.028   1.042   5.238  0.2592 -0.6584 -1.5314
  722SOL    HW2 2745   6.140   1.133   5.286 -0.4974 -0.5970  0.1741
  723SOL     OW 2746   7.250   8.423   1.012  1.1896 -0.1215 -0.3003
  723SOL    HW1 2747   7.331   8.473   1.013  0.6744  0.7412  1.5390
  723SOL    HW2 2748   7.193   8.470   0.950  0.9783  1.1570  0.8431
  724SOL     OW 2749   9.293   6.365   8.875  0.1420  0.4228  0.3283
  724SOL    HW1 2750   9.360   6.300   8.854 -1.0189 -0.6588 -0.1802
  724SOL    HW2 2751   9.291   6.369   8.970 -0.9840 -1.6420  0.4359
  725SOL     OW 2752   4.065   3.441   0.730 -0.8042 -0.1427  0.1039
  725SOL    HW1 2753   4.001   3.480   0.790  1.9203 -2.0520  4.7411
  725SOL    HW2 2754   4.111   3.375   0.783  3.6829 -0.3150 -3.4149
  726SOL     OW 2755   3.523   8.321   5.882  0.2794  0.4487 -0.2505
  726SOL    HW1 2756   3.457   8.355   5.822  1.6173 -0.3299 -2.2978
  726SOL    HW2 2757   3.499   8.229   5.895 -0.8097  0.9565  1.6428
  727SOL     OW 2758   3.127   2.672   1.218 -0.2651  0.0521 -0.4447
  727SOL    HW1 2759   3.207   2.713   1.185  0.1116 -1.4554 -1.5840
  727SOL    HW2 2760   3.123   2.696   1.310  1.4940  0.1950 -0.3698
  728SOL     OW 2761   1.767   6.373   1.674 -0.4371 -0.1528  0.3106
  728SOL    HW1 2762   1.820   6.320   1.613 -2.9085 -2.4481 -0.0392
  728SOL    HW2 2763   1.817   6.373   1.755  1.5910  0.5546 -0.8556
  729SOL     OW 2764   6.152   6.757   9.072  0.5165  0.5685 -0.3089
  729SOL    HW1 2765   6.070   6.715   9.100  0.3640  0.9993 -0.1000
  729SOL    HW2 2766   6.151   6.751   8.977  1.2146 -1.2463 -0.2387
  730SOL     OW 2767   9.327   6.527   1.965 -0.3153  0.1335  0.6391
  730SOL    HW1 2768   9.238   6.544   1.995 -0.5190  0.0284  0.1043
  730SOL    HW2 2769   9.330   6.566   1.877  0.3362  0.6393  0.8760
  731SOL     OW 2770   5.802   8.945   6.615  0.2331  0.4780  0.3064
  731SOL    HW1 2771   5.728   8.961   6.674  1.3262  2.8886  1.1339
  731SOL    HW2 2772   5.846   9.029   6.607  0.2129  0.2918 -3.9781
  732SOL     OW 2773   4.895   2.330   8.802  0.1920 -0.3679 -0.1711
  732SOL    HW1 2774   4.934   2.316   8.716 -1.3657  0.1276 -0.9983
  732SOL    HW2 2775   4.919   2.252   8.852  1.2494 -0.5936 -0.9846
  733SOL     OW 2776   5.112   4.947   3.692 -0.0518 -0.4221  0.4060
  733SOL    HW1 2777   5.070   4.953   3.778 -1.1328 -0.5455 -0.1041
  733SOL    HW2 2778   5.040   4.946   3.630  0.7552  0.6287 -0.5751
  734SOL     OW 2779   5.097   2.467   0.365 -0.0666  0.2180 -0.4369
  734SOL    HW1 2780   5.111   2.561   0.356 -2.5378  0.5791 -1.4590
  734SOL    HW2 2781   5.116   2.448   0.457  0.1641  1.7697 -0.1375
  735SOL     OW 2782   3.185   2.313   9.721 -0.2860  0.5016 -0.1943
  735SOL    HW1 2783   3.262   2.301   9.665  0.6774  0.9738  0.9850
  735SOL    HW2 2784   3.198   2.399   9.761 -0.7534  0.0171  1.0508
  736SOL     OW 2785   2.675   2.951   5.160  0.4420 -0.3173 -0.1871
  736SOL    HW1 2786   2.642   3.032   5.200  1.9552 -0.0499  0.5902
  736SOL    HW2 2787   2.729   2.981   5.087  2.3111 -0.4944  1.0607
  737SOL     OW 2788   8.471   1.347   0.607 -0.4512 -0.4011  0.6989
  737SOL    HW1 2789   8.469   1.336   0.702 -0.3191  0.5026  0.8092
  737SOL    HW2 2790   8.425   1.429   0.591 -0.4865 -0.5567 -0.0273
  738SOL     OW 2791   5.713   5.218   1.615  0.1957 -0.0340  0.2136
  738SOL    HW1 2792   5.711   5.282   1.543  0.6734 -0.4123 -0.1447
  738SOL    HW2 2793   5.712   5.272   1.695 -0.7460  0.3750 -0.0691
  739SOL     OW 2794   0.881   3.316   7.378 -0.2098  0.0781 -0.3920
  739SOL    HW1 2795   0.967   3.303   7.417 -0.5499 -0.1441  0.2913
  739SOL    HW2 2796   0.865   3.410   7.386 -0.2677  0.0359 -0.0265
  740SOL     OW 2797   6.957   3.296   4.397  0.2149 -0.5537  0.8852
  740SOL    HW1 2798   6.885   3.251   4.441  1.2142 -1.9496  1.1574
  740SOL    HW2 2799   6.954   3.385   4.431 -0.1580 -1.1289  2.4346
  741SOL     OW 2800   8.780   7.031   3.246 -0.0884  0.0702  0.4080
  741SOL    HW1 2801   8.813   7.117   3.222 -0.3503 -0.1583 -0.8382
  741SOL    HW2 2802   8.772   6.984   3.163  0.3413 -1.2685  1.0915
  742SOL     OW 2803   5.819   3.509   6.539  0.5587 -0.1851  0.5907
  742SOL    HW1 2804   5.854   3.597   6.526  1.6383 -0.3802  2.0702
  742SOL    HW2 2805   5.734   3.523   6.581  0.0909  0.1646 -0.4137
  743SOL     OW 2806   0.528   7.944   8.219 -0.1704  0.1489 -0.0447
  743SOL    HW1 2807   0.438   7.930   8.188  0.4012 -1.8341 -0.9675
  743SOL    HW2 2808   0.517   7.988   8.304 -2.0166 -0.3489  0.0248
  744SOL     OW 2809   3.924   4.232   9.757 -0.0513 -0.2381 -0.3215
  744SOL    HW1 2810   3.983   4.184   9.815 -0.5338 -1.0498 -0.4844
  744SOL    HW2 2811   3.942   4.196   9.670 -1.4748 -1.2301 -0.2416
  745SOL     OW 2812   3.048   5.073   6.653 -0.1390  0.2938 -0.5496
  745SOL    HW1 2813   2.967   5.028   6.629 -0.5957 -0.1570  1.6467
  745SOL    HW2 2814   3.100   5.072   6.572 -1.8273 -0.4264 -1.7073
  746SOL     OW 2815   6.956   7.758   4.715 -0.1422  0.2585  0.0091
  746SOL    HW1 2816   6.878   7.812   4.702 -0.8879 -0.3789  1.5884
  746SOL    HW2 2817   6.930   7.694   4.782  1.6468 -0.1510  0.3592
  747SOL     OW 2818   8.301   0.482   5.436  0.1675 -0.1305 -0.7784
  747SOL    HW1 2819   8.384   0.441   5.462 -0.0421  0.0850  0.2699
  747SOL    HW2 2820   8.309   0.573   5.465 -0.4493 -0.1181 -0.6321
  748SOL     OW 2821   6.011   1.401   0.261  0.4768  0.0157  0.2849
  748SOL    HW1 2822   6.100   1.366   0.269 -0.2314 -2.6744 -2.1079
  748SOL    HW2 2823   6.015   1.457   0.183  0.1986  0.4556  0.5817
  749SOL     OW 2824   5.103   2.364   5.458 -0.1225  0.0215 -0.0326
  749SOL    HW1 2825   5.062   2.288   5.497 -0.7515  0.4223  0.1082
  749SOL    HW2 2826   5.036   2.432   5.461  0.0045  0.2301 -1.2813
  750SOL     OW 2827   4.610   7.766   2.093  0.6051  0.1174 -0.1668
  750SOL    HW1 2828   4.578   7.846   2.050  0.8299 -0.5310 -1.5948
  750SOL    HW2 2829   4.667   7.725   2.028  0.4261 -1.2579  0.5128
  751SOL     OW 2830   8.385   1.782   9.501  0.4957 -0.0888 -0.6896
  751SOL    HW1 2831   8.299   1.785   9.543  0.5343 -0.3667 -0.5871
  751SOL    HW2 2832   8.448   1.791   9.573  0.5775 -1.4274 -0.5750
  752SOL     OW 2833   5.429   7.717   2.280  0.2144 -0.2215 -0.5407
  752SOL    HW1 2834   5.421   7.704   2.186  2.5684 -0.4281 -0.7746
  752SOL    HW2 2835   5.420   7.629   2.317 -0.7958 -0.1295 -0.5229
  753SOL     OW 2836   5.435   7.367   5.903  0.4774 -0.3636 -0.4070
  753SOL    HW1 2837   5.423   7.284   5.856  0.8502  0.2231 -1.5648
  753SOL    HW2 2838   5.346   7.402   5.910  0.2051 -1.2416  0.8382
  754SOL     OW 2839   3.606   2.030   8.995 -0.0862  0.2649 -0.4634
  754SOL    HW1 2840   3.691   2.025   9.039  0.8479  1.1363 -2.0808
  754SOL    HW2 2841   3.623   2.003   8.905 -1.4428  0.8925 -0.9432
  755SOL     OW 2842   8.040   2.651   1.021 -0.5521 -0.3931 -0.0042
  755SOL    HW1 2843   7.996   2.585   1.075  1.2665 -0.6648  1.2206
  755SOL    HW2 2844   8.091   2.601   0.958 -0.0228 -0.1446  0.2195
  756SOL     OW 2845   8.601   1.791   0.512 -0.4567 -0.0680 -0.2206
  756SOL    HW1 2846   8.607   1.877   0.470 -1.3885 -0.5086 -1.3113
  756SOL    HW2 2847   8.516   1.791   0.556 -1.4941 -1.1729 -2.0758
  757SOL     OW 2848   1.560   3.413   0.131 -0.0662 -0.5546 -0.4249
  757SOL    HW1 2849   1.478   3.381   0.167  1.7705 -2.8550  2.1099
  757SOL    HW2 2850   1.558   3.507   0.146 -1.9012 -0.6613  0.2629
  758SOL     OW 2851   4.589   8.492   2.770 -0.3367 -0.0959 -0.5932
  758SOL    HW1 2852   4.586   8.527   2.859  1.2391 -2.8291  0.6593
  758SOL    HW2 2853   4.499   8.463   2.752 -0.5898  0.1569  0.2379
  759SOL     OW 2854   3.519   2.082   2.506 -0.2778 -0.2195  0.0943
  759SOL    HW1 2855   3.575   2.064   2.581 -0.1101 -0.2226 -0.0334
  759SOL    HW2 2856   3.569   2.143   2.452 -0.6114  0.2009  0.2449
  760SOL     OW 2857   2.741   6.493   8.078 -0.0892  0.4731 -0.2637
  760SOL    HW1 2858   2.756   6.501   8.172 -0.5499  0.3940 -0.1820
  760SOL    HW2 2859   2.647   6.508   8.068 -0.3509 -1.2143 -0.5171
  761SOL     OW 2860   4.833   4.712   0.998 -0.0846  0.5587 -0.2704
  761SOL    HW1 2861   4.860   4.640   1.055 -0.0868  0.3838 -0.4881
  761SOL    HW2 2862   4.737   4.709   1.001 -0.0855  0.4253 -0.4378
  762SOL     OW 2863   2.910   4.579   8.838 -0.4789  0.2183 -0.5717
  762SOL    HW1 2864   2.926   4.560   8.746  0.4964  2.4988 -0.9539
  762SOL    HW2 2865   2.822   4.617   8.840  0.0020  1.3731 -0.7908
  763SOL     OW 2866   0.110   0.891   1.261  0.1974 -0.2700  0.4698
  763SOL    HW1 2867   0.135   0.976   1.296 -1.6948  0.1445  0.8959
  763SOL    HW2 2868   0.068   0.845   1.334  1.3175 -1.6573  0.2905
  764SOL     OW 2869   6.568   0.387   8.002 -0.2784  0.1576  0.0624
  764SOL    HW1 2870   6.552   0.389   8.096  0.3593  0.8130  0.1672
  764SOL    HW2 2871   6.642   0.328   7.991 -0.8973 -0.5976 -0.1237
  765SOL     OW 2872   1.199   6.354   5.433  0.6686  0.5405 -0.1045
  765SOL    HW1 2873   1.207   6.377   5.525  0.8099 -0.7963  0.2282
  765SOL    HW2 2874   1.216   6.436   5.387  2.6975  0.8112  0.9886
  766SOL     OW 2875   8.857   0.215   7.871  0.1102 -0.2919 -0.0104
  766SOL    HW1 2876   8.800   0.285   7.903 -0.4902 -1.3182  1.2610
  766SOL    HW2 2877   8.939   0.226   7.920  0.4378  0.2019 -0.6551
  767SOL     OW 2878   6.209   5.338   0.880 -0.2075 -0.2017  0.3813
  767SOL    HW1 2879   6.175   5.276   0.945  1.6543 -0.6456  1.0265
  767SOL    HW2 2880   6.212   5.422   0.927  1.3758 -0.5726  1.0433
  768SOL     OW 2881   9.884   3.791   0.262 -0.0880  0.7112  0.2356
  768SOL    HW1 2882   9.929   3.875   0.251 -1.9524  1.5892 -1.5161
  768SOL    HW2 2883   9.805   3.800   0.209  0.0715 -2.5086 -0.7322
  769SOL     OW 2884   2.175   1.303   3.874  0.1614  0.3060  0.2210
  769SOL    HW1 2885   2.265   1.335   3.875  1.2941 -2.6544  0.6458
  769SOL    HW2 2886   2.149   1.307   3.781  1.7034 -1.1721 -0.3204
  770SOL     OW 2887   3.433   4.997   7.294  0.6784  0.0369 -0.4922
  770SOL    HW1 2888   3.472   5.085   7.301 -0.2933  0.5805 -1.5237
  770SOL    HW2 2889   3.413   4.988   7.201 -1.4324 -0.3002 -0.0465
  771SOL     OW 2890   3.030   1.966   6.179  0.3706  0.2480 -0.4643
  771SOL    HW1 2891   3.026   1.960   6.083  0.4111  1.4922 -0.5603
  771SOL    HW2 2892   3.104   1.911   6.203  0.3644 -0.0727 -1.1512
  772SOL     OW 2893   1.266   7.547   9.562 -0.5168  0.3887 -0.4352
  772SOL    HW1 2894   1.211   7.611   9.607 -0.8804 -0.0002 -0.3102
  772SOL    HW2 2895   1.275   7.581   9.473 -1.0461  0.4174 -0.4832
  773SOL     OW 2896   1.711   5.829   9.852 -0.1342  0.6066  0.4199
  773SOL    HW1 2897   1.688   5.843   9.943 -0.0745 -0.5443  0.6210
  773SOL    HW2 2898   1.751   5.742   9.850 -1.2037  0.1134 -0.8876
  774SOL     OW 2899   9.715   8.978   8.858  0.1457 -0.3396 -0.6520
  774SOL    HW1 2900   9.681   8.913   8.795 -0.6730  1.7309 -2.4904
  774SOL    HW2 2901   9.667   9.058   8.837  0.3051  0.6321  2.2818
  775SOL     OW 2902   1.182   6.219   0.276 -0.3264 -0.0296  0.3826
  775SOL    HW1 2903   1.238   6.270   0.218  1.8087 -2.3532  0.2142
  775SOL    HW2 2904   1.106   6.196   0.222  0.1750  0.3658 -0.5107
  776SOL     OW 2905   0.738   3.595   4.764 -0.0837  0.4764  0.2081
  776SOL    HW1 2906   0.780   3.646   4.833  2.5490  0.0841 -0.9621
  776SOL    HW2 2907   0.766   3.636   4.683 -0.6259 -0.8387 -0.6827
  777SOL     OW 2908   2.927   6.447   8.603  0.0403 -0.1551  0.3750
  777SOL    HW1 2909   3.000   6.502   8.629  0.4127 -0.8758  0.8691
  777SOL    HW2 2910   2.948   6.419   8.514  1.1821 -1.6664  1.0779
  778SOL     OW 2911   0.974   3.152   7.118 -0.3343  0.2855 -0.5409
  778SOL    HW1 2912   1.063   3.129   7.146  0.2115  2.2136 -0.5515
  778SOL    HW2 2913   0.941   3.209   7.187 -1.4526 -0.1176 -0.7206
  779SOL     OW 2914   2.536   6.425   5.407  0.2102 -0.3746  0.7272
  779SOL    HW1 2915   2.588   6.374   5.469 -0.2109 -0.3270  1.1204
  779SOL    HW2 2916   2.600   6.482   5.364  0.5411 -0.5804  0.9391
  780SOL     OW 2917   5.651   7.437   4.121  0.0056 -0.1103 -0.0274
  780SOL    HW1 2918   5.625   7.345   4.111 -0.7636  0.2142 -1.3120
  780SOL    HW2 2919   5.616   7.480   4.043  1.8245  0.9637 -0.3161
  781SOL     OW 2920   1.271   5.313   0.136  0.2411  0.0636  0.4005
  781SOL    HW1 2921   1.206   5.277   0.076  1.3972 -0.5009 -0.5398
  781SOL    HW2 2922   1.241   5.403   0.152 -0.6980 -0.1461 -0.0858
  782SOL     OW 2923   2.966   3.758   4.104 -0.4452 -0.3183 -0.9339
  782SOL    HW1 2924   2.917   3.832   4.139  1.0573  0.2448  0.0793
  782SOL    HW2 2925   3.033   3.797   4.048  0.0028 -0.9421 -0.8405
  783SOL     OW 2926   4.234   4.280   6.266 -0.1891  0.3755  0.1786
  783SOL    HW1 2927   4.269   4.193   6.249 -1.2782  0.2152 -1.5339
  783SOL    HW2 2928   4.139   4.266   6.274 -0.4092  1.4016 -0.3647
  784SOL     OW 2929   3.013   3.949   7.608  0.2405  0.3375  0.0929
  784SOL    HW1 2930   3.086   3.893   7.635  1.0444  0.6071 -1.4059
  784SOL    HW2 2931   3.041   4.038   7.632  1.0408  0.6018 -1.6349
  785SOL     OW 2932   5.323   9.353   8.999 -0.0059  0.0292  0.8724
  785SOL    HW1 2933   5.379   9.421   8.963  0.2884 -0.8841 -0.4720
  785SOL    HW2 2934   5.347   9.274   8.951 -0.9975 -0.8268  1.7246
  786SOL     OW 2935   1.238   9.170   2.865  0.1424 -0.4129 -0.3070
  786SOL    HW1 2936   1.273   9.097   2.813  0.1241  0.7871 -2.0743
  786SOL    HW2 2937   1.313   9.229   2.877 -0.0971 -0.2068  0.2261
  787SOL     OW 2938   8.583   8.278   3.984 -0.5515  0.6656  0.0185
  787SOL    HW1 2939   8.672   8.288   3.949 -1.4202 -0.7577 -2.8381
  787SOL    HW2 2940   8.557   8.190   3.959 -2.6429  0.9081  1.1623
  788SOL     OW 2941   6.619   5.305   1.921 -0.1308  0.1803 -0.5809
  788SOL    HW1 2942   6.701   5.261   1.944 -0.7742 -0.4569  0.5770
  788SOL    HW2 2943   6.598   5.272   1.834 -0.8434 -2.2542  0.4316
  789SOL     OW 2944   1.372   9.851   7.992 -0.6626 -0.2337 -0.3658
  789SOL    HW1 2945   1.461   9.845   8.027  0.3045 -2.9684 -2.8313
  789SOL    HW2 2946   1.371   9.935   7.946  0.0452  0.5733  1.0060
  790SOL     OW 2947   7.473   4.139   9.611  0.5417  0.5971  0.1164
  790SOL    HW1 2948   7.513   4.100   9.689 -0.6077  0.6595  0.7672
  790SOL    HW2 2949   7.417   4.208   9.645  0.6928  1.2218 -0.8488
  791SOL     OW 2950   7.655   8.532   6.022 -0.3791  0.1829  0.6722
  791SOL    HW1 2951   7.647   8.527   5.927  3.0313  0.2342  0.2618
  791SOL    HW2 2952   7.616   8.451   6.054  0.3956 -0.9025 -0.9935
  792SOL     OW 2953   3.923   7.202   5.187  0.0629  0.0734  0.1812
  792SOL    HW1 2954   3.968   7.213   5.104 -0.5291 -0.2275 -0.1933
  792SOL    HW2 2955   3.992   7.203   5.253  0.5788 -0.0959 -0.3502
  793SOL     OW 2956   6.172   9.121   5.367  0.2607 -0.5270 -0.0433
  793SOL    HW1 2957   6.206   9.047   5.418 -2.0868 -0.5755  1.5968
  793SOL    HW2 2958   6.204   9.199   5.414  0.0503 -0.5502  0.1406
  794SOL     OW 2959   8.555   0.372   3.269  0.3344  0.2488 -0.4551
  794SOL    HW1 2960   8.584   0.347   3.357 -0.1375 -0.3569 -0.4618
  794SOL    HW2 2961   8.534   0.289   3.226 -1.7879  0.6542 -0.3094
  795SOL     OW 2962   3.905   1.368   2.690  0.1343 -0.0045  0.2839
  795SOL    HW1 2963   3.994   1.349   2.723  1.2592  0.4696 -2.2636
  795SOL    HW2 2964   3.882   1.291   2.638  0.9476  1.5863 -2.6298
  796SOL     OW 2965   5.610   5.271   3.191  0.4560  0.1452 -0.4124
  796SOL    HW1 2966   5.666   5.214   3.243  0.0315  0.5493  0.4999
  796SOL    HW2 2967   5.522   5.258   3.227 -0.1401 -0.8026 -2.1008
  797SOL     OW 2968   0.399   8.759   8.497 -0.8714  0.0208 -0.8832
  797SOL    HW1 2969   0.308   8.739   8.522 -0.5947 -0.3890 -0.1917
  797SOL    HW2 2970   0.413   8.848   8.530 -0.0617 -1.0011  1.8004
  798SOL     OW 2971   6.570   5.151   8.717  0.3770  0.0042 -0.0360
  798SOL    HW1 2972   6.593   5.244   8.711  1.1586 -0.1438  0.5122
  798SOL    HW2 2973   6.483   5.151   8.757  0.8881  0.4717  1.1171
  799SOL     OW 2974   7.511   5.357   5.777  0.5827  0.4242 -0.4594
  799SOL    HW1 2975   7.602   5.377   5.799  1.1564 -1.2347 -1.1455
  799SOL    HW2 2976   7.518   5.292   5.707 -1.0534 -2.0448  1.4790
  800SOL     OW 2977   8.514   5.792   9.437  0.2828 -0.5221 -0.0078
  800SOL    HW1 2978   8.548   5.864   9.490  2.6581  0.1030 -2.2335
  800SOL    HW2 2979   8.499   5.830   9.351 -3.7598 -1.4386  0.0775
  801SOL     OW 2980   2.800   7.060   4.599  0.7365 -0.6196 -0.2492
  801SOL    HW1 2981   2.862   6.988   4.611  0.7234 -0.6741 -0.5178
  801SOL    HW2 2982   2.758   7.043   4.515  0.7487 -0.2876 -0.3244
  802SOL     OW 2983   7.030   8.882   7.926 -0.0361 -0.2750 -0.1771
  802SOL    HW1 2984   6.978   8.853   7.852  0.7156 -2.1234 -0.0387
  802SOL    HW2 2985   7.118   8.850   7.908  0.3936  0.1729  0.9988
  803SOL     OW 2986   1.798   0.933   7.483  0.0421 -0.0067 -0.4601
  803SOL    HW1 2987   1.823   0.850   7.522 -3.5166 -0.8760  0.3413
  803SOL    HW2 2988   1.757   0.909   7.400  1.8241  1.3216 -1.8341
  804SOL     OW 2989   0.324   7.535   8.473 -0.2334  0.4486 -0.3971
  804SOL    HW1 2990   0.349   7.518   8.382  0.8782  0.4043 -0.1064
  804SOL    HW2 2991   0.404   7.519   8.523 -0.4138  1.8852  0.4311
  805SOL     OW 2992   7.714   1.867   1.140  0.7547 -0.5519 -0.0693
  805SOL    HW1 2993   7.788   1.815   1.169  3.2001  1.0369 -2.9221
  805SOL    HW2 2994   7.723   1.951   1.185  1.4959  0.0725 -1.3163
  806SOL     OW 2995   5.179   6.213   6.717 -0.0457  0.1933 -0.3771
  806SOL    HW1 2996   5.261   6.263   6.726 -0.6886  1.2557 -0.2767
  806SOL    HW2 2997   5.126   6.241   6.791 -1.1153  0.7065 -1.3144
  807SOL     OW 2998   9.465   0.066   3.634  0.2566  0.3955  0.5046
  807SOL    HW1 2999   9.464   0.149   3.586  1.3196  0.2072  0.1508
  807SOL    HW2 3000   9.402   0.011   3.587  1.2508  0.2251 -0.6789
  808SOL     OW 3001   0.665   5.869   4.751  0.2821 -0.7123  0.0695
  808SOL    HW1 3002   0.660   5.783   4.710 -0.3116 -0.0927 -1.2078
  808SOL    HW2 3003   0.720   5.921   4.692  0.0530 -0.0086  0.4520
  809SOL     OW 3004   0.446   5.882   6.901  0.0253 -0.2045 -0.1669
  809SOL    HW1 3005   0.487   5.804   6.937  1.8029  0.1033 -1.3972
  809SOL    HW2 3006   0.419   5.856   6.813  1.6885  0.8121 -1.0428
  810SOL     OW 3007   2.566   2.741   4.193  0.3823 -0.0559 -0.1575
  810SOL    HW1 3008   2.649   2.709   4.159  0.1067 -0.7996 -0.1409
  810SOL    HW2 3009   2.563   2.711   4.284 -0.3620 -0.9375 -0.4584
  811SOL     OW 3010   4.445   0.206   3.634  0.0758  0.5965 -0.5707
  811SOL    HW1 3011   4.432   0.300   3.620  1.5697  1.0379  0.7406
  811SOL    HW2 3012   4.512   0.201   3.701 -0.7959 -1.4298  0.2160
  812SOL     OW 3013   6.877   0.890   5.650  0.2476 -0.6506  0.4493
  812SOL    HW1 3014   6.853   0.837   5.574  1.3101  0.0701 -0.4136
  812SOL    HW2 3015   6.948   0.946   5.619  0.5980 -0.2295  1.9376
  813SOL     OW 3016   4.642   6.565   7.380 -0.1889 -0.0150 -0.2966
  813SOL    HW1 3017   4.646   6.607   7.466  1.5008  0.0259 -0.3608
  813SOL    HW2 3018   4.667   6.634   7.319 -2.6858  0.3371 -1.0127
  814SOL     OW 3019   1.422   0.757   5.274  0.1406  0.1113  0.5490
  814SOL    HW1 3020   1.459   0.672   5.253  1.2825  0.9135 -0.8689
  814SOL    HW2 3021   1.426   0.763   5.369  0.0616 -1.3850  0.6630
  815SOL     OW 3022   8.236   5.670   4.306  0.1316 -0.2666  0.1774
  815SOL    HW1 3023   8.289   5.642   4.381  1.1159 -1.5257 -0.9330
  815SOL    HW2 3024   8.241   5.596   4.245 -2.2768 -0.0748 -0.3153
  816SOL     OW 3025   9.000   3.682   9.402 -0.2650  0.7971  0.2348
  816SOL    HW1 3026   8.971   3.774   9.402  0.6908  1.1152  0.7511
  816SOL    HW2 3027   9.039   3.670   9.489  0.5319  0.2075 -0.1933
  817SOL     OW 3028   3.258   2.429   8.360  0.1190 -0.5958 -0.1216
  817SOL    HW1 3029   3.228   2.508   8.406  0.2261  0.6667 -2.0760
  817SOL    HW2 3030   3.180   2.377   8.347 -0.2156 -0.1237 -0.0381
  818SOL     OW 3031   3.400   5.500   9.577 -0.3372  0.1674  0.7312
  818SOL    HW1 3032   3.324   5.558   9.582 -0.2693  0.2333  0.9954
  818SOL    HW2 3033   3.461   5.533   9.643  0.3489  0.7334 -0.1593
  819SOL     OW 3034   3.989   7.840   6.986  0.1987 -0.2943  0.4708
  819SOL    HW1 3035   4.064   7.785   7.011 -1.1888 -1.7309  1.6290
  819SOL    HW2 3036   3.993   7.844   6.890  1.8702 -0.1334  0.5174
  820SOL     OW 3037   8.044   2.419   5.626  0.2392 -0.3411 -0.5182
  820SOL    HW1 3038   7.969   2.444   5.571  0.6983 -2.6338 -2.3370
  820SOL    HW2 3039   8.115   2.402   5.563  1.6283 -0.4096  1.0039
  821SOL     OW 3040   9.563   0.649   4.785 -0.3687  0.5329 -0.9246
  821SOL    HW1 3041   9.497   0.696   4.837 -0.5132 -0.0318 -0.5945
  821SOL    HW2 3042   9.647   0.686   4.814 -0.4767  0.5346 -0.6112
  822SOL     OW 3043   2.056   0.680   0.071 -0.3958  0.4214 -0.3663
  822SOL    HW1 3044   1.996   0.605   0.070  0.3587 -0.1936 -0.6097
  822SOL    HW2 3045   2.092   0.683  -0.018  0.2245  0.5367 -0.1154
  823SOL     OW 3046   1.573   0.287   3.461  0.6971 -0.5976  0.0757
  823SOL    HW1 3047   1.530   0.372   3.472  1.2832 -0.4369  1.3581
  823SOL    HW2 3048   1.502   0.226   3.441  0.3290  0.2578 -1.3528
  824SOL     OW 3049   3.098   8.368   5.630  0.1091 -0.7255  0.6011
  824SOL    HW1 3050   3.078   8.430   5.560 -1.9247  0.2427  1.9271
  824SOL    HW2 3051   3.031   8.300   5.623  0.1810 -0.8791  1.2743
  825SOL     OW 3052   9.741   8.619   9.043  0.0956  0.6031  0.5891
  825SOL    HW1 3053   9.741   8.538   8.992 -1.5769  0.7929  0.2389
  825SOL    HW2 3054   9.686   8.601   9.119 -0.4265  1.4469  0.4291
  826SOL     OW 3055   0.398   8.068   3.734  0.2958  0.3622 -0.0899
  826SOL    HW1 3056   0.365   8.005   3.799  0.9453  1.2956  1.1820
  826SOL    HW2 3057   0.388   8.023   3.650 -0.0591 -1.1023  0.7047
  827SOL     OW 3058   1.524   4.741   5.097  0.3275  0.0020 -0.0707
  827SOL    HW1 3059   1.530   4.684   5.021 -0.1809  0.5672 -0.5447
  827SOL    HW2 3060   1.579   4.698   5.163  1.0531 -0.3112 -0.8570
  828SOL     OW 3061   1.884   5.537   9.562  0.4220  0.1512  0.3960
  828SOL    HW1 3062   1.871   5.627   9.592  0.2696  0.2919 -0.0859
  828SOL    HW2 3063   1.910   5.489   9.641  1.9353  0.9079  0.3870
  829SOL     OW 3064   3.726   1.563   1.404  0.5824  0.0254 -0.4543
  829SOL    HW1 3065   3.718   1.589   1.496 -1.6413 -0.6975 -0.3707
  829SOL    HW2 3066   3.747   1.643   1.357  1.7644  0.4003  0.6670
  830SOL     OW 3067   2.135   9.442   5.356  0.7487  0.4810 -0.3508
  830SOL    HW1 3068   2.084   9.513   5.395 -0.4261 -1.2257  1.3820
  830SOL    HW2 3069   2.074   9.369   5.350  1.8473 -0.3457 -2.3451
  831SOL     OW 3070   7.408   6.354   7.101  0.1642  0.2614  0.1356
  831SOL    HW1 3071   7.328   6.305   7.118  0.7280 -0.8531 -0.3368
  831SOL    HW2 3072   7.428   6.336   7.009  0.6259  1.0271  0.0807
  832SOL     OW 3073   4.140   5.558   9.749 -0.2902  0.9273 -0.6923
  832SOL    HW1 3074   4.169   5.641   9.787 -3.0008  1.3146  0.7457
  832SOL    HW2 3075   4.099   5.583   9.666  0.9054  0.6912 -1.3875
  833SOL     OW 3076   5.900   0.297   8.491 -0.4691  0.0934 -0.0965
  833SOL    HW1 3077   5.819   0.269   8.447  0.1442 -3.1923  0.6027
  833SOL    HW2 3078   5.961   0.313   8.419 -0.3753 -2.2457 -0.6457
  834SOL     OW 3079   1.030   2.135   8.158 -0.7364  0.1704 -0.2936
  834SOL    HW1 3080   1.074   2.219   8.147 -1.8078  0.8134  0.1517
  834SOL    HW2 3081   1.099   2.075   8.186 -0.0488  1.0192 -0.1298
  835SOL     OW 3082   7.318   2.542   3.514 -0.1043  0.4966 -0.1717
  835SOL    HW1 3083   7.363   2.601   3.574  1.0928 -0.8143  0.2450
  835SOL    HW2 3084   7.240   2.514   3.561  0.7325 -0.3793  0.7321
  836SOL     OW 3085   3.628   9.953   7.275  0.2907  0.5181 -0.2518
  836SOL    HW1 3086   3.675   9.870   7.271 -0.1080  0.3330 -2.0521
  836SOL    HW2 3087   3.539   9.930   7.302  0.4045  0.4770  0.0912
  837SOL     OW 3088   0.683   4.758   0.959 -0.1061  0.0046  0.2740
  837SOL    HW1 3089   0.728   4.841   0.947  1.2448 -0.8462 -0.7662
  837SOL    HW2 3090   0.731   4.715   1.030 -1.2350  0.3638  1.2994
  838SOL     OW 3091   1.885   7.154   1.500 -0.2513 -0.7451  0.0247
  838SOL    HW1 3092   1.801   7.127   1.462 -0.5173 -0.4213  0.3810
  838SOL    HW2 3093   1.862   7.211   1.572  0.2859 -0.3377 -0.1169
  839SOL     OW 3094   3.912   4.458   0.859 -0.0257  0.6423 -0.1542
  839SOL    HW1 3095   3.988   4.516   0.863  2.3547 -2.0739 -1.9221
  839SOL    HW2 3096   3.907   4.433   0.767  0.1675 -3.1658  0.7261
  840SOL     OW 3097   7.507   9.886   9.370  0.1926  0.0228  0.1149
  840SOL    HW1 3098   7.553   9.824   9.427 -2.9629 -1.7104  0.9833
  840SOL    HW2 3099   7.479   9.956   9.429 -1.5522 -0.8931  0.4348
  841SOL     OW 3100   5.233   0.759   2.487 -0.2953 -0.5244 -0.0457
  841SOL    HW1 3101   5.287   0.798   2.417 -1.3866 -1.3695 -1.4188
  841SOL    HW2 3102   5.177   0.831   2.516 -0.4832 -0.3951 -0.7065
  842SOL     OW 3103   2.892   6.763   5.079  0.4601 -0.5937 -0.2482
  842SOL    HW1 3104   2.924   6.745   5.167  2.4463 -0.1477 -0.8252
  842SOL    HW2 3105   2.971   6.770   5.026 -0.3522  3.2419 -1.2845
  843SOL     OW 3106   3.304   8.572   6.564 -0.0119 -0.0127  0.1077
  843SOL    HW1 3107   3.288   8.562   6.470 -1.5832  1.8193  0.1224
  843SOL    HW2 3108   3.396   8.547   6.575  0.3521  0.2149 -1.9963
  844SOL     OW 3109   5.520   5.576   6.648  0.2054 -0.0988  0.4840
  844SOL    HW1 3110   5.511   5.549   6.740  0.5821 -0.1469  0.5110
  844SOL    HW2 3111   5.438   5.621   6.628 -1.0289 -2.4220  0.0306
  845SOL     OW 3112   8.915   6.564   3.915  0.8306  0.5456 -0.2719
  845SOL    HW1 3113   8.868   6.570   3.998  0.7447 -1.4442 -0.1258
  845SOL    HW2 3114   8.847   6.575   3.848  0.5695  0.2111 -0.0662
  846SOL     OW 3115   9.530   1.820   4.794  0.1371  0.4560  0.5410
  846SOL    HW1 3116   9.561   1.738   4.833  0.8208  1.2063  1.5987
  846SOL    HW2 3117   9.492   1.869   4.867  2.9240  2.6110  0.6957
  847SOL     OW 3118   3.697   9.934   1.708 -0.2615  0.5832  0.0258
  847SOL    HW1 3119   3.717   9.921   1.615  0.1927  2.3078 -0.1679
  847SOL    HW2 3120   3.770   9.987   1.740  0.4076 -1.2919  1.7915
  848SOL     OW 3121   4.411   9.552   1.372  0.5639 -0.4930 -0.6306
  848SOL    HW1 3122   4.365   9.586   1.295  0.6865 -0.9664 -0.9138
  848SOL    HW2 3123   4.342   9.532   1.435  0.5699  3.1369  0.7824
  849SOL     OW 3124   0.745   9.499   8.851  0.3715  0.4065 -0.0579
  849SOL    HW1 3125   0.749   9.422   8.794  2.1484  0.5302 -0.1393
  849SOL    HW2 3126   0.779   9.571   8.798  1.0387  0.7452  0.7966
  850SOL     OW 3127   1.516   5.572   5.431  0.3291  0.2113  0.0150
  850SOL    HW1 3128   1.582   5.613   5.375 -0.1684  0.5199 -0.3568
  850SOL    HW2 3129   1.446   5.638   5.438 -0.4791 -0.5550 -0.5906
  851SOL     OW 3130   6.775   7.100   9.388  0.3266 -0.2719 -0.2225
  851SOL    HW1 3131   6.681   7.095   9.370  0.5770  0.1253 -1.7283
  851SOL    HW2 3132   6.786   7.050   9.469 -1.2767  0.2839  0.3896
  852SOL     OW 3133   6.823   3.446   0.283  0.1645 -0.4989 -0.3988
  852SOL    HW1 3134   6.802   3.513   0.218 -0.6266 -0.7162 -0.3770
  852SOL    HW2 3135   6.823   3.363   0.234  1.2557 -0.4827 -0.4496
  853SOL     OW 3136   5.490   2.633   4.582  0.1083  0.2138  0.4228
  853SOL    HW1 3137   5.446   2.715   4.604 -0.4444 -0.2926  1.2465
  853SOL    HW2 3138   5.555   2.658   4.517  1.7601  1.8090  2.5199
  854SOL     OW 3139   0.729   9.996   6.504  0.3570  0.3570  0.0915
  854SOL    HW1 3140   0.730   9.901   6.515 -0.4379  0.3358  0.0493
  854SOL    HW2 3141   0.707  10.030   6.590 -0.5877  0.4330 -0.1625
  855SOL     OW 3142   1.455   2.078   0.308 -0.3726  0.2422  0.4022
  855SOL    HW1 3143   1.505   2.002   0.276  0.8617  1.6862 -1.3340
  855SOL    HW2 3144   1.522   2.144   0.326 -1.4886  1.2994  0.8086
  856SOL     OW 3145   0.582   8.860   1.150  0.3601  0.3682 -0.5969
  856SOL    HW1 3146   0.637   8.862   1.228 -0.2841 -0.8294 -0.0857
  856SOL    HW2 3147   0.641   8.833   1.080  0.8987  1.2620 -0.4988
  857SOL     OW 3148   7.405   5.639   5.732  0.7990 -0.4184 -0.4703
  857SOL    HW1 3149   7.428   5.549   5.754 -0.9773 -0.4864  1.4073
  857SOL    HW2 3150   7.445   5.692   5.801  2.3194  0.3432 -1.8721
  858SOL     OW 3151   6.460   2.428   6.409  0.5631  0.0947  0.0831
  858SOL    HW1 3152   6.525   2.359   6.413  0.0132 -0.3596  2.2701
  858SOL    HW2 3153   6.395   2.396   6.346  0.8825 -0.8601  0.2229
  859SOL     OW 3154   4.247   8.608   8.806  0.0795  0.3783 -0.1127
  859SOL    HW1 3155   4.163   8.597   8.850  0.1647  0.6062  0.1128
  859SOL    HW2 3156   4.312   8.581   8.870  0.3129  2.4560  0.5929
  860SOL     OW 3157   1.250   1.950   8.191 -0.5064 -0.3202 -0.2059
  860SOL    HW1 3158   1.305   2.018   8.229 -0.5986 -0.6580  0.5571
  860SOL    HW2 3159   1.283   1.869   8.230 -0.6313 -0.6696 -0.8256
  861SOL     OW 3160   7.628   1.364   1.917  0.3177 -0.2646 -0.0994
  861SOL    HW1 3161   7.545   1.389   1.958 -0.0250 -1.3820 -0.0671
  861SOL    HW2 3162   7.685   1.440   1.930 -0.4301  0.1929  0.6425
  862SOL     OW 3163   8.934   0.999   6.393  0.1803  0.1469  0.1905
  862SOL    HW1 3164   8.943   1.094   6.403  0.7781  0.0511  0.6054
  862SOL    HW2 3165   8.841   0.982   6.409  0.4541  0.4188  2.3062
  863SOL     OW 3166   0.404   4.663   8.379 -0.9441 -0.1331 -1.0948
  863SOL    HW1 3167   0.339   4.659   8.450  0.3893 -0.0653  0.1810
  863SOL    HW2 3168   0.364   4.613   8.308 -1.1102 -2.8823  0.7395
  864SOL     OW 3169   3.249   1.579   4.036 -0.3491  0.1817  0.4017
  864SOL    HW1 3170   3.175   1.523   4.011  2.1853 -3.2400 -0.1306
  864SOL    HW2 3171   3.263   1.560   4.129  0.6021 -0.1736  0.1960
  865SOL     OW 3172   8.592   3.308   2.223  0.2384 -0.0050 -0.1970
  865SOL    HW1 3173   8.591   3.382   2.284  1.3666 -0.4833  0.4210
  865SOL    HW2 3174   8.573   3.231   2.277 -1.3329 -0.1542 -0.9051
  866SOL     OW 3175   4.161   1.250   4.220  0.1051 -0.0310  0.2790
  866SOL    HW1 3176   4.113   1.241   4.302  1.3556  0.5361  1.1100
  866SOL    HW2 3177   4.098   1.225   4.152 -0.9925 -0.3936  1.3909
  867SOL     OW 3178   8.892   5.010   5.062  0.0899  0.4868 -0.0582
  867SOL    HW1 3179   8.864   4.924   5.032  1.4819  0.4141 -1.2490
  867SOL    HW2 3180   8.952   4.993   5.134  0.3275  0.4607 -0.2616
  868SOL     OW 3181   2.529   0.599   9.226 -0.9224 -0.2457 -0.5313
  868SOL    HW1 3182   2.457   0.625   9.168 -1.5921  1.8187  1.1107
  868SOL    HW2 3183   2.583   0.678   9.235 -0.7129 -0.5550  1.4228
  869SOL     OW 3184   4.899   0.686   2.869  0.4240  0.0602  0.0319
  869SOL    HW1 3185   4.852   0.603   2.878  0.3849  0.1875  1.2562
  869SOL    HW2 3186   4.968   0.668   2.807  1.4606 -1.3970  1.5134
  870SOL     OW 3187   7.364   7.816   4.390 -0.3006  0.4454 -0.0793
  870SOL    HW1 3188   7.384   7.749   4.455 -2.3575  1.3343  1.5492
  870SOL    HW2 3189   7.270   7.808   4.374 -0.4136  2.2640 -0.5953
  871SOL     OW 3190   6.216   9.151   6.100  0.7007 -0.1356  0.2363
  871SOL    HW1 3191   6.225   9.089   6.172 -1.1270 -0.1954  0.4575
  871SOL    HW2 3192   6.240   9.100   6.022 -0.0670 -0.9147  0.4965
  872SOL     OW 3193   3.787   4.595   4.392 -0.3613  0.0402  0.1649
  872SOL    HW1 3194   3.782   4.678   4.439 -0.1458  0.1923 -0.0723
  872SOL    HW2 3195   3.824   4.619   4.306 -1.0067 -0.1886 -0.1802
  873SOL     OW 3196   4.015   5.224   6.414  0.5340  0.1137 -0.0120
  873SOL    HW1 3197   4.032   5.131   6.429 -1.4183 -0.4546 -0.9185
  873SOL    HW2 3198   4.077   5.250   6.346  1.1391 -0.5120  0.2978
  874SOL     OW 3199   0.454   3.653   8.788  0.0259  0.1431  0.3927
  874SOL    HW1 3200   0.481   3.641   8.697  2.5851  1.0296  0.9316
  874SOL    HW2 3201   0.518   3.603   8.839 -0.1790  1.2011  1.7703
  875SOL     OW 3202   9.822   4.362   6.491 -0.1733 -0.0711  0.7294
  875SOL    HW1 3203   9.795   4.272   6.473  1.3141 -0.4738  0.3088
  875SOL    HW2 3204   9.902   4.352   6.543 -0.6583  1.0357  1.7467
  876SOL     OW 3205   0.806   4.464   3.961 -0.0487  0.0919 -0.1764
  876SOL    HW1 3206   0.776   4.433   3.875 -1.3616  3.6001 -1.1156
  876SOL    HW2 3207   0.727   4.473   4.013  0.3861  0.9628  0.3515
  877SOL     OW 3208   4.125   6.837   5.083 -0.1840 -0.9128  0.3057
  877SOL    HW1 3209   4.203   6.887   5.107 -0.8806  0.6318 -0.4614
  877SOL    HW2 3210   4.156   6.748   5.072  1.0981 -0.7086  1.8748
  878SOL     OW 3211   7.817   7.399   4.337 -0.3210  0.3356  0.0296
  878SOL    HW1 3212   7.772   7.333   4.284 -0.7023  0.5297  0.1074
  878SOL    HW2 3213   7.757   7.474   4.338 -0.3936  0.2761  0.8681
  879SOL     OW 3214   6.767   4.887   4.666 -0.6285  0.4776  0.1006
  879SOL    HW1 3215   6.739   4.972   4.631 -1.0415 -0.8432 -3.1908
  879SOL    HW2 3216   6.862   4.892   4.665 -0.6311  0.7008 -0.8224
  880SOL     OW 3217   2.915   5.304   5.187 -0.1725 -0.1133 -0.1717
  880SOL    HW1 3218   2.988   5.313   5.125 -0.5665  2.0755 -0.4111
  880SOL    HW2 3219   2.842   5.350   5.144 -0.3167  1.9539  2.0641
  881SOL     OW 3220   6.974   8.274   8.236  0.1207 -0.1713 -0.1085
  881SOL    HW1 3221   7.022   8.337   8.182 -0.0228 -1.2043 -1.4940
  881SOL    HW2 3222   6.882   8.291   8.215  0.1177 -1.9679 -1.9255
  882SOL     OW 3223   1.127   5.603   1.478 -0.6972  0.3247  0.4048
  882SOL    HW1 3224   1.083   5.521   1.501 -0.9533  0.2032 -0.4909
  882SOL    HW2 3225   1.180   5.582   1.401 -0.0602  0.7863  0.7068
  883SOL     OW 3226   8.198   3.438   9.759  0.2078  0.1962  0.4587
  883SOL    HW1 3227   8.151   3.483   9.829  0.1750  0.2954  0.3721
  883SOL    HW2 3228   8.199   3.500   9.687 -1.8103 -0.7386 -0.4498
  884SOL     OW 3229   0.026   7.498   7.795  0.4055  0.5286 -0.1492
  884SOL    HW1 3230  -0.048   7.530   7.846 -1.7216 -1.4962 -1.7740
  884SOL    HW2 3231   0.092   7.476   7.861 -1.2664  0.3269  1.5520
  885SOL     OW 3232   7.105   0.645   1.875  0.7379  0.1835  0.4640
  885SOL    HW1 3233   7.129   0.677   1.789 -0.7235 -0.0388 -0.0599
  885SOL    HW2 3234   7.146   0.559   1.882  1.2380  0.3986  0.1864
  886SOL     OW 3235   7.456   9.556   7.839 -0.4044  0.5918  0.0703
  886SOL    HW1 3236   7.374   9.508   7.852 -0.1907  0.2352  0.1092
  886SOL    HW2 3237   7.504   9.545   7.921 -0.5810  1.3266  0.2809
  887SOL     OW 3238   2.963   8.162   2.881  0.1766 -0.0412  0.6075
  887SOL    HW1 3239   2.995   8.242   2.924 -0.5480 -0.0452  1.1745
  887SOL    HW2 3240   2.911   8.118   2.948 -0.8860 -0.1100 -0.2325
  888SOL     OW 3241   6.259   8.248   1.085  0.5741  0.6254  0.5016
  888SOL    HW1 3242   6.335   8.212   1.130 -0.3994 -0.5123  1.2894
  888SOL    HW2 3243   6.269   8.219   0.994  1.8924  1.8748  0.2088
  889SOL     OW 3244   9.861   3.135   7.745  0.5766  0.2202  0.0433
  889SOL    HW1 3245   9.857   3.108   7.837  0.5025  0.7623  0.2028
  889SOL    HW2 3246   9.945   3.180   7.737 -0.0585  1.4826  0.2173
  890SOL     OW 3247   4.277   1.817   2.522 -0.2164 -0.1246  0.4759
  890SOL    HW1 3248   4.260   1.911   2.510  2.1529  0.1581 -1.6048
  890SOL    HW2 3249   4.227   1.775   2.452 -0.6120 -0.3408  0.8857
  891SOL     OW 3250   4.347   9.747   6.175  0.5268 -0.1641  0.8088
  891SOL    HW1 3251   4.410   9.800   6.224  0.2632 -0.0488  1.0248
  891SOL    HW2 3252   4.321   9.679   6.237  3.2207 -2.5175 -0.3929
  892SOL     OW 3253   6.368   2.890   9.161 -0.0740 -0.2239 -0.2291
  892SOL    HW1 3254   6.400   2.955   9.223 -2.2531  1.4522 -0.7427
  892SOL    HW2 3255   6.441   2.877   9.100  1.8456 -1.3401  2.1059
  893SOL     OW 3256   3.619   2.689   0.676 -0.5154 -0.1073  0.3568
  893SOL    HW1 3257   3.558   2.718   0.608 -2.0446 -0.7489  1.3853
  893SOL    HW2 3258   3.603   2.749   0.749  0.2383 -0.1667  0.5712
  894SOL     OW 3259   2.957   6.658   2.922 -0.0333 -0.3804 -0.1117
  894SOL    HW1 3260   2.946   6.688   2.832 -0.3011  0.4411  0.1831
  894SOL    HW2 3261   2.915   6.572   2.924 -0.0412 -0.3959 -0.7665
  895SOL     OW 3262   5.569   3.124   2.953  0.1092 -0.2976  0.4142
  895SOL    HW1 3263   5.520   3.140   2.872 -0.4612 -1.6442  0.4636
  895SOL    HW2 3264   5.641   3.187   2.950 -0.5902  0.4935 -0.5468
  896SOL     OW 3265   4.918   7.249   2.716  0.2930  0.2563 -0.5201
  896SOL    HW1 3266   4.919   7.320   2.652 -2.1134  0.2266 -0.6504
  896SOL    HW2 3267   4.896   7.292   2.799  1.3778 -0.0104 -0.0629
  897SOL     OW 3268   7.848   8.345   9.242  0.2193  0.1158  0.4874
  897SOL    HW1 3269   7.812   8.406   9.307  0.0603 -0.9766  1.4494
  897SOL    HW2 3270   7.942   8.342   9.262  0.2044 -0.0607  0.5320
  898SOL     OW 3271   9.396   8.941   3.291  0.1209 -0.0581  0.1192
  898SOL    HW1 3272   9.435   8.891   3.362 -1.4283  0.3118  1.2659
  898SOL    HW2 3273   9.471   8.979   3.245  1.3626 -3.0268 -0.5757
  899SOL     OW 3274   2.355   6.017   6.376  0.2282 -0.1363  0.2176
  899SOL    HW1 3275   2.394   5.931   6.390 -0.7691 -0.9174 -1.5037
  899SOL    HW2 3276   2.261   6.003   6.383  0.0804  1.3700  2.5091
  900SOL     OW 3277   2.866   9.867   3.482 -0.0991  0.1560  0.2172
  900SOL    HW1 3278   2.773   9.867   3.502 -0.3411 -0.9838 -0.7967
  900SOL    HW2 3279   2.904   9.930   3.543 -1.5056  0.5223  0.7401
  901SOL     OW 3280   4.069   8.257   1.958 -0.0627  0.0523  0.5120
  901SOL    HW1 3281   4.155   8.220   1.978 -0.5682 -0.8757  1.0128
  901SOL    HW2 3282   4.018   8.184   1.922 -1.4091 -0.0816  2.4904
  902SOL     OW 3283   7.225   6.824   9.165  0.0926 -0.3185  1.1449
  902SOL    HW1 3284   7.282   6.899   9.180  0.4686 -0.8248  2.3230
  902SOL    HW2 3285   7.195   6.835   9.074  1.5680  0.2854  0.6923
  903SOL     OW 3286   6.391   7.915   1.967  0.0628  0.2175 -0.3661
  903SOL    HW1 3287   6.447   7.919   1.889 -0.8951 -2.7790 -1.3704
  903SOL    HW2 3288   6.354   7.826   1.965 -2.9225  1.2715  1.4807
  904SOL     OW 3289   2.737   1.924   1.428  0.1125 -0.1242 -0.0422
  904SOL    HW1 3290   2.654   1.877   1.431  0.1244 -0.1046  0.9468
  904SOL    HW2 3291   2.758   1.931   1.335 -0.6556 -0.7191 -0.2651
  905SOL     OW 3292   2.203   4.518   9.437 -0.2313  0.1768  0.3111
  905SOL    HW1 3293   2.180   4.453   9.503 -1.3379 -0.0510 -0.2753
  905SOL    HW2 3294   2.285   4.485   9.399 -2.0418 -2.3269 -1.7404
  906SOL     OW 3295   6.698   7.344   4.694 -0.7616 -0.3020 -0.1956
  906SOL    HW1 3296   6.611   7.310   4.714 -0.2871 -0.9776  0.8399
  906SOL    HW2 3297   6.738   7.278   4.638 -0.0246 -1.2590  1.3988
  907SOL     OW 3298   4.122   2.946   5.758  0.1615  0.1626 -0.0193
  907SOL    HW1 3299   4.167   2.926   5.839 -0.8868 -0.3583  0.4459
  907SOL    HW2 3300   4.088   3.035   5.771 -0.7868 -0.2642  0.4798
  908SOL     OW 3301   6.842   6.403   0.884 -0.2479  0.3096  0.0378
  908SOL    HW1 3302   6.761   6.358   0.907 -0.1584  0.9626  1.7764
  908SOL    HW2 3303   6.819   6.496   0.884  0.2677  0.4400 -0.4298
  909SOL     OW 3304   9.008   9.927   3.156  0.1321 -0.4236 -0.1520
  909SOL    HW1 3305   9.092   9.882   3.166  0.5737  0.5436  0.5328
  909SOL    HW2 3306   8.972   9.890   3.075  0.7761 -1.5282  0.0383
  910SOL     OW 3307   7.228   4.574   5.313 -0.4164  0.0636 -0.2068
  910SOL    HW1 3308   7.139   4.549   5.286 -0.1698  0.0430 -1.0230
  910SOL    HW2 3309   7.286   4.527   5.253  0.0844  1.8819 -1.2504
  911SOL     OW 3310   1.549   1.662   2.714  0.1736 -0.1036  0.0697
  911SOL    HW1 3311   1.515   1.719   2.646 -1.1792 -0.2010  0.6177
  911SOL    HW2 3312   1.595   1.592   2.667  0.6272  0.6684 -0.6552
  912SOL     OW 3313   1.153   4.590   6.006 -0.5099  0.2603 -0.2209
  912SOL    HW1 3314   1.188   4.672   6.039 -0.6039 -0.1541  0.9450
  912SOL    HW2 3315   1.220   4.558   5.945  0.3663  0.3167  0.6861
  913SOL     OW 3316   8.018   7.589   4.097 -0.0336  0.3828 -0.2041
  913SOL    HW1 3317   7.989   7.538   4.021 -2.1607  0.6098  0.4088
  913SOL    HW2 3318   7.965   7.669   4.095  0.6578  0.9045  0.9205
  914SOL     OW 3319   1.605   2.976   6.295  0.1014  0.1375 -0.2591
  914SOL    HW1 3320   1.563   3.018   6.220 -0.3843 -0.1296 -0.1464
  914SOL    HW2 3321   1.698   2.972   6.272 -0.0669 -0.1033 -0.9181
  915SOL     OW 3322   4.436   7.954   7.505 -0.1075 -0.5775  0.0469
  915SOL    HW1 3323   4.414   7.946   7.412  1.0638 -0.7740 -0.2259
  915SOL    HW2 3324   4.381   7.888   7.548 -0.0025 -1.1115 -0.6181
  916SOL     OW 3325   2.463   8.102   9.894 -0.0404  0.3281 -0.2797
  916SOL    HW1 3326   2.386   8.157   9.912 -0.2975 -0.5360  1.4577
  916SOL    HW2 3327   2.432   8.039   9.829 -0.9473 -0.2495  0.6805
  917SOL     OW 3328   8.295   5.681   7.796 -0.1555  0.7771 -0.2748
  917SOL    HW1 3329   8.297   5.589   7.771 -0.7447  0.5023  0.6353
  917SOL    HW2 3330   8.346   5.685   7.877 -1.4414  0.9712  0.5382
  918SOL     OW 3331   1.553   4.932   7.338  0.4955 -0.4042  0.1631
  918SOL    HW1 3332   1.545   5.025   7.314  1.6933  0.1635  1.7853
  918SOL    HW2 3333   1.631   4.902   7.291 -2.6224 -2.1530 -4.5833
  919SOL     OW 3334   1.783   3.175   1.738  0.0870  0.4014 -0.0532
  919SOL    HW1 3335   1.700   3.193   1.783 -0.6646 -0.9618 -0.8324
  919SOL    HW2 3336   1.770   3.210   1.650  0.1909 -0.1569 -0.2922
  920SOL     OW 3337   2.586   0.808   3.197  0.3154 -0.2724  0.5781
  920SOL    HW1 3338   2.584   0.744   3.268  3.2755 -0.8760  0.2678
  920SOL    HW2 3339   2.669   0.855   3.209 -1.3130  2.9683  0.2651
  921SOL     OW 3340   9.728   8.044   3.540 -0.2197  0.2601 -0.5024
  921SOL    HW1 3341   9.788   8.066   3.469  1.9350 -2.9690  0.0873
  921SOL    HW2 3342   9.765   8.087   3.617  1.9833 -2.1962 -0.0141
  922SOL     OW 3343   8.540   5.678   1.587  0.0301  0.2762  0.0554
  922SOL    HW1 3344   8.551   5.600   1.642  1.9663  0.4660 -0.0052
  922SOL    HW2 3345   8.503   5.645   1.505 -0.2005 -0.4103  0.4269
  923SOL     OW 3346   0.787   4.105   6.760  0.4822 -0.0620 -0.5034
  923SOL    HW1 3347   0.754   4.193   6.739  1.6235 -0.1281 -2.9223
  923SOL    HW2 3348   0.784   4.058   6.677 -0.8249 -2.6368  0.8747
  924SOL     OW 3349   8.978   3.711   1.363  0.0434 -0.4667  0.5339
  924SOL    HW1 3350   8.964   3.622   1.332 -0.9398 -1.2181  2.9469
  924SOL    HW2 3351   9.070   3.713   1.389  0.2948 -0.4839 -0.3250
  925SOL     OW 3352   3.880   1.032   0.160 -0.1159 -0.6013 -0.5294
  925SOL    HW1 3353   3.956   1.013   0.214  0.3026 -3.4332 -1.9002
  925SOL    HW2 3354   3.887   1.125   0.138  1.6666 -0.2717  1.2009
  926SOL     OW 3355   9.154   5.262   3.503  0.1950  0.0604  0.5386
  926SOL    HW1 3356   9.179   5.235   3.591  0.4179 -0.4003  0.3359
  926SOL    HW2 3357   9.137   5.180   3.457 -2.9687  0.3214  1.0283
  927SOL     OW 3358   4.530   2.246   8.299  0.5190  0.5697 -0.6123
  927SOL    HW1 3359   4.487   2.241   8.213 -1.5550  0.5794  0.3527
  927SOL    HW2 3360   4.596   2.178   8.297  0.0212  0.0919 -1.9736
  928SOL     OW 3361   9.479   7.758   3.822 -0.7330 -0.1852  0.0841
  928SOL    HW1 3362   9.549   7.702   3.789  0.4351  1.0810  0.3280
  928SOL    HW2 3363   9.436   7.791   3.743 -0.4583 -0.2466 -0.0928
  929SOL     OW 3364   1.543   7.128   6.825  0.5768  0.1589  0.7790
  929SOL    HW1 3365   1.576   7.218   6.823  2.5708 -0.5177 -0.9767
  929SOL    HW2 3366   1.614   7.076   6.789 -0.4002 -2.2041  2.0504
  930SOL     OW 3367   0.704   8.744   2.837 -0.1829 -0.0242  0.2921
  930SOL    HW1 3368   0.623   8.708   2.872 -0.6778  1.8319  1.1871
  930SOL    HW2 3369   0.765   8.742   2.911  0.8444 -2.0166 -0.5473
  931SOL     OW 3370   2.873   1.833   8.563 -0.3432  0.1490  0.2585
  931SOL    HW1 3371   2.967   1.820   8.549 -0.1361  0.0086  1.5695
  931SOL    HW2 3372   2.866   1.924   8.591 -0.3221 -0.3443  1.9978
  932SOL     OW 3373   8.092   8.781   3.777 -0.2522  0.2541  0.4320
  932SOL    HW1 3374   8.187   8.771   3.773 -0.2680  0.1019  0.4255
  932SOL    HW2 3375   8.078   8.867   3.815 -0.1145 -0.4554  2.1987
  933SOL     OW 3376   2.886   3.598   4.327 -0.6861  0.0358 -0.1362
  933SOL    HW1 3377   2.797   3.577   4.298 -0.8230 -0.1598  0.4148
  933SOL    HW2 3378   2.933   3.621   4.246 -1.3320  0.4925 -0.3818
  934SOL     OW 3379   1.663   9.314   5.211 -0.0037  0.2388  0.3805
  934SOL    HW1 3380   1.657   9.406   5.235  1.5321  1.2539 -2.6777
  934SOL    HW2 3381   1.745   9.306   5.163  0.2006 -2.8908  1.0096
  935SOL     OW 3382   7.641   3.390   7.867 -0.0999 -0.0410 -0.3501
  935SOL    HW1 3383   7.668   3.313   7.818  1.9612 -1.1313  2.2738
  935SOL    HW2 3384   7.594   3.356   7.943  0.5801  1.2921  0.7089
  936SOL     OW 3385   5.028   0.546   0.716 -0.0234  0.1001 -0.8533
  936SOL    HW1 3386   5.095   0.507   0.660 -0.6140  0.4856 -1.8506
  936SOL    HW2 3387   4.946   0.530   0.671 -0.6912 -0.8079  0.6143
  937SOL     OW 3388   3.506   9.182   7.004  0.6612 -0.2117 -0.0212
  937SOL    HW1 3389   3.566   9.116   7.038 -0.2675 -0.7630  0.5809
  937SOL    HW2 3390   3.440   9.132   6.956 -0.4197  0.1921  0.9858
  938SOL     OW 3391   2.636   2.455   4.909 -0.1328 -0.0036 -0.1425
  938SOL    HW1 3392   2.578   2.491   4.842  0.0406 -0.3494 -0.4842
  938SOL    HW2 3393   2.712   2.514   4.909 -0.6186  0.6322  0.5297
  939SOL     OW 3394   4.833   3.882   0.882  0.2215  0.7533 -0.4331
  939SOL    HW1 3395   4.925   3.889   0.858  0.4736  0.7897  0.5102
  939SOL    HW2 3396   4.807   3.794   0.852  1.0173  0.0851  0.7387
  940SOL     OW 3397   4.604   2.653   5.285  0.0931  0.4476 -0.2162
  940SOL    HW1 3398   4.663   2.714   5.241  0.6667 -0.4463 -0.7344
  940SOL    HW2 3399   4.516   2.679   5.258  0.2873  1.3786  0.0214
  941SOL     OW 3400   6.368   4.513   7.486  0.1106 -0.3788  0.0136
  941SOL    HW1 3401   6.432   4.493   7.418  1.2550 -1.6298  1.3764
  941SOL    HW2 3402   6.420   4.518   7.567 -1.1692  1.1695  0.8123
  942SOL     OW 3403   7.010   0.401   4.253 -0.3248 -0.4371  0.7004
  942SOL    HW1 3404   6.990   0.414   4.160 -0.6641 -2.0610  0.5087
  942SOL    HW2 3405   6.992   0.308   4.268  1.4918 -0.6198  1.9701
  943SOL     OW 3406   2.816   6.081   0.733 -0.0409 -0.0990  0.9741
  943SOL    HW1 3407   2.825   6.173   0.710  1.3613 -0.3642  0.3587
  943SOL    HW2 3408   2.728   6.074   0.770 -0.2759  1.4207  0.7646
  944SOL     OW 3409   8.501   7.249   6.856  0.5377  0.1088 -0.6244
  944SOL    HW1 3410   8.461   7.306   6.922  1.6102  0.9271 -0.6585
  944SOL    HW2 3411   8.448   7.169   6.858 -0.9536  1.0705 -0.5261
  945SOL     OW 3412   6.819   8.156   5.495 -0.4237  0.3374  0.3598
  945SOL    HW1 3413   6.882   8.208   5.446 -1.2888  0.2603 -0.8668
  945SOL    HW2 3414   6.759   8.220   5.533 -0.1802  0.3513  0.7302
  946SOL     OW 3415   1.922   1.925   6.372 -0.0081 -0.3166 -0.5711
  946SOL    HW1 3416   1.965   1.914   6.457 -0.2118 -1.2665 -0.5799
  946SOL    HW2 3417   1.889   2.015   6.373  2.1379  0.5239 -0.6497
  947SOL     OW 3418   9.213   1.461   0.141 -0.5360  0.1303 -0.2265
  947SOL    HW1 3419   9.280   1.434   0.204  0.1676  0.6633 -0.7355
  947SOL    HW2 3420   9.204   1.387   0.082 -2.2963 -0.9956  1.3512
  948SOL     OW 3421   0.646   1.560   1.793  0.0852 -0.1019  0.2264
  948SOL    HW1 3422   0.592   1.528   1.865  0.5046 -0.9860  0.1706
  948SOL    HW2 3423   0.708   1.620   1.834 -0.7859  0.7506  0.3207
  949SOL     OW 3424   7.134   9.675   9.461 -0.8121 -0.0224 -0.0294
  949SOL    HW1 3425   7.069   9.622   9.508 -1.8845  0.7043 -0.6462
  949SOL    HW2 3426   7.154   9.624   9.382 -2.0461  0.5597 -0.7583
  950SOL     OW 3427   6.995   5.713   6.335  0.0253 -0.1551  0.0121
  950SOL    HW1 3428   6.962   5.664   6.410 -1.2661 -1.0052 -1.0673
  950SOL    HW2 3429   7.002   5.649   6.265  2.2124  0.4032 -0.3638
  951SOL     OW 3430   9.702   0.974   0.163  0.3514 -0.2899 -0.5542
  951SOL    HW1 3431   9.668   1.046   0.215  1.1750  0.4788 -1.0486
  951SOL    HW2 3432   9.739   0.913   0.228  0.5788  0.2350 -0.1816
  952SOL     OW 3433   8.860   5.674   7.763 -0.1941  0.0947  0.8381
  952SOL    HW1 3434   8.904   5.719   7.836  1.6249 -1.9181  1.0997
  952SOL    HW2 3435   8.917   5.690   7.688 -0.3544 -0.4792  0.5955
  953SOL     OW 3436   0.663   3.869   5.148 -0.3353 -0.2832 -0.1535
  953SOL    HW1 3437   0.593   3.916   5.194  1.2511  1.8486  0.2399
  953SOL    HW2 3438   0.687   3.797   5.207 -0.2120  0.7541  1.0977
  954SOL     OW 3439   7.934   4.667   7.533 -0.1379  0.4422 -0.5634
  954SOL    HW1 3440   7.950   4.761   7.528 -0.4555  0.5153 -0.2378
  954SOL    HW2 3441   7.851   4.654   7.486 -1.7717  0.7758  2.0335
  955SOL     OW 3442   2.653   5.439   8.549 -0.4571 -0.6597  0.5549
  955SOL    HW1 3443   2.597   5.513   8.570 -0.4830 -0.6515  0.4557
  955SOL    HW2 3444   2.697   5.418   8.631 -0.2804 -0.3936  0.5302
  956SOL     OW 3445   1.950   0.662   9.057  0.1532 -0.0260  0.3883
  956SOL    HW1 3446   1.861   0.628   9.064  0.2338 -0.1408  0.9176
  956SOL    HW2 3447   1.993   0.633   9.138  1.1023 -1.2393 -0.4972
  957SOL     OW 3448   0.576   8.309   2.382 -0.0963  0.4885  0.6760
  957SOL    HW1 3449   0.606   8.249   2.449  1.6001  0.7412  0.1854
  957SOL    HW2 3450   0.543   8.253   2.311 -1.2056  0.2155  1.3835
  958SOL     OW 3451   8.774   7.842   4.951 -0.8011  0.1603  0.0061
  958SOL    HW1 3452   8.703   7.830   4.888  1.0420 -2.0571 -1.8515
  958SOL    HW2 3453   8.740   7.807   5.033 -1.3280 -2.6646 -1.2883
  959SOL     OW 3454   6.319   4.113   9.826 -0.2658  0.4174 -0.3181
  959SOL    HW1 3455   6.399   4.142   9.869  0.0179 -0.1520 -0.4457
  959SOL    HW2 3456   6.252   4.174   9.856  0.1067  0.5674  0.2260
  960SOL     OW 3457   2.341   9.858   5.043 -0.1165 -0.4246 -0.6349
  960SOL    HW1 3458   2.407   9.793   5.066  0.8529  1.2087  1.5524
  960SOL    HW2 3459   2.387   9.921   4.988 -0.0935  0.2096  0.0982
  961SOL     OW 3460   6.599   9.289   6.644 -0.7616  0.0548 -0.5349
  961SOL    HW1 3461   6.552   9.333   6.715  0.2396 -0.3828  0.4250
  961SOL    HW2 3462   6.668   9.351   6.618 -1.6557  0.5857 -1.7614
  962SOL     OW 3463   1.834   8.153   9.720  0.1156 -1.2061 -0.6408
  962SOL    HW1 3464   1.794   8.074   9.757 -0.2527  0.7516  3.7771
  962SOL    HW2 3465   1.761   8.203   9.684 -0.0508 -1.6546 -0.9335
  963SOL     OW 3466   6.759   6.079   1.960  0.8576  0.1310 -0.3876
  963SOL    HW1 3467   6.825   6.012   1.944  0.6933 -1.1967  3.4773
  963SOL    HW2 3468   6.807   6.162   1.951  2.1093 -0.6516 -1.1813
  964SOL     OW 3469   0.304   6.884   2.981 -0.3642  0.0080  0.5013
  964SOL    HW1 3470   0.386   6.875   3.031 -1.2418 -1.3332  1.7809
  964SOL    HW2 3471   0.328   6.857   2.892  0.8849  0.9427  0.5242
  965SOL     OW 3472   8.054   8.090   3.206  0.2408  0.0198  0.0303
  965SOL    HW1 3473   8.138   8.127   3.180 -1.0234  3.6871  0.5339
  965SOL    HW2 3474   8.026   8.144   3.280 -1.5430 -2.6104  1.4225
  966SOL     OW 3475   3.937   5.563   4.828  0.0273 -0.1697 -0.1923
  966SOL    HW1 3476   3.870   5.590   4.765 -0.2420 -0.9793 -0.2700
  966SOL    HW2 3477   3.899   5.487   4.872  0.4731  0.0001  0.5059
  967SOL     OW 3478   1.895   0.445   2.069  0.1436 -0.0343 -0.0561
  967SOL    HW1 3479   1.962   0.409   2.010 -0.0607  0.5995 -0.6846
  967SOL    HW2 3480   1.934   0.525   2.104  0.4349 -0.6271  1.0259
  968SOL     OW 3481   5.489   3.333   7.918 -0.1868 -0.3743 -0.2342
  968SOL    HW1 3482   5.453   3.250   7.950 -2.1817  0.3204 -0.5021
  968SOL    HW2 3483   5.583   3.318   7.911  0.0658 -1.3881  3.4014
  969SOL     OW 3484   2.286   2.316   7.172 -0.2515 -0.4955 -0.6250
  969SOL    HW1 3485   2.336   2.281   7.098 -0.7409  0.2719 -1.3292
  969SOL    HW2 3486   2.223   2.376   7.133 -1.2249 -0.8678  0.3208
  970SOL     OW 3487   5.424   5.944   7.145 -0.3418  0.4254 -0.2112
  970SOL    HW1 3488   5.355   5.877   7.141  0.6119 -0.6386  0.3598
  970SOL    HW2 3489   5.384   6.022   7.107 -1.9770 -0.0512  0.4209
  971SOL     OW 3490   6.960   5.534   7.386  0.3055 -0.2381 -0.0140
  971SOL    HW1 3491   7.016   5.537   7.464  1.5093 -2.1470 -0.7512
  971SOL    HW2 3492   6.976   5.448   7.348 -3.0434 -0.8371 -0.3619
  972SOL     OW 3493   3.325   1.910   0.405  0.1541 -0.1151 -0.5194
  972SOL    HW1 3494   3.309   1.869   0.320 -0.3124 -0.1962 -0.3970
  972SOL    HW2 3495   3.238   1.919   0.444  0.4278 -5.5960  2.5103
  973SOL     OW 3496   4.034   8.124   4.040 -0.1236 -0.0680  0.0907
  973SOL    HW1 3497   4.081   8.202   4.009  0.8670 -1.2194 -1.4644
  973SOL    HW2 3498   3.943   8.151   4.046  0.3619  1.5257  0.7427
  974SOL     OW 3499   2.297   7.359   4.863 -0.0610 -0.1122 -0.7010
  974SOL    HW1 3500   2.386   7.389   4.882  0.4391 -1.0183 -1.5219
  974SOL    HW2 3501   2.270   7.311   4.941  0.8878 -1.4023 -1.1326
  975SOL     OW 3502   5.971   8.000   4.229  0.6776 -0.1016  0.1448
  975SOL    HW1 3503   5.985   7.994   4.323 -0.5794  0.5464  0.3905
  975SOL    HW2 3504   5.918   7.924   4.207 -0.0374  0.3800  0.1746
  976SOL     OW 3505   7.836   4.472   3.606 -0.1560  0.6983  0.3162
  976SOL    HW1 3506   7.908   4.474   3.542  0.1546  0.7890  0.6663
  976SOL    HW2 3507   7.813   4.563   3.620 -1.1633  0.6208 -0.7057
  977SOL     OW 3508   9.402   9.823   8.280 -0.1025  0.6588 -0.4642
  977SOL    HW1 3509   9.369   9.851   8.365 -1.7279 -0.6598 -0.6126
  977SOL    HW2 3510   9.457   9.747   8.299  0.3896  0.9860 -0.5286
  978SOL     OW 3511   1.277   2.481   6.213  0.4041 -0.5660  0.0178
  978SOL    HW1 3512   1.318   2.446   6.293  0.6789  0.1080  0.1753
  978SOL    HW2 3513   1.201   2.530   6.245  0.4115 -0.4456 -0.1504
  979SOL     OW 3514   7.803   3.106   5.383 -0.1773  0.0574 -0.5265
  979SOL    HW1 3515   7.835   3.030   5.334 -1.4978 -1.1027  0.3452
  979SOL    HW2 3516   7.714   3.082   5.409  0.0715  1.1037  1.4392
  980SOL     OW 3517   0.564   6.733   0.381 -0.7172 -0.5935 -0.7955
  980SOL    HW1 3518   0.577   6.686   0.463 -1.2305 -0.9641 -0.9167
  980SOL    HW2 3519   0.509   6.808   0.404 -0.9699 -0.7691 -0.8165
  981SOL     OW 3520   3.747   5.653   8.518 -0.0723  0.0345  0.2592
  981SOL    HW1 3521   3.677   5.621   8.575  0.8828  1.6596  2.4885
  981SOL    HW2 3522   3.814   5.585   8.520 -0.1432 -0.0169  0.9075
  982SOL     OW 3523   9.840   4.605   4.851 -0.2545 -0.3303  0.4944
  982SOL    HW1 3524   9.792   4.647   4.779  0.6427 -0.1265 -0.0041
  982SOL    HW2 3525   9.857   4.676   4.912 -1.8966 -0.6925  1.4282
  983SOL     OW 3526   3.810   9.303   0.508 -0.1183 -0.4292 -0.3435
  983SOL    HW1 3527   3.863   9.312   0.587 -0.4441  2.5590 -0.3589
  983SOL    HW2 3528   3.725   9.273   0.540  0.2654 -0.9718  0.1956
  984SOL     OW 3529   3.766   8.439   9.601  0.1760 -0.7568  0.1648
  984SOL    HW1 3530   3.860   8.445   9.620  0.1520  2.4387 -0.2932
  984SOL    HW2 3531   3.725   8.496   9.666 -1.2209 -0.2305 -1.1324
  985SOL     OW 3532   9.374   3.427   6.647  0.0308 -0.1197 -0.4562
  985SOL    HW1 3533   9.410   3.383   6.724 -1.8353 -0.7179  0.1409
  985SOL    HW2 3534   9.296   3.376   6.625 -1.3192  1.9645 -0.7168
  986SOL     OW 3535   3.542   5.239   0.850 -0.2185 -0.2479 -0.1816
  986SOL    HW1 3536   3.470   5.186   0.885 -0.0646  0.8517  2.0145
  986SOL    HW2 3537   3.499   5.314   0.809 -0.4050  0.3750  1.0727
  987SOL     OW 3538   7.409   5.629   1.245 -0.3776 -0.3465 -0.3106
  987SOL    HW1 3539   7.428   5.678   1.165 -0.9884  0.5771  0.0989
  987SOL    HW2 3540   7.336   5.572   1.221  0.1672 -0.8922 -0.7148
  988SOL     OW 3541   8.985   4.912   9.571  0.5988  0.6531 -0.2411
  988SOL    HW1 3542   9.018   5.000   9.550  1.3523  0.3042 -0.5924
  988SOL    HW2 3543   9.014   4.896   9.661  1.5686  0.2880 -0.6007
  989SOL     OW 3544   2.660   1.992   8.407  0.6332 -0.1746  0.0740
  989SOL    HW1 3545   2.676   1.973   8.315 -0.5263 -0.6952 -0.0407
  989SOL    HW2 3546   2.707   1.924   8.455  0.8826 -0.1575 -0.1489
  990SOL     OW 3547   3.767   4.343   9.213 -0.4689  0.6759  0.2179
  990SOL    HW1 3548   3.856   4.378   9.215  0.1657 -0.8189 -0.7376
  990SOL    HW2 3549   3.741   4.346   9.121 -0.6583 -0.6746  0.2058
  991SOL     OW 3550   7.258   7.165   0.122 -0.3909 -0.4253  0.3954
  991SOL    HW1 3551   7.343   7.191   0.156  0.1035 -0.7141 -0.5880
  991SOL    HW2 3552   7.261   7.069   0.118 -0.9697 -0.4720  0.8728
  992SOL     OW 3553   0.819   3.302   5.099 -0.1536 -0.0126 -0.7659
  992SOL    HW1 3554   0.833   3.325   5.190  1.6058 -2.7852 -0.1957
  992SOL    HW2 3555   0.900   3.329   5.054  0.2930 -1.3763 -0.8344
  993SOL     OW 3556   3.318   7.564   4.953 -0.1383 -0.4019 -0.2466
  993SOL    HW1 3557   3.319   7.640   4.895 -0.2550 -0.0903  0.1469
  993SOL    HW2 3558   3.405   7.525   4.944  1.1600  1.6747  1.9544
  994SOL     OW 3559   8.843   6.807   3.663 -0.3967 -0.4851  0.0241
  994SOL    HW1 3560   8.911   6.825   3.728 -0.8717 -0.0063  0.4074
  994SOL    HW2 3561   8.875   6.847   3.582  0.4586 -1.5775 -0.1971
  995SOL     OW 3562   3.851   9.881   4.030  0.3762  0.1140 -0.2616
  995SOL    HW1 3563   3.835   9.966   4.070 -2.0168 -1.2648  2.0523
  995SOL    HW2 3564   3.807   9.885   3.945 -3.7347 -0.0720  1.6199
  996SOL     OW 3565   7.149   6.388   2.537  0.1360  0.4525  0.2108
  996SOL    HW1 3566   7.102   6.439   2.471  0.0818 -1.0972 -0.9930
  996SOL    HW2 3567   7.105   6.304   2.539  0.7596  0.1259  1.5320
  997SOL     OW 3568   6.787   6.384   7.030  0.9182  0.4267  0.0319
  997SOL    HW1 3569   6.824   6.302   7.064  0.8179  0.2669 -0.2351
  997SOL    HW2 3570   6.710   6.356   6.979 -0.2234  0.8408  1.4789
  998SOL     OW 3571   1.562   9.326   7.354 -0.1370 -0.9499 -0.1474
  998SOL    HW1 3572   1.570   9.242   7.399 -0.2111 -0.9325 -0.1024
  998SOL    HW2 3573   1.631   9.380   7.392  0.7732 -1.4042 -1.1015
  999SOL     OW 3574   2.136   0.095   4.907  0.1830  0.3824 -0.2226
  999SOL    HW1 3575   2.219   0.089   4.860  0.5437  1.3628  0.2690
  999SOL    HW2 3576   2.120   0.007   4.939  1.3829  0.3325  0.2757
 1000SOL     OW 3577   8.155   9.724   9.193  0.2138  0.4473  0.4691
 1000SOL    HW1 3578   8.251   9.729   9.200  0.2759  2.2696 -1.0164
 1000SOL    HW2 3579   8.126   9.815   9.194 -1.4284 -0.0373 -0.1184
 1001SOL     OW 3580   6.291   6.328   9.433 -0.6501 -0.5819  0.2770
 1001SOL    HW1 3581   6.357   6.260   9.446  0.2671 -0.3212 -2.4813
 1001SOL    HW2 3582   6.335   6.410   9.456 -0.2632 -0.5012 -0.7031
 1002SOL     OW 3583   0.307   5.729   2.773 -0.2273  0.1740  0.2613
 1002SOL    HW1 3584   0.389   5.683   2.790 -0.5416 -0.8850 -0.9368
 1002SOL    HW2 3585   0.290   5.778   2.853  0.6951 -0.9401  1.1718
 1003SOL     OW 3586   6.321   1.653   4.754  0.3144 -0.3179  0.2129
 1003SOL    HW1 3587   6.226   1.656   4.748  0.4220  2.4506 -3.5887
 1003SOL    HW2 3588   6.348   1.596   4.682  1.5170  0.8261 -0.2958
 1004SOL     OW 3589   4.077   7.328   2.140 -0.1734 -0.2405 -0.3146
 1004SOL    HW1 3590   4.157   7.349   2.188 -0.1132  2.0191 -1.3194
 1004SOL    HW2 3591   4.080   7.233   2.130  3.1546 -0.1168 -1.6365
 1005SOL     OW 3592   1.801   8.168   1.787 -0.4990 -0.4011 -0.7147
 1005SOL    HW1 3593   1.875   8.196   1.841 -1.6015  0.4110  0.4435
 1005SOL    HW2 3594   1.821   8.202   1.700 -0.3986  1.5444  0.0031
 1006SOL     OW 3595   1.127   5.549   8.296 -0.5755 -0.2800  0.1570
 1006SOL    HW1 3596   1.209   5.599   8.303 -1.6063  1.3982  0.7105
 1006SOL    HW2 3597   1.096   5.566   8.207 -0.6855 -0.3439  0.1828
 1007SOL     OW 3598   1.404   9.193   8.332 -0.0310 -0.5268  0.2515
 1007SOL    HW1 3599   1.328   9.137   8.316  0.1081 -1.0140  1.2402
 1007SOL    HW2 3600   1.369   9.271   8.373  0.0342 -0.9431  1.1246
 1008SOL     OW 3601   2.762   0.075   2.099 -0.0633 -0.2257 -0.6249
 1008SOL    HW1 3602   2.799   0.065   2.012  0.1896 -1.5592 -0.3837
 1008SOL    HW2 3603   2.799   0.157   2.132 -0.7111  0.6703 -2.0170
 1009SOL     OW 3604   1.483   1.887   4.011 -0.0756  0.9251 -0.3895
 1009SOL    HW1 3605   1.530   1.947   3.954 -0.4328  1.2633 -0.3305
 1009SOL    HW2 3606   1.427   1.943   4.064  0.2503  0.6148  0.2952
 1010SOL     OW 3607   1.223   2.904   5.624  0.3138  0.4115 -0.3579
 1010SOL    HW1 3608   1.303   2.900   5.573 -0.1597 -0.5032 -1.0533
 1010SOL    HW2 3609   1.160   2.949   5.568 -0.0980 -0.2522 -0.4448
 1011SOL     OW 3610   4.388   5.780   9.141  0.1648 -0.6340  0.0327
 1011SOL    HW1 3611   4.396   5.856   9.083  0.4879 -0.5648  0.1663
 1011SOL    HW2 3612   4.301   5.746   9.124  0.2948 -0.6753 -0.5745
 1012SOL     OW 3613   6.453   2.172   1.789  0.4784 -0.4841  0.2848
 1012SOL    HW1 3614   6.415   2.244   1.739  1.2604 -1.0193 -1.1344
 1012SOL    HW2 3615   6.382   2.108   1.797  1.0665 -1.6592 -2.6940
 1013SOL     OW 3616   3.222   7.668   1.799 -0.2789  0.2897 -0.3715
 1013SOL    HW1 3617   3.236   7.659   1.705  0.6542  2.3733 -0.4851
 1013SOL    HW2 3618   3.231   7.579   1.833  1.5797 -0.2251 -2.0054
 1014SOL     OW 3619   9.978   0.420   2.273 -0.7519  0.4684  0.2914
 1014SOL    HW1 3620   9.997   0.375   2.355 -1.4352 -0.9962 -0.3158
 1014SOL    HW2 3621   9.893   0.385   2.246 -0.4374  0.7516 -1.1475
 1015SOL     OW 3622   6.452   1.328   1.152  0.1751 -0.2070  0.6740
 1015SOL    HW1 3623   6.506   1.393   1.197 -0.7245  1.9237 -1.1157
 1015SOL    HW2 3624   6.503   1.301   1.076 -0.3160  0.0878  0.2273
 1016SOL     OW 3625   2.978   7.439   9.108 -0.0402 -0.1251  0.6362
 1016SOL    HW1 3626   2.981   7.505   9.177 -1.5088  0.0937  0.5112
 1016SOL    HW2 3627   2.913   7.471   9.046  1.0677 -0.4393 -0.7469
 1017SOL     OW 3628   7.340   4.920   4.588 -0.3484  0.3725  0.0406
 1017SOL    HW1 3629   7.370   5.009   4.575 -1.5655  1.1669  2.1316
 1017SOL    HW2 3630   7.404   4.881   4.647 -0.0485 -0.0125 -0.5317
 1018SOL     OW 3631   8.941   9.662   3.950 -0.0462  0.0865  0.1098
 1018SOL    HW1 3632   9.012   9.725   3.937  0.5840  0.1654  3.0850
 1018SOL    HW2 3633   8.861   9.715   3.953  0.1356  0.3824 -0.2174
 1019SOL     OW 3634   9.156   7.041   8.971 -0.0439 -0.2693 -0.0890
 1019SOL    HW1 3635   9.102   6.974   9.011 -1.3590  0.2716 -0.8716
 1019SOL    HW2 3636   9.247   7.014   8.988 -0.5450 -2.0363 -0.1018
 1020SOL     OW 3637   5.658   8.073   9.652  0.1856 -0.0563 -0.0233
 1020SOL    HW1 3638   5.690   8.110   9.734  0.5179  0.2833 -0.3039
 1020SOL    HW2 3639   5.683   8.137   9.585  0.3948 -0.5886 -0.4598
 1021SOL     OW 3640   3.726   8.802   4.419  0.0005  0.1595 -0.1645
 1021SOL    HW1 3641   3.772   8.795   4.503  1.1734 -2.3659 -0.9216
 1021SOL    HW2 3642   3.794   8.828   4.356 -0.1936 -0.8198 -0.8048
 1022SOL     OW 3643   4.137   4.600   5.416 -0.8630  0.1877  0.5212
 1022SOL    HW1 3644   4.056   4.641   5.446 -1.3064  0.1435 -0.5920
 1022SOL    HW2 3645   4.181   4.573   5.497 -2.1102 -0.0998  1.1302
 1023SOL     OW 3646   6.406   5.878   6.834 -0.3167 -0.3749 -0.1969
 1023SOL    HW1 3647   6.419   5.916   6.747  1.6920 -0.2958  0.0907
 1023SOL    HW2 3648   6.390   5.953   6.891 -0.4905 -0.3347 -0.2967
 1024SOL     OW 3649   2.267   8.318   2.766  0.4981 -0.4432  0.3063
 1024SOL    HW1 3650   2.197   8.295   2.828  0.5413 -0.4601  0.3494
 1024SOL    HW2 3651   2.222   8.361   2.694  0.4975  0.0042  0.5676
 1025SOL     OW 3652   9.771   2.372   1.925  1.0604 -0.4232 -1.2439
 1025SOL    HW1 3653   9.836   2.407   1.986  0.9838 -2.0806 -0.1540
 1025SOL    HW2 3654   9.715   2.447   1.905  1.2795  0.2539  0.4861
 1026SOL     OW 3655   8.614   3.134   7.343 -0.6263  0.4625 -0.0916
 1026SOL    HW1 3656   8.638   3.221   7.311 -3.2764  1.6735  0.8574
 1026SOL    HW2 3657   8.596   3.083   7.264 -1.3813  1.5692 -0.6639
 1027SOL     OW 3658   4.509   5.936   8.676 -0.0563 -0.2494 -0.1636
 1027SOL    HW1 3659   4.490   5.851   8.639  0.4299 -0.1148 -0.7378
 1027SOL    HW2 3660   4.605   5.941   8.677 -0.0691 -0.0259  0.5911
 1028SOL     OW 3661   8.914   5.174   2.408  0.1578 -0.1825  0.0486
 1028SOL    HW1 3662   8.983   5.234   2.435  0.1265  0.5815 -1.4453
 1028SOL    HW2 3663   8.883   5.134   2.489  1.7160  0.1441  0.8366
 1029SOL     OW 3664   5.868   2.255   1.777 -0.7489 -0.3501 -0.4167
 1029SOL    HW1 3665   5.960   2.236   1.759 -0.4914 -0.5457  0.9411
 1029SOL    HW2 3666   5.822   2.176   1.748 -0.4062 -0.5329 -0.4737
 1030SOL     OW 3667   5.679   7.051   5.071  0.2294  0.1768  0.0700
 1030SOL    HW1 3668   5.660   6.970   5.023 -0.1345  0.7990 -0.8545
 1030SOL    HW2 3669   5.610   7.111   5.045 -1.1189 -0.0178  2.8276
 1031SOL     OW 3670   8.381   0.582   9.286 -0.1624  0.7494 -0.3329
 1031SOL    HW1 3671   8.344   0.654   9.234 -0.1884  1.4551  0.6278
 1031SOL    HW2 3672   8.394   0.620   9.373  1.9957  0.2716 -0.3890
 1032SOL     OW 3673   7.374   9.110   2.949  0.1363 -0.4515  0.3029
 1032SOL    HW1 3674   7.285   9.079   2.934  0.2028 -0.4396 -0.1198
 1032SOL    HW2 3675   7.391   9.171   2.877 -0.5405  1.7981  1.9130
 1033SOL     OW 3676   5.631   0.225   1.154  0.1150 -0.3977 -0.6251
 1033SOL    HW1 3677   5.603   0.313   1.180  3.0462  0.2139  0.8771
 1033SOL    HW2 3678   5.559   0.169   1.183 -1.1572  1.3321 -0.1983
 1034SOL     OW 3679   5.943   2.882   8.745 -0.1783 -0.0993  0.0227
 1034SOL    HW1 3680   5.928   2.903   8.837 -0.3940 -0.8419  0.1578
 1034SOL    HW2 3681   6.019   2.823   8.746  0.8351  1.1530 -0.4076
 1035SOL     OW 3682   6.492   4.802   8.138 -0.2165  0.2907  0.0154
 1035SOL    HW1 3683   6.471   4.893   8.117  1.1969  0.8070  0.6668
 1035SOL    HW2 3684   6.409   4.763   8.164 -0.8529  1.3894 -0.3115
 1036SOL     OW 3685   2.625   5.353   1.912 -0.3941 -0.2255  0.0489
 1036SOL    HW1 3686   2.674   5.422   1.956  2.3135 -0.9590 -1.5241
 1036SOL    HW2 3687   2.562   5.399   1.857 -1.3895  0.7822  1.9353
 1037SOL     OW 3688   2.576   5.789   0.981  0.2514 -0.3159  0.7040
 1037SOL    HW1 3689   2.525   5.717   1.020 -1.5608 -1.7031 -3.6019
 1037SOL    HW2 3690   2.652   5.746   0.943 -1.7143 -0.5716 -3.4479
 1038SOL     OW 3691   2.484   2.607   1.452  0.2156 -0.3017  0.3793
 1038SOL    HW1 3692   2.433   2.611   1.372 -0.1494 -1.6862  0.5301
 1038SOL    HW2 3693   2.525   2.520   1.451 -0.1322 -0.5118  1.8858
 1039SOL     OW 3694   4.286   3.896   2.208  0.2449 -0.4107  0.1799
 1039SOL    HW1 3695   4.256   3.983   2.183 -1.1802 -1.0819 -0.5848
 1039SOL    HW2 3696   4.257   3.839   2.136 -0.0202 -1.7135  1.2743
 1040SOL     OW 3697   2.047   8.757   8.365 -0.2938 -0.4641  0.0312
 1040SOL    HW1 3698   2.097   8.718   8.437 -2.5548 -0.2231  1.8268
 1040SOL    HW2 3699   2.003   8.682   8.324  1.1250 -0.6253 -1.3149
 1041SOL     OW 3700   4.468   5.144   3.261 -0.2061 -0.1295  0.0660
 1041SOL    HW1 3701   4.457   5.206   3.188  1.4456  1.2169  0.8928
 1041SOL    HW2 3702   4.408   5.072   3.240  0.8334 -0.2233 -3.0717
 1042SOL     OW 3703   5.920   1.389   0.861  0.0262  0.0702 -0.6176
 1042SOL    HW1 3704   6.000   1.353   0.900 -1.1062 -2.5802 -0.4766
 1042SOL    HW2 3705   5.922   1.359   0.770 -0.3790  0.7368 -0.8493
 1043SOL     OW 3706   7.264   1.699   9.159 -0.2840 -0.1105  0.1451
 1043SOL    HW1 3707   7.184   1.673   9.114 -1.3859  1.1086  1.3263
 1043SOL    HW2 3708   7.235   1.732   9.244  1.5029  0.1066  0.7214
 1044SOL     OW 3709   4.718   4.796   8.591 -0.7303  0.1524 -0.1420
 1044SOL    HW1 3710   4.677   4.835   8.668 -0.6123  1.2235 -0.6046
 1044SOL    HW2 3711   4.812   4.804   8.607 -0.6894 -0.8313  0.1862
 1045SOL     OW 3712   0.864   6.183   7.837 -0.4850  0.2181  0.1425
 1045SOL    HW1 3713   0.863   6.150   7.747 -0.8058  0.7379 -0.0489
 1045SOL    HW2 3714   0.952   6.217   7.849  0.6315 -2.6444  1.0800
 1046SOL     OW 3715   5.023   0.921   2.583  0.1713  0.1717 -0.8311
 1046SOL    HW1 3716   4.989   1.009   2.569 -2.2411 -0.2583  1.3735
 1046SOL    HW2 3717   5.054   0.921   2.674  0.1346 -1.2226 -0.7930
 1047SOL     OW 3718   7.849   0.184   0.421  0.3329 -0.1805  0.0678
 1047SOL    HW1 3719   7.894   0.251   0.471 -2.7675  1.4607  0.9259
 1047SOL    HW2 3720   7.758   0.189   0.451 -1.2762 -0.6352 -4.1005
 1048SOL     OW 3721   7.325   1.942   2.713  0.2476 -0.2092 -0.0269
 1048SOL    HW1 3722   7.286   1.945   2.800 -0.2753 -2.1653 -0.1617
 1048SOL    HW2 3723   7.399   1.882   2.722  0.4937 -0.0434 -0.8323
 1049SOL     OW 3724   2.052   2.172   9.244  0.4786  0.1364 -0.0834
 1049SOL    HW1 3725   2.139   2.157   9.206  0.0097 -1.3371 -0.6305
 1049SOL    HW2 3726   2.060   2.142   9.335  0.5129 -0.0727 -0.1557
 1050SOL     OW 3727   3.134   6.403   8.134 -0.4255  0.8615 -0.1696
 1050SOL    HW1 3728   3.197   6.463   8.094 -1.1704  1.6770 -0.1414
 1050SOL    HW2 3729   3.066   6.391   8.067 -0.9522  1.1056  0.3130
 1051SOL     OW 3730   6.982   6.570   9.933  0.2660 -0.0826  0.3726
 1051SOL    HW1 3731   7.044   6.640   9.914 -0.7500  1.8400  3.3640
 1051SOL    HW2 3732   6.983   6.563  10.029 -1.5854 -2.4143  0.3156
 1052SOL     OW 3733   0.365   6.389   8.130  0.4035 -0.1837  0.1765
 1052SOL    HW1 3734   0.439   6.420   8.182  0.3541 -1.0355  0.7767
 1052SOL    HW2 3735   0.315   6.468   8.110  0.1964  0.1119  1.7715
 1053SOL     OW 3736   8.552   5.199   1.810  0.0425  0.0026 -0.2027
 1053SOL    HW1 3737   8.558   5.134   1.740 -0.0458 -0.0327 -0.1774
 1053SOL    HW2 3738   8.607   5.272   1.780  0.6933 -0.3623  0.0721
 1054SOL     OW 3739   2.601   0.624   3.418  0.1476  0.1256  0.3130
 1054SOL    HW1 3740   2.519   0.625   3.469 -1.3239  0.2935 -1.9340
 1054SOL    HW2 3741   2.670   0.629   3.485 -1.5841 -1.6947  2.4112
 1055SOL     OW 3742   4.980   1.984   1.020 -0.1999  0.1708  0.5933
 1055SOL    HW1 3743   4.921   2.004   1.092 -1.6899  2.3986 -1.0849
 1055SOL    HW2 3744   4.969   1.891   1.005 -0.7410 -0.1026  2.4456
 1056SOL     OW 3745   9.256   9.451   1.415 -0.3149 -0.3557 -0.0505
 1056SOL    HW1 3746   9.316   9.467   1.343  0.1747  1.4186  0.7034
 1056SOL    HW2 3747   9.312   9.424   1.488 -0.3735  1.2611  0.6440
 1057SOL     OW 3748   5.290   1.096   1.807  0.1077  0.2456  0.1198
 1057SOL    HW1 3749   5.217   1.148   1.776 -0.9638 -0.6913  1.0049
 1057SOL    HW2 3750   5.317   1.137   1.889 -1.1509 -0.9042  1.1511
 1058SOL     OW 3751   6.868   7.951   8.916  0.3876 -0.0524  0.0154
 1058SOL    HW1 3752   6.907   7.984   8.996 -1.8754  1.1640  0.7122
 1058SOL    HW2 3753   6.774   7.955   8.932 -0.1207 -3.7331 -1.1804
 1059SOL     OW 3754   3.842   8.229   2.650  0.2901 -0.2367  0.0487
 1059SOL    HW1 3755   3.789   8.153   2.627 -0.5020  0.4124 -0.3351
 1059SOL    HW2 3756   3.803   8.261   2.732 -1.5404  1.6641 -1.4544
 1060SOL     OW 3757   0.147   5.653   6.837  0.1212 -0.6197 -0.2299
 1060SOL    HW1 3758   0.142   5.584   6.771  1.1553  1.0593 -2.1912
 1060SOL    HW2 3759   0.236   5.687   6.830 -0.4127  1.0638  0.4689
 1061SOL     OW 3760   8.011   4.884   7.211 -0.0819 -0.0151 -0.1798
 1061SOL    HW1 3761   8.027   4.960   7.267 -0.0659 -0.1022 -0.0633
 1061SOL    HW2 3762   7.916   4.871   7.216 -0.0422 -0.2253  0.1009
 1062SOL     OW 3763   5.316   6.324   7.308  0.3605 -0.1972 -0.0887
 1062SOL    HW1 3764   5.241   6.270   7.333  0.3302 -0.8670 -1.5090
 1062SOL    HW2 3765   5.337   6.375   7.386 -0.4132 -1.3450  0.8889
 1063SOL     OW 3766   1.598   0.674   3.976 -0.1066  0.1628  0.1555
 1063SOL    HW1 3767   1.659   0.629   4.034  1.0760  1.8725  0.3250
 1063SOL    HW2 3768   1.538   0.606   3.945  1.4367 -1.4405  0.5708
 1064SOL     OW 3769   3.460   2.319   9.386  0.3748 -0.0887 -0.0151
 1064SOL    HW1 3770   3.482   2.402   9.428 -0.2828  1.1320 -1.9700
 1064SOL    HW2 3771   3.531   2.304   9.324  0.9594 -1.4932  0.9369
 1065SOL     OW 3772   6.199   1.432   5.123 -0.1178 -0.3694 -0.1963
 1065SOL    HW1 3773   6.245   1.420   5.206 -1.5806  1.5838  0.9881
 1065SOL    HW2 3774   6.267   1.451   5.060  0.8845  0.3821  1.0602
 1066SOL     OW 3775   2.127   6.083   8.334  0.3292 -0.2417  0.0065
 1066SOL    HW1 3776   2.138   6.117   8.423  0.5967  1.1150 -0.5338
 1066SOL    HW2 3777   2.048   6.126   8.301  0.8245  0.0761 -0.7913
 1067SOL     OW 3778   1.890   3.514   1.014 -0.2338  0.3587 -0.1575
 1067SOL    HW1 3779   1.884   3.610   1.007  0.3785  0.3493 -0.8716
 1067SOL    HW2 3780   1.932   3.499   1.099  0.4220  0.7555 -0.4022
 1068SOL     OW 3781   1.943   6.708   1.832 -0.5612  0.4682  0.1920
 1068SOL    HW1 3782   1.848   6.707   1.826 -0.5622 -1.6647 -0.1420
 1068SOL    HW2 3783   1.970   6.779   1.773 -1.9044  0.3548 -0.5949
 1069SOL     OW 3784   8.293   8.040   0.446  0.1586 -0.1121 -0.4520
 1069SOL    HW1 3785   8.301   7.958   0.398  1.1900  0.2304 -0.8860
 1069SOL    HW2 3786   8.366   8.094   0.415  1.9874 -0.4879  2.7184
 1070SOL     OW 3787   5.421   8.219   3.700 -0.4036 -0.9751  0.0499
 1070SOL    HW1 3788   5.378   8.250   3.620  2.6543  0.3754 -1.2288
 1070SOL    HW2 3789   5.432   8.125   3.686 -0.7101 -0.9007 -0.7227
 1071SOL     OW 3790   0.126   1.189   7.417 -0.1138  0.2057 -0.4473
 1071SOL    HW1 3791   0.151   1.274   7.381  0.0688  0.7692  0.9338
 1071SOL    HW2 3792   0.199   1.131   7.396  0.4239  0.7652 -0.1543
 1072SOL     OW 3793   8.359   2.515   3.481 -0.2241  0.0884 -0.3517
 1072SOL    HW1 3794   8.314   2.584   3.432  0.6625  0.2518 -0.9484
 1072SOL    HW2 3795   8.288   2.460   3.515 -0.8603 -0.2237 -2.1081
 1073SOL     OW 3796   4.231   4.487   5.881  0.3954  0.1692  0.7457
 1073SOL    HW1 3797   4.230   4.559   5.817  0.3212 -0.3826  0.1157
 1073SOL    HW2 3798   4.157   4.431   5.855 -0.2226  0.4287  1.8964
 1074SOL     OW 3799   7.781   3.874   8.647 -0.1112 -0.0351 -0.0875
 1074SOL    HW1 3800   7.699   3.922   8.630  0.5499  1.5775  1.0976
 1074SOL    HW2 3801   7.810   3.905   8.733  0.4478 -2.4874  0.6646
 1075SOL     OW 3802   9.431   6.811   1.297 -0.6821  0.8836  0.2274
 1075SOL    HW1 3803   9.443   6.810   1.202 -1.7155  2.1029  0.0574
 1075SOL    HW2 3804   9.440   6.719   1.323  0.4181  0.6342 -0.9211
 1076SOL     OW 3805   1.830   3.874   1.934 -0.3934 -0.0974 -0.1422
 1076SOL    HW1 3806   1.808   3.937   2.003 -0.2833  0.9343 -1.0302
 1076SOL    HW2 3807   1.748   3.862   1.886 -0.2154 -0.0072 -0.4706
 1077SOL     OW 3808   1.297   7.262   2.064  0.5069  0.2420 -0.0001
 1077SOL    HW1 3809   1.296   7.180   2.015  0.1727 -0.6126  1.3708
 1077SOL    HW2 3810   1.386   7.296   2.053  1.6068 -1.8388  1.7923
 1078SOL     OW 3811   5.730   9.834   0.949  0.1607  0.1708 -0.1229
 1078SOL    HW1 3812   5.710   9.786   1.030  0.5521 -0.5405 -0.4398
 1078SOL    HW2 3813   5.823   9.854   0.955  0.1100  0.4434 -0.2310
 1079SOL     OW 3814   1.361   1.981   0.910 -0.2365 -0.0666 -0.0433
 1079SOL    HW1 3815   1.415   2.051   0.947  0.7459 -0.1959 -1.1928
 1079SOL    HW2 3816   1.418   1.904   0.909  0.2656  0.2283 -2.9898
 1080SOL     OW 3817   1.383   5.911   0.676 -0.2459 -0.3841  0.3234
 1080SOL    HW1 3818   1.430   5.835   0.641 -0.2691 -0.5880  0.7398
 1080SOL    HW2 3819   1.444   5.951   0.737 -0.1092  0.1263 -0.1372
 1081SOL     OW 3820   3.554   8.960   7.663  0.1738  0.2877 -0.0766
 1081SOL    HW1 3821   3.592   8.898   7.601 -1.1537 -0.6259 -0.0249
 1081SOL    HW2 3822   3.581   8.929   7.749 -0.4420 -0.2137 -0.0540
 1082SOL     OW 3823   0.542   8.846   7.223  0.6157  0.3295  0.1580
 1082SOL    HW1 3824   0.497   8.919   7.179  1.6858  1.0018  0.1403
 1082SOL    HW2 3825   0.494   8.835   7.305  0.3218  0.9378  0.0759
 1083SOL     OW 3826   7.671   4.749   3.008  0.6007  0.6152 -0.0932
 1083SOL    HW1 3827   7.639   4.661   2.988 -0.3185  0.6776  0.9664
 1083SOL    HW2 3828   7.677   4.792   2.923 -0.5558  0.0540 -0.4931
 1084SOL     OW 3829   6.707   6.475   1.666 -0.1259 -0.6006  0.5016
 1084SOL    HW1 3830   6.644   6.536   1.628  0.9851 -0.8473 -1.9061
 1084SOL    HW2 3831   6.653   6.410   1.712 -1.4660  0.4955  0.5551
 1085SOL     OW 3832   4.836   7.299   8.309 -0.2888  0.3746  0.2666
 1085SOL    HW1 3833   4.829   7.288   8.214  0.8459  0.3129  0.1778
 1085SOL    HW2 3834   4.930   7.295   8.326 -0.4563  0.9113  1.3347
 1086SOL     OW 3835   9.714   9.687   3.443 -0.5200 -0.0532 -0.0433
 1086SOL    HW1 3836   9.795   9.737   3.457 -0.4535 -0.4182  0.9605
 1086SOL    HW2 3837   9.666   9.696   3.525 -2.4021  1.7217 -1.2301
 1087SOL     OW 3838   4.980   6.350   3.498  0.1233 -0.6365  0.7327
 1087SOL    HW1 3839   4.958   6.295   3.573 -1.0871 -1.2176 -0.0035
 1087SOL    HW2 3840   4.965   6.293   3.422 -0.7851  0.5734 -0.0340
 1088SOL     OW 3841   6.165   4.533   4.779  0.4697  0.4895 -0.0704
 1088SOL    HW1 3842   6.127   4.497   4.859  1.2756  0.7585  0.4467
 1088SOL    HW2 3843   6.225   4.464   4.748 -0.6498 -0.0768 -1.0684
 1089SOL     OW 3844   2.986   6.100   4.282  0.2886  0.2787 -0.4303
 1089SOL    HW1 3845   2.988   6.139   4.194  0.4613 -0.8741 -0.9620
 1089SOL    HW2 3846   2.894   6.077   4.295  0.3408  0.0106 -0.5213
 1090SOL     OW 3847   8.486   0.870   7.118 -0.1052 -0.4966  0.5803
 1090SOL    HW1 3848   8.502   0.964   7.120 -0.7317 -0.3348 -0.6286
 1090SOL    HW2 3849   8.573   0.831   7.121  0.1550  0.1084  1.2464
 1091SOL     OW 3850   1.501   6.456   5.892  0.3848  0.7647  0.0249
 1091SOL    HW1 3851   1.417   6.412   5.878  1.7843 -1.9839 -0.4330
 1091SOL    HW2 3852   1.514   6.507   5.812 -0.4070  0.4173 -0.3429
 1092SOL     OW 3853   9.676  -0.002   0.442 -0.2849 -0.1017  0.0614
 1092SOL    HW1 3854   9.756  -0.020   0.392  0.0968 -0.7581  0.8821
 1092SOL    HW2 3855   9.688   0.087   0.476  0.5895 -0.5734  1.0534
 1093SOL     OW 3856   1.730   3.879   3.301  0.0939 -0.3879 -0.0864
 1093SOL    HW1 3857   1.643   3.860   3.265  0.4034 -1.1239 -0.4558
 1093SOL    HW2 3858   1.749   3.969   3.273 -0.3731 -0.3665 -0.3397
 1094SOL     OW 3859   0.248   8.337   0.662  0.0913  0.4058  0.0328
 1094SOL    HW1 3860   0.291   8.367   0.582  0.1995 -1.1182 -0.5154
 1094SOL    HW2 3861   0.267   8.405   0.726 -0.0507  1.6955 -1.2454
 1095SOL     OW 3862   0.337   2.556   5.582  0.2023 -0.0786  0.2438
 1095SOL    HW1 3863   0.283   2.635   5.579  1.5655  0.9536  1.0876
 1095SOL    HW2 3864   0.413   2.577   5.526 -0.2447 -1.5018 -0.9579
 1096SOL     OW 3865   8.565   1.980   4.887  0.3502  0.2087  0.4188
 1096SOL    HW1 3866   8.609   2.037   4.824 -1.4820 -0.4903 -1.6475
 1096SOL    HW2 3867   8.600   1.892   4.869 -0.3955 -0.0388  0.1274
 1097SOL     OW 3868   4.815   6.193   3.675  0.1335  0.6530 -0.4037
 1097SOL    HW1 3869   4.770   6.117   3.639 -0.0279  1.3715 -1.7827
 1097SOL    HW2 3870   4.857   6.161   3.755 -1.8221 -0.3383  0.2927
 1098SOL     OW 3871   8.071   1.155   2.283 -0.0862  0.0438  0.3230
 1098SOL    HW1 3872   8.029   1.239   2.264 -0.6783 -0.6308 -1.5351
 1098SOL    HW2 3873   8.000   1.091   2.275  0.4686 -0.7090  1.2260
 1099SOL     OW 3874   0.224   9.945   7.375  0.1189 -0.1723  0.2882
 1099SOL    HW1 3875   0.134   9.942   7.409  0.7485 -0.0290  2.0360
 1099SOL    HW2 3876   0.223   9.886   7.300 -1.4701 -0.0576  0.1798
 1100SOL     OW 3877   3.672   1.659   3.680  0.3564 -0.0257 -0.1503
 1100SOL    HW1 3878   3.650   1.691   3.767  2.7279  1.1462  0.0997
 1100SOL    HW2 3879   3.716   1.733   3.637  0.5208 -1.0244 -1.8153
 1101SOL     OW 3880   6.397   8.757   4.764 -0.2263  0.3379  0.4024
 1101SOL    HW1 3881   6.338   8.688   4.734  0.3531  0.0994 -0.2317
 1101SOL    HW2 3882   6.351   8.838   4.744  0.4617  0.2348 -2.0527
 1102SOL     OW 3883   6.449   2.060   2.181  0.4713 -0.7881  0.6403
 1102SOL    HW1 3884   6.374   2.089   2.233  0.0766 -0.7532  0.0641
 1102SOL    HW2 3885   6.461   1.968   2.204 -0.3845 -1.0749  0.0027
 1103SOL     OW 3886   7.101   9.840   0.234  0.1174  0.2019 -0.1956
 1103SOL    HW1 3887   7.177   9.790   0.204 -0.0566  0.2774 -0.7747
 1103SOL    HW2 3888   7.105   9.921   0.184  0.0852  0.5331  0.3368
 1104SOL     OW 3889   6.053   7.475   1.350  0.1387 -0.0314  0.0046
 1104SOL    HW1 3890   6.110   7.405   1.381  0.3273 -0.1231 -0.5353
 1104SOL    HW2 3891   6.051   7.464   1.255 -0.7712 -0.0162  0.0138
 1105SOL     OW 3892   0.608   8.569   3.649  0.0342 -0.3149  0.1178
 1105SOL    HW1 3893   0.554   8.647   3.645 -1.7560 -1.2072  3.3103
 1105SOL    HW2 3894   0.553   8.499   3.615  1.6196 -0.3245 -2.7152
 1106SOL     OW 3895   6.254   5.911   7.358 -0.3188 -0.4896  0.1285
 1106SOL    HW1 3896   6.245   5.821   7.326  1.9086 -1.3955  1.8247
 1106SOL    HW2 3897   6.171   5.953   7.333 -1.9236 -3.3037  0.2693
 1107SOL     OW 3898   7.819   4.875   9.816  0.0357 -0.2133 -0.1483
 1107SOL    HW1 3899   7.746   4.898   9.759  0.1407 -0.0195 -0.2050
 1107SOL    HW2 3900   7.792   4.792   9.857  0.4563 -0.9920 -1.3849
 1108SOL     OW 3901   7.904   4.877   1.080  0.1466  0.0065 -0.5963
 1108SOL    HW1 3902   7.999   4.887   1.078  0.3951 -1.4139  1.2829
 1108SOL    HW2 3903   7.871   4.966   1.096  1.0724  0.6272 -1.9354
 1109SOL     OW 3904   1.004   0.434   2.530  0.2965  0.3749 -0.0196
 1109SOL    HW1 3905   1.046   0.518   2.547 -1.2465  1.1734  0.0143
 1109SOL    HW2 3906   0.969   0.442   2.441 -0.6036  0.0929  0.3009
 1110SOL     OW 3907   2.876   0.449   5.819 -0.1605  0.3852 -0.6714
 1110SOL    HW1 3908   2.825   0.503   5.758 -0.8783  0.5653  0.0705
 1110SOL    HW2 3909   2.871   0.361   5.784 -1.4220  0.3127 -0.3485
 1111SOL     OW 3910   9.698   3.045   2.633 -0.0820 -0.1170  0.4654
 1111SOL    HW1 3911   9.749   3.074   2.708 -0.1418 -0.9001  0.8243
 1111SOL    HW2 3912   9.632   3.113   2.621  0.9722  0.8733  0.0429
 1112SOL     OW 3913   0.173   4.602   9.742 -0.0364  0.2116  0.1577
 1112SOL    HW1 3914   0.216   4.679   9.779 -2.0786  0.8147  1.4195
 1112SOL    HW2 3915   0.135   4.633   9.660  2.0723 -0.4094 -1.1422
 1113SOL     OW 3916   4.045   6.711   3.438 -0.4120  0.0729 -0.0014
 1113SOL    HW1 3917   4.072   6.767   3.365  0.2294  0.0136  0.1780
 1113SOL    HW2 3918   4.125   6.699   3.490 -0.7179 -0.3812  0.3808
 1114SOL     OW 3919   7.837   2.561   5.527  0.2080 -0.3135 -0.2630
 1114SOL    HW1 3920   7.766   2.563   5.591  0.5304  2.6823  0.1262
 1114SOL    HW2 3921   7.801   2.602   5.449  1.1883  0.3078 -0.4053
 1115SOL     OW 3922   3.715   3.783   3.300 -0.0937 -0.1756 -0.2216
 1115SOL    HW1 3923   3.778   3.831   3.246 -1.0704 -0.7681 -1.9631
 1115SOL    HW2 3924   3.743   3.800   3.390  3.2334 -1.3308 -0.8895
 1116SOL     OW 3925   2.120   3.876   3.317  0.2679 -0.5730 -0.6132
 1116SOL    HW1 3926   2.098   3.963   3.285  2.0126  0.6633  1.2608
 1116SOL    HW2 3927   2.204   3.855   3.276  0.6579 -0.6168  0.1724
 1117SOL     OW 3928   1.330   8.337   4.434 -0.1414 -0.0148  0.3238
 1117SOL    HW1 3929   1.402   8.326   4.496  0.6029 -1.2896 -0.7110
 1117SOL    HW2 3930   1.348   8.273   4.365 -1.7586  0.3044 -0.4430
 1118SOL     OW 3931   7.804   6.804   2.069 -0.7519 -0.2907 -0.3479
 1118SOL    HW1 3932   7.717   6.775   2.095 -0.7798 -1.4119 -1.5700
 1118SOL    HW2 3933   7.821   6.758   1.987  0.7749  0.3275 -0.4163
 1119SOL     OW 3934   1.178   2.546   0.617 -0.0714 -0.1298  0.2197
 1119SOL    HW1 3935   1.225   2.580   0.693 -1.6127  0.2225  1.0441
 1119SOL    HW2 3936   1.243   2.492   0.571  1.3483  0.9213  0.8944
 1120SOL     OW 3937   0.402   4.934   7.711 -0.5301  0.4101  0.1126
 1120SOL    HW1 3938   0.473   4.909   7.770 -2.1039 -0.4715  1.7163
 1120SOL    HW2 3939   0.345   4.990   7.763 -0.5319  1.9583 -1.4599
 1121SOL     OW 3940   1.913   6.911   2.799 -0.0106 -0.1162  0.6510
 1121SOL    HW1 3941   1.992   6.955   2.768 -1.1530  0.9031 -1.0010
 1121SOL    HW2 3942   1.944   6.844   2.860  2.0923  0.3650  0.1606
 1122SOL     OW 3943   1.458   2.130   6.788 -0.5054  0.0471  0.2511
 1122SOL    HW1 3944   1.406   2.067   6.839 -1.5435  0.7772  0.1389
 1122SOL    HW2 3945   1.458   2.209   6.841  0.8523 -0.0429  0.4214
 1123SOL     OW 3946   8.659   6.388   2.829  0.1621 -0.5032 -0.2257
 1123SOL    HW1 3947   8.598   6.460   2.813  0.6899 -0.1722 -0.8056
 1123SOL    HW2 3948   8.683   6.396   2.921  0.2066  0.0578 -0.2857
 1124SOL     OW 3949   0.604   2.190   3.380  0.3490  0.5755 -0.4161
 1124SOL    HW1 3950   0.637   2.266   3.332 -0.5150  0.0657 -1.9180
 1124SOL    HW2 3951   0.677   2.129   3.383  0.0956  0.1142 -2.2594
 1125SOL     OW 3952   6.285   5.640   5.506  0.3184 -0.2880 -0.1797
 1125SOL    HW1 3953   6.258   5.730   5.523  0.2329 -0.2164 -0.6858
 1125SOL    HW2 3954   6.204   5.594   5.484  0.2549 -0.6572  0.7478
 1126SOL     OW 3955   5.773   9.488   4.573  0.0582  0.6639 -0.2737
 1126SOL    HW1 3956   5.683   9.493   4.543 -0.2737  0.3746  0.6296
 1126SOL    HW2 3957   5.779   9.557   4.640  0.6987  1.1197 -0.7834
 1127SOL     OW 3958   1.636   0.838   3.109  0.1456  0.2217 -0.2469
 1127SOL    HW1 3959   1.590   0.890   3.175  0.3562  0.0810  0.0120
 1127SOL    HW2 3960   1.684   0.773   3.160  0.3780  0.1686 -0.5372
 1128SOL     OW 3961   3.456   5.016   1.297  0.6009 -0.1894  0.5053
 1128SOL    HW1 3962   3.500   5.100   1.280  1.0429 -0.3017  1.0524
 1128SOL    HW2 3963   3.364   5.032   1.276  0.8607  0.1209 -0.4352
 1129SOL     OW 3964   6.023   1.745   5.693  0.0797 -0.2685 -0.1559
 1129SOL    HW1 3965   6.090   1.791   5.641 -0.3090  0.7286  0.1885
 1129SOL    HW2 3966   6.005   1.805   5.765 -1.1518 -0.5571 -0.2146
 1130SOL     OW 3967   1.105   9.346   1.536  0.0885 -0.0995  0.1158
 1130SOL    HW1 3968   1.057   9.377   1.612  1.4746  1.0799  0.5337
 1130SOL    HW2 3969   1.167   9.415   1.515  0.8786 -1.1060 -1.0813
 1131SOL     OW 3970   1.846   9.779   3.708 -0.4233 -0.6488  0.0351
 1131SOL    HW1 3971   1.838   9.848   3.773  1.0941 -1.3442  1.0150
 1131SOL    HW2 3972   1.927   9.798   3.662  0.3053 -2.0282  0.6795
 1132SOL     OW 3973   0.724   7.996   6.243 -1.1218  0.3607 -0.1326
 1132SOL    HW1 3974   0.810   7.967   6.214 -0.8641  1.3659 -0.4056
 1132SOL    HW2 3975   0.706   8.074   6.191 -0.6032  2.3061  2.4058
 1133SOL     OW 3976   2.793   6.497   1.956 -0.1409  0.5904  0.0027
 1133SOL    HW1 3977   2.746   6.417   1.938  0.2360  0.5431 -0.7891
 1133SOL    HW2 3978   2.725   6.562   1.974 -0.4465  0.1146  0.5991
 1134SOL     OW 3979   1.834   1.653   5.805  0.3749 -0.0925 -0.0249
 1134SOL    HW1 3980   1.779   1.580   5.775  0.7858  0.4045 -2.1407
 1134SOL    HW2 3981   1.773   1.727   5.814  0.1710 -0.3584  0.8978
 1135SOL     OW 3982   9.168   3.417   3.099 -0.1492 -0.1794  1.1754
 1135SOL    HW1 3983   9.175   3.461   3.183 -0.4256  1.5012  0.3484
 1135SOL    HW2 3984   9.178   3.324   3.120  1.3773  0.3128  2.8520
 1136SOL     OW 3985   5.231   8.529   2.893 -0.6887 -0.2917  0.1739
 1136SOL    HW1 3986   5.195   8.528   2.804  1.3921 -1.1473 -0.7264
 1136SOL    HW2 3987   5.160   8.496   2.948 -1.7573 -0.5330 -1.2849
 1137SOL     OW 3988   8.857   3.071   1.767  0.2842 -0.1055 -0.0121
 1137SOL    HW1 3989   8.848   3.166   1.768 -2.0889 -0.2629  0.4201
 1137SOL    HW2 3990   8.808   3.043   1.689  1.3309 -0.9655 -0.3858
 1138SOL     OW 3991   4.982   4.209   4.501  0.0798 -0.2389 -0.1273
 1138SOL    HW1 3992   4.901   4.254   4.524 -1.5148 -2.8582 -0.1752
 1138SOL    HW2 3993   4.992   4.226   4.407  1.0552  2.1710  0.3486
 1139SOL     OW 3994   3.701   9.679   3.144 -0.3610  0.1762 -0.0652
 1139SOL    HW1 3995   3.757   9.745   3.185 -1.4582  1.0518  0.1047
 1139SOL    HW2 3996   3.618   9.685   3.192 -0.3168 -1.7573  0.3442
 1140SOL     OW 3997   3.581   0.518   3.037  0.3344 -0.5031  0.1267
 1140SOL    HW1 3998   3.625   0.574   3.100  3.6866  0.7001 -2.9261
 1140SOL    HW2 3999   3.627   0.434   3.043 -0.1668 -0.7864  0.0965
 1141SOL     OW 4000   3.730   0.383   1.047 -0.3750  0.1000  0.0174
 1141SOL    HW1 4001   3.820   0.393   1.016 -0.8192  1.1890 -1.0049
 1141SOL    HW2 4002   3.677   0.426   0.979 -1.6696 -0.6337  0.5387
 1142SOL     OW 4003   3.554   4.958   6.167  0.0220 -0.1723  0.2410
 1142SOL    HW1 4004   3.645   4.971   6.194 -0.2555  1.5114  0.4877
 1142SOL    HW2 4005   3.528   5.043   6.131 -1.0202 -1.0532 -1.1579
 1143SOL     OW 4006   9.146   8.165   9.273 -0.9375  0.5405 -0.2475
 1143SOL    HW1 4007   9.191   8.081   9.277  0.9974  1.5290  0.4039
 1143SOL    HW2 4008   9.140   8.185   9.180 -3.2289 -1.1628 -0.5404
 1144SOL     OW 4009   5.248   0.178   4.161 -0.4131 -0.1261  0.0322
 1144SOL    HW1 4010   5.250   0.149   4.252  1.9402  1.8570  0.6958
 1144SOL    HW2 4011   5.291   0.263   4.162  1.4062 -0.8668 -3.2258
 1145SOL     OW 4012   7.755   7.875   6.686 -0.2515 -0.1258 -0.1100
 1145SOL    HW1 4013   7.669   7.840   6.664  0.2083 -0.8261 -0.8840
 1145SOL    HW2 4014   7.815   7.801   6.672  0.5179  0.4524  0.0574
 1146SOL     OW 4015   4.368   8.295   7.361 -0.9955  0.7772 -0.0309
 1146SOL    HW1 4016   4.331   8.244   7.289 -2.4685  1.5123  0.1429
 1146SOL    HW2 4017   4.296   8.302   7.424  0.7986 -1.5598  2.5402
 1147SOL     OW 4018   7.317   2.809   7.607 -0.3588 -0.3704 -0.4649
 1147SOL    HW1 4019   7.337   2.744   7.675 -0.5341  0.8700  0.8232
 1147SOL    HW2 4020   7.221   2.815   7.608 -0.3625 -0.3591 -0.8503
 1148SOL     OW 4021   7.602   3.868   7.138  0.4892  0.2105 -0.4429
 1148SOL    HW1 4022   7.657   3.934   7.179  0.7003 -0.7483  0.9099
 1148SOL    HW2 4023   7.640   3.855   7.051  2.8365 -0.8509  0.6532
 1149SOL     OW 4024   6.602   3.436   6.624  0.2011 -0.0324 -0.0535
 1149SOL    HW1 4025   6.650   3.507   6.582  0.8045 -0.5328 -0.2218
 1149SOL    HW2 4026   6.633   3.357   6.581 -0.2756 -0.4263  0.3078
 1150SOL     OW 4027   9.411   2.900   5.201  0.0922  0.1762 -0.2841
 1150SOL    HW1 4028   9.448   2.929   5.118  2.1052  1.7415  1.0520
 1150SOL    HW2 4029   9.463   2.824   5.226  0.9688  1.0104  0.5214
 1151SOL     OW 4030   7.195   6.153   0.949  0.6600  0.4473  0.6496
 1151SOL    HW1 4031   7.172   6.063   0.927 -0.5724  0.7026  0.8474
 1151SOL    HW2 4032   7.194   6.156   1.044  0.1188  0.8126  0.6351
 1152SOL     OW 4033   0.496   1.574   9.562 -0.4943 -0.4752  0.1189
 1152SOL    HW1 4034   0.467   1.487   9.534 -0.2656 -0.5889  0.2334
 1152SOL    HW2 4035   0.527   1.561   9.652 -2.4530  0.1376  0.9357
 1153SOL     OW 4036   5.055   7.973   6.285 -0.3281  0.4716  0.2762
 1153SOL    HW1 4037   5.000   7.895   6.298  1.2696 -0.6127  0.7362
 1153SOL    HW2 4038   5.143   7.938   6.269  0.3389  2.1844  0.0248
 1154SOL     OW 4039   8.666   0.200   5.683  0.1538  0.1192 -0.2263
 1154SOL    HW1 4040   8.611   0.226   5.610 -1.4942  0.3426  1.0390
 1154SOL    HW2 4041   8.629   0.117   5.714  1.7462 -0.7593 -0.5437
 1155SOL     OW 4042   8.738   4.471   1.868 -0.0757 -0.8684 -0.5115
 1155SOL    HW1 4043   8.734   4.565   1.883 -1.0358 -0.6504 -1.9273
 1155SOL    HW2 4044   8.818   4.459   1.816  1.8216 -1.3017  2.2645
 1156SOL     OW 4045   8.225   7.418   7.678 -0.5127  0.0236  0.4181
 1156SOL    HW1 4046   8.258   7.456   7.760  0.1351 -0.0174  0.1829
 1156SOL    HW2 4047   8.303   7.383   7.634 -0.6246  1.2501 -0.8471
 1157SOL     OW 4048   1.420   6.278   1.982 -0.0548  0.1650 -0.4963
 1157SOL    HW1 4049   1.444   6.371   1.982  2.1365 -0.3165  1.6006
 1157SOL    HW2 4050   1.354   6.271   1.913  1.5924  2.7909 -2.5656
 1158SOL     OW 4051   8.419   3.647   3.146  0.5822  0.9371  0.4911
 1158SOL    HW1 4052   8.499   3.688   3.178 -0.3683  1.8845  1.7900
 1158SOL    HW2 4053   8.349   3.688   3.198 -0.7971  0.5607 -0.9890
 1159SOL     OW 4054   9.351   6.462   3.622  0.6054 -0.1043 -0.0333
 1159SOL    HW1 4055   9.331   6.397   3.689  0.7063 -2.0216 -1.7834
 1159SOL    HW2 4056   9.291   6.442   3.550 -0.2753  2.5930 -0.1809
 1160SOL     OW 4057   2.246   2.554   0.546 -0.0677 -0.8658 -0.9836
 1160SOL    HW1 4058   2.233   2.644   0.515 -4.0168 -0.4294  1.2251
 1160SOL    HW2 4059   2.210   2.554   0.634  1.6151 -4.2456 -0.1392
 1161SOL     OW 4060   1.351   6.261   2.361 -0.1377  0.2522 -0.0935
 1161SOL    HW1 4061   1.288   6.227   2.425 -0.4609  1.7273  0.4250
 1161SOL    HW2 4062   1.402   6.326   2.410  1.0581 -0.1251 -0.8008
 1162SOL     OW 4063   0.503   1.594   0.843  0.5052 -0.0819  0.0608
 1162SOL    HW1 4064   0.595   1.573   0.852  0.3664 -0.9232 -0.3871
 1162SOL    HW2 4065   0.457   1.512   0.863 -0.0120 -0.5459 -2.6287
 1163SOL     OW 4066   1.139   2.007   1.059  0.0017  0.6940 -0.3941
 1163SOL    HW1 4067   1.196   2.048   1.125  0.2794  1.8889 -1.3362
 1163SOL    HW2 4068   1.196   1.993   0.984 -0.2760 -0.8015 -0.3435
 1164SOL     OW 4069   7.986   4.285   0.737  0.3026  0.5196 -0.3386
 1164SOL    HW1 4070   7.946   4.358   0.785  2.4231  2.0245 -0.7017
 1164SOL    HW2 4071   8.057   4.256   0.795  1.4311  0.8364 -1.5179
 1165SOL     OW 4072   1.472   3.337   6.091  0.2861 -0.0002  0.7147
 1165SOL    HW1 4073   1.425   3.368   6.169  0.1211 -1.4416  1.2220
 1165SOL    HW2 4074   1.455   3.243   6.089  2.4351 -0.4240  0.4047
 1166SOL     OW 4075   7.922   3.506   1.241 -0.0298  0.1661  0.0944
 1166SOL    HW1 4076   7.972   3.437   1.198 -1.0698 -1.7439  1.8164
 1166SOL    HW2 4077   7.831   3.490   1.217 -0.4453  0.0612  1.6071
 1167SOL     OW 4078   0.333   8.121   9.752 -0.1690 -0.7846  0.0255
 1167SOL    HW1 4079   0.384   8.080   9.822 -0.8725 -1.8945 -0.0931
 1167SOL    HW2 4080   0.247   8.080   9.758 -0.3565 -0.6181 -1.2483
 1168SOL     OW 4081   0.697   9.397   6.697 -0.2683  0.2043  0.2541
 1168SOL    HW1 4082   0.677   9.432   6.611 -2.2833 -0.1145  0.5448
 1168SOL    HW2 4083   0.621   9.344   6.720  0.2242  0.2714  2.2236
 1169SOL     OW 4084   5.267   1.609   5.535  0.2594  0.1081 -0.8463
 1169SOL    HW1 4085   5.202   1.541   5.517  0.7133 -0.0868 -1.8422
 1169SOL    HW2 4086   5.328   1.604   5.461  0.7845  1.0245 -0.4956
 1170SOL     OW 4087   6.239   4.070   5.218 -0.1206  0.0961 -0.1711
 1170SOL    HW1 4088   6.268   4.019   5.143 -0.3306  1.4553 -1.2257
 1170SOL    HW2 4089   6.188   4.009   5.271 -0.8638 -0.6465 -1.6733
 1171SOL     OW 4090   2.937   4.342   8.605 -0.3882 -0.1807 -0.2633
 1171SOL    HW1 4091   2.972   4.396   8.535 -1.6060  0.5045 -0.3713
 1171SOL    HW2 4092   2.906   4.263   8.560  1.0911 -0.8725 -0.1459
 1172SOL     OW 4093   3.464   0.457   5.465 -0.2684  0.2766  0.5939
 1172SOL    HW1 4094   3.536   0.462   5.528 -0.6524  1.4189  0.9569
 1172SOL    HW2 4095   3.425   0.370   5.480  1.7714 -0.8889 -0.4673
 1173SOL     OW 4096   9.969   6.599   3.795 -0.0474 -0.2509  0.3442
 1173SOL    HW1 4097   9.939   6.680   3.755 -2.1075 -0.7444  0.7500
 1173SOL    HW2 4098   9.995   6.624   3.884 -2.2255 -0.2388  1.0198
 1174SOL     OW 4099   0.981   5.759   7.532  0.3450 -0.0143 -0.1734
 1174SOL    HW1 4100   0.974   5.665   7.545  2.6974 -0.1597  0.5946
 1174SOL    HW2 4101   0.950   5.774   7.442 -0.7282 -1.3823 -0.0615
 1175SOL     OW 4102   5.875   6.965   7.240 -0.2657  0.5292 -0.2268
 1175SOL    HW1 4103   5.967   6.978   7.263 -0.2115 -0.2941  0.0580
 1175SOL    HW2 4104   5.839   7.053   7.235 -0.0305  0.7950  2.0120
 1176SOL     OW 4105   4.430   9.098   7.821 -1.1785  0.5769  0.0212
 1176SOL    HW1 4106   4.453   9.079   7.730  0.0459 -0.3104  0.4889
 1176SOL    HW2 4107   4.337   9.075   7.827 -0.9641 -0.5757 -0.6943
 1177SOL     OW 4108   7.977   6.721   3.239 -0.0587  0.1332  0.4809
 1177SOL    HW1 4109   8.013   6.637   3.212 -0.7172 -0.8463  2.4608
 1177SOL    HW2 4110   7.891   6.726   3.196 -0.2065 -0.4175  0.7092
 1178SOL     OW 4111   3.918   6.216   1.779  0.0526 -0.2770 -0.3564
 1178SOL    HW1 4112   3.924   6.151   1.709 -0.3094  0.6541 -1.2838
 1178SOL    HW2 4113   3.861   6.284   1.744  0.7325  0.7359  0.4245
 1179SOL     OW 4114   5.168   1.221   5.192  0.7288 -0.1016 -0.2649
 1179SOL    HW1 4115   5.127   1.165   5.126  0.8534 -0.7255  0.1726
 1179SOL    HW2 4116   5.261   1.218   5.172  0.6851  0.3570 -0.5420
 1180SOL     OW 4117   1.785   6.658   1.449 -0.3634  0.7306  0.1112
 1180SOL    HW1 4118   1.754   6.738   1.493  1.6373  1.2761  0.6186
 1180SOL    HW2 4119   1.876   6.677   1.426 -0.2596 -0.9200 -1.0035
 1181SOL     OW 4120   5.960   0.499   7.467 -0.1541 -0.0025  0.2157
 1181SOL    HW1 4121   5.956   0.414   7.424 -1.9989 -0.8151  1.8297
 1181SOL    HW2 4122   6.048   0.505   7.503 -0.2745 -1.6736  0.8612
 1182SOL     OW 4123   8.048   6.518   7.290 -0.7170  0.3667  0.0926
 1182SOL    HW1 4124   8.070   6.453   7.224 -0.0468 -0.1060  0.7629
 1182SOL    HW2 4125   8.052   6.471   7.373 -3.3655  0.4990  0.3624
 1183SOL     OW 4126   0.444   4.656   0.896  0.5831  0.2353 -0.8075
 1183SOL    HW1 4127   0.515   4.717   0.915 -0.3778  1.1220  0.0820
 1183SOL    HW2 4128   0.487   4.573   0.879  1.7634  0.4220  1.0616
 1184SOL     OW 4129   1.995   0.095   0.888 -0.1817  0.2563 -0.0722
 1184SOL    HW1 4130   1.980   0.006   0.919 -1.3216 -0.0175 -1.2652
 1184SOL    HW2 4131   1.909   0.123   0.856  0.4862  1.2066 -1.1171
 1185SOL     OW 4132   9.832   1.068   9.733 -0.0853  0.0403 -0.5305
 1185SOL    HW1 4133   9.871   1.083   9.646  0.3293  0.4613 -0.2764
 1185SOL    HW2 4134   9.806   1.155   9.762  0.4953  0.0104  0.1050
 1186SOL     OW 4135   9.323   4.738   3.891 -0.1401 -0.6831 -0.2245
 1186SOL    HW1 4136   9.243   4.705   3.932 -1.5222  1.6745 -0.8693
 1186SOL    HW2 4137   9.358   4.800   3.954  0.4806 -0.7380 -0.5129
 1187SOL     OW 4138   1.993   0.147   2.475  0.1546  0.5500 -0.5467
 1187SOL    HW1 4139   1.928   0.144   2.404 -0.0863 -1.4942 -0.3126
 1187SOL    HW2 4140   1.947   0.189   2.548 -1.0074 -0.9406 -0.3561
 1188SOL     OW 4141   7.217   8.184   7.606  0.2052  0.0089  0.1369
 1188SOL    HW1 4142   7.137   8.138   7.628  0.8690 -0.9629  0.5936
 1188SOL    HW2 4143   7.189   8.259   7.553 -1.0457  0.0611  0.8524
 1189SOL     OW 4144   0.428   3.317   4.926  0.0906  0.9532  0.2012
 1189SOL    HW1 4145   0.519   3.320   4.895 -0.2423  2.4738 -0.7669
 1189SOL    HW2 4146   0.433   3.273   5.011  1.6360  0.4278 -0.1240
 1190SOL     OW 4147   0.122   7.549   7.558  0.5398 -0.3794  0.2128
 1190SOL    HW1 4148   0.071   7.629   7.547  1.5603  0.3782  0.8475
 1190SOL    HW2 4149   0.104   7.521   7.648  1.0657 -0.2240  0.3709
 1191SOL     OW 4150   4.388   6.537   9.296  0.0535  0.4144  0.1456
 1191SOL    HW1 4151   4.465   6.593   9.283  1.3338 -1.5418 -1.1765
 1191SOL    HW2 4152   4.423   6.448   9.295 -1.7819 -0.4878  3.0203
 1192SOL     OW 4153   2.945   3.724   8.902 -0.5945 -0.4521  0.2741
 1192SOL    HW1 4154   2.900   3.800   8.866  0.1742 -0.3973 -0.6153
 1192SOL    HW2 4155   3.038   3.743   8.888 -0.4044 -1.7853 -0.4355
 1193SOL     OW 4156   0.249   4.830   5.201  0.1857  0.1132  0.3968
 1193SOL    HW1 4157   0.188   4.901   5.224 -0.3218  0.0791 -0.7860
 1193SOL    HW2 4158   0.230   4.761   5.264 -1.9001 -0.3808 -0.6866
 1194SOL     OW 4159   1.170   7.052   5.072  0.4115 -0.3472  0.0430
 1194SOL    HW1 4160   1.133   7.140   5.078  1.9966  0.4843 -1.3535
 1194SOL    HW2 4161   1.112   7.007   5.011 -0.1547 -0.1348  0.4128
 1195SOL     OW 4162   3.992   2.223   9.487  0.2665 -0.8986  0.2960
 1195SOL    HW1 4163   3.970   2.302   9.436  0.0066 -2.2184 -1.7328
 1195SOL    HW2 4164   4.007   2.256   9.575 -2.3563  1.1419  0.1333
 1196SOL     OW 4165   8.173   2.144   0.982  0.3388  0.2122  0.3397
 1196SOL    HW1 4166   8.122   2.191   0.916 -0.2273  1.2740  1.5083
 1196SOL    HW2 4167   8.264   2.157   0.955  0.1302  0.8071 -0.1089
 1197SOL     OW 4168   6.335   0.504   1.609  0.3719  0.0970  0.1944
 1197SOL    HW1 4169   6.240   0.493   1.612  0.1526  1.4659 -0.6695
 1197SOL    HW2 4170   6.369   0.440   1.671 -1.1785  0.1802  1.1808
 1198SOL     OW 4171   9.866   1.606   8.325  0.1133  0.3867 -0.1519
 1198SOL    HW1 4172   9.884   1.687   8.277  1.4908 -0.1925 -0.6861
 1198SOL    HW2 4173   9.809   1.556   8.267 -0.7906  0.9809  0.2055
 1199SOL     OW 4174   8.219   9.865   3.357 -0.7489  0.9501  0.0024
 1199SOL    HW1 4175   8.219   9.921   3.280 -0.8516  0.4480 -0.3681
 1199SOL    HW2 4176   8.311   9.845   3.372 -0.8715 -1.2858 -1.7321
 1200SOL     OW 4177   4.296   1.914   4.981 -0.5955  0.9971 -0.2820
 1200SOL    HW1 4178   4.333   1.856   4.915  0.7860  1.2728  0.2171
 1200SOL    HW2 4179   4.371   1.960   5.017 -1.2270  0.3343  2.0039
 1201SOL     OW 4180   6.466   9.851   0.659  0.3194  0.0587 -0.5359
 1201SOL    HW1 4181   6.402   9.868   0.728  0.2019  1.3022 -0.9356
 1201SOL    HW2 4182   6.503   9.936   0.637  0.4454 -0.3161 -1.9254
 1202SOL     OW 4183   7.809   0.152   0.160  0.4497  0.1585 -0.2210
 1202SOL    HW1 4184   7.892   0.185   0.126 -0.0328  1.8193  0.1121
 1202SOL    HW2 4185   7.824   0.141   0.254  0.2008  0.7674 -0.1095
 1203SOL     OW 4186   7.070   0.464   3.156 -0.0325  0.1371 -1.0463
 1203SOL    HW1 4187   7.061   0.517   3.235  0.4335 -1.6449  0.2531
 1203SOL    HW2 4188   7.128   0.515   3.099 -0.5843  1.5616 -0.3794
 1204SOL     OW 4189   4.582   0.464   5.545  0.1320  0.4224 -0.2465
 1204SOL    HW1 4190   4.501   0.414   5.532  1.3224 -1.6823 -0.0127
 1204SOL    HW2 4191   4.570   0.543   5.491 -1.2486 -0.8110 -1.8653
 1205SOL     OW 4192   7.490   5.165   7.682  0.0142  0.0248 -0.3766
 1205SOL    HW1 4193   7.497   5.084   7.732  1.5137 -0.8385 -1.8700
 1205SOL    HW2 4194   7.562   5.219   7.715 -0.8440  0.6915  0.4569
 1206SOL     OW 4195   7.510   0.781   0.708  0.4472  0.2012  0.0753
 1206SOL    HW1 4196   7.537   0.799   0.618 -0.7009  0.7442 -0.1778
 1206SOL    HW2 4197   7.493   0.867   0.746  1.0147 -0.0150  0.8518
 1207SOL     OW 4198   2.667   7.999   6.362  0.8224  0.3412  0.1208
 1207SOL    HW1 4199   2.685   7.916   6.318  1.1637  0.4036  0.1367
 1207SOL    HW2 4200   2.749   8.020   6.407  1.1816  1.3483 -0.9665
 1208SOL     OW 4201   4.043   5.859   4.985  0.3688 -0.4343  0.0894
 1208SOL    HW1 4202   4.069   5.837   5.074  1.1686 -0.1338 -0.0653
 1208SOL    HW2 4203   3.978   5.793   4.962  0.1485 -0.5075  0.8982
 1209SOL     OW 4204   6.047   0.795   4.539 -0.1768 -0.2919  0.0451
 1209SOL    HW1 4205   6.045   0.786   4.444 -2.5059  0.5938 -0.0409
 1209SOL    HW2 4206   5.962   0.763   4.568  1.1085 -2.1643  2.0416
 1210SOL     OW 4207   2.051   4.934   5.712 -0.7102 -0.7216  0.0559
 1210SOL    HW1 4208   2.078   4.976   5.794 -0.3644  1.0401 -0.9041
 1210SOL    HW2 4209   2.122   4.873   5.692  0.9926  1.3669 -0.6670
 1211SOL     OW 4210   1.830   9.351   1.351  0.1337 -0.5425 -0.0377
 1211SOL    HW1 4211   1.778   9.370   1.273  2.5827  1.2107 -1.3812
 1211SOL    HW2 4212   1.907   9.305   1.318  0.9737 -0.2255  1.3847
 1212SOL     OW 4213   6.272   8.953   8.632  0.1303 -0.3284  0.0764
 1212SOL    HW1 4214   6.222   8.899   8.693 -0.7526 -0.0068 -0.3478
 1212SOL    HW2 4215   6.336   8.998   8.687 -0.3870 -0.3476  0.7097
 1213SOL     OW 4216   8.619   1.538   9.391  0.4056  0.5870  0.3650
 1213SOL    HW1 4217   8.690   1.489   9.350 -1.4991 -0.3580 -2.0120
 1213SOL    HW2 4218   8.615   1.504   9.481  1.6265 -0.8120 -0.0731
 1214SOL     OW 4219   6.352   4.685   7.166  0.3211  0.2388  0.0575
 1214SOL    HW1 4220   6.276   4.733   7.136 -0.0891 -0.1964  0.3865
 1214SOL    HW2 4221   6.382   4.732   7.244 -2.0964 -1.8457  2.4446
 1215SOL     OW 4222   9.282   3.087   6.799 -0.2574  0.3372  0.1008
 1215SOL    HW1 4223   9.340   3.104   6.873 -0.6523 -2.4924  1.1732
 1215SOL    HW2 4224   9.251   2.997   6.813 -0.0736 -0.4717 -3.6724
 1216SOL     OW 4225   1.984   7.172   8.157  0.3411 -0.2893 -0.2272
 1216SOL    HW1 4226   1.906   7.168   8.214 -0.6690  1.2405 -1.4252
 1216SOL    HW2 4227   2.022   7.258   8.175  1.1189 -0.5828 -0.4618
 1217SOL     OW 4228   3.148   1.295   2.874 -0.1284 -0.2009 -0.7109
 1217SOL    HW1 4229   3.186   1.331   2.954  2.3438  0.4284 -2.0492
 1217SOL    HW2 4230   3.125   1.205   2.896  1.3824 -0.3338  0.4570
 1218SOL     OW 4231   8.455   2.178   1.470  0.3672  0.1304 -0.2729
 1218SOL    HW1 4232   8.460   2.271   1.448 -0.7798  0.2708 -0.0334
 1218SOL    HW2 4233   8.390   2.174   1.540  3.1049 -0.4116  2.4682
 1219SOL     OW 4234   0.009   8.521   2.936 -0.0947 -0.2887 -0.9029
 1219SOL    HW1 4235   0.039   8.611   2.941 -1.2229  0.0347  1.2811
 1219SOL    HW2 4236   0.084   8.472   2.901  0.7242  1.3890 -1.5612
 1220SOL     OW 4237   3.672   7.507   8.035 -0.3529  0.6637  0.4315
 1220SOL    HW1 4238   3.742   7.563   8.069 -1.1400  0.7900  1.9188
 1220SOL    HW2 4239   3.647   7.451   8.108  1.7757 -3.2055 -1.5215
 1221SOL     OW 4240   8.181   7.982   6.783  0.3097 -0.0114 -0.1066
 1221SOL    HW1 4241   8.260   8.035   6.792 -0.9891  2.1321 -0.5411
 1221SOL    HW2 4242   8.203   7.899   6.825  2.5016  0.8005  0.4986
 1222SOL     OW 4243   2.675   0.846   2.596  0.3570  0.3701  0.0081
 1222SOL    HW1 4244   2.701   0.931   2.631 -1.2295  1.0325 -0.3499
 1222SOL    HW2 4245   2.600   0.819   2.650  1.2077 -1.1179  0.5228
 1223SOL     OW 4246   4.579   0.786   1.407  0.2784 -0.4331 -0.4381
 1223SOL    HW1 4247   4.564   0.812   1.316 -1.0478  0.8947  0.1224
 1223SOL    HW2 4248   4.659   0.733   1.404  0.2945 -0.3631 -2.3531
 1224SOL     OW 4249   1.382   5.930   8.214 -0.6107  0.7903  0.1660
 1224SOL    HW1 4250   1.458   5.940   8.157  0.8752  1.3407  2.1087
 1224SOL    HW2 4251   1.388   5.841   8.248 -1.3465  0.5401 -0.3537
 1225SOL     OW 4252   2.023   9.098   8.326  0.2113 -0.2073  0.8278
 1225SOL    HW1 4253   2.118   9.104   8.339  0.7106  0.0068 -2.3365
 1225SOL    HW2 4254   1.997   9.020   8.376  2.1480 -0.6783  1.1785
 1226SOL     OW 4255   5.138   4.000   7.799 -0.3129 -0.0968  0.2706
 1226SOL    HW1 4256   5.052   3.995   7.841 -0.6507 -0.0544 -0.3977
 1226SOL    HW2 4257   5.189   4.059   7.856  0.3855 -2.6625  2.5160
 1227SOL     OW 4258   2.233   0.586   4.043  0.3933 -0.1041  0.2213
 1227SOL    HW1 4259   2.235   0.680   4.024 -0.5816  0.0887  0.9728
 1227SOL    HW2 4260   2.214   0.544   3.959 -0.4261  0.4737  0.1024
 1228SOL     OW 4261   4.286   5.241   5.921 -0.1808  0.7056  0.1751
 1228SOL    HW1 4262   4.204   5.262   5.877 -0.3278 -0.4269 -0.1295
 1228SOL    HW2 4263   4.354   5.257   5.855 -0.3027  0.1261 -0.1007
 1229SOL     OW 4264   0.258   9.128   6.614  0.0175 -0.7863 -0.0948
 1229SOL    HW1 4265   0.280   9.038   6.636  0.4528 -0.6558  0.0072
 1229SOL    HW2 4266   0.168   9.123   6.579  1.4269 -1.8832 -4.1286
 1230SOL     OW 4267   8.982   2.235   4.958  0.1159  0.3647 -0.2729
 1230SOL    HW1 4268   9.011   2.174   4.891  0.8218 -1.2780  1.4392
 1230SOL    HW2 4269   8.918   2.186   5.010 -0.8834  1.7925 -0.0938
 1231SOL     OW 4270   1.749   8.671   0.961 -0.1333  0.8984  0.1948
 1231SOL    HW1 4271   1.750   8.649   1.054  0.1669  0.3020  0.0549
 1231SOL    HW2 4272   1.673   8.625   0.926  1.5897 -1.6519 -0.4841
 1232SOL     OW 4273   2.404   5.997   0.371 -0.2036 -0.1578  0.0362
 1232SOL    HW1 4274   2.438   6.086   0.360  0.2261 -0.4366 -1.0361
 1232SOL    HW2 4275   2.325   6.008   0.423 -0.1172  0.8507 -0.0234
 1233SOL     OW 4276   8.755   1.054   2.153  0.0802  0.4872 -0.0637
 1233SOL    HW1 4277   8.816   1.097   2.093  1.1968  0.9432  1.3440
 1233SOL    HW2 4278   8.672   1.101   2.141  1.0713  2.5404  0.8730
 1234SOL     OW 4279   5.187   4.843   2.404 -0.0832  0.4871  0.2497
 1234SOL    HW1 4280   5.222   4.851   2.493  1.2161  1.4863 -0.3124
 1234SOL    HW2 4281   5.115   4.906   2.401 -0.5791 -0.0435  0.7861
 1235SOL     OW 4282   7.178   9.716   4.052  0.0247 -0.7867  0.0242
 1235SOL    HW1 4283   7.088   9.746   4.043  0.0214 -0.7415  0.2107
 1235SOL    HW2 4284   7.171   9.624   4.078  0.0316 -0.7303  0.2274
 1236SOL     OW 4285   9.601   1.552   4.238  0.2152 -0.2438 -0.5078
 1236SOL    HW1 4286   9.527   1.579   4.184  0.4555 -2.1132 -1.9029
 1236SOL    HW2 4287   9.677   1.562   4.181  0.8448  0.2064  0.3880
 1237SOL     OW 4288   8.124   5.584   8.121  0.2503 -0.0194  0.3806
 1237SOL    HW1 4289   8.123   5.553   8.031 -2.7647 -1.0338  0.6401
 1237SOL    HW2 4290   8.160   5.673   8.116 -0.3067  0.1381 -1.8827
 1238SOL     OW 4291   7.484   0.385   2.088 -0.4402 -0.2545  0.4741
 1238SOL    HW1 4292   7.410   0.397   2.029 -0.3816 -0.8819  0.2657
 1238SOL    HW2 4293   7.524   0.471   2.095 -1.6414  0.2776  1.1944
 1239SOL     OW 4294   4.257   6.777   8.953 -0.1125  0.2404 -0.3901
 1239SOL    HW1 4295   4.253   6.863   8.995  0.3306  0.6604 -1.1843
 1239SOL    HW2 4296   4.185   6.728   8.992 -2.2686  1.9367 -2.0042
 1240SOL     OW 4297   4.173   3.622   1.615  0.1215 -0.5465  0.3019
 1240SOL    HW1 4298   4.261   3.653   1.596 -0.4547  0.6063 -0.6034
 1240SOL    HW2 4299   4.125   3.633   1.533 -0.9619 -0.7982  0.8771
 1241SOL     OW 4300   9.596   0.885   9.716 -0.0390 -0.5234 -0.3728
 1241SOL    HW1 4301   9.574   0.917   9.629  0.7770 -2.1862 -1.2498
 1241SOL    HW2 4302   9.673   0.936   9.742  0.9185 -1.3325 -1.5040
 1242SOL     OW 4303   6.714   6.412   5.495  0.0741  0.0716 -0.1182
 1242SOL    HW1 4304   6.645   6.349   5.475  0.3800  0.1227 -1.4738
 1242SOL    HW2 4305   6.767   6.414   5.415  0.0527  2.0616 -0.1319
 1243SOL     OW 4306   2.181   9.123   2.186  0.7104 -0.5759  0.5527
 1243SOL    HW1 4307   2.123   9.115   2.262  2.0137 -0.7201  1.5696
 1243SOL    HW2 4308   2.227   9.206   2.199  3.6398 -2.2585  1.9563
 1244SOL     OW 4309   9.696   7.518   4.167  0.5917 -0.1675 -0.0857
 1244SOL    HW1 4310   9.613   7.509   4.120  0.7675  3.0555 -1.2310
 1244SOL    HW2 4311   9.675   7.570   4.244  1.5743  1.2536 -0.7261
 1245SOL     OW 4312   6.546   2.961  -0.006 -0.0791  0.4942  0.8493
 1245SOL    HW1 4313   6.543   2.957   0.089 -0.0092  0.0849  0.8387
 1245SOL    HW2 4314   6.473   3.017  -0.031 -0.1537  0.5256  1.1389
 1246SOL     OW 4315   2.520   1.201   6.585 -0.0922  0.1628 -0.4772
 1246SOL    HW1 4316   2.600   1.198   6.533  0.2649  0.4057  0.0512
 1246SOL    HW2 4317   2.487   1.111   6.584  1.2391 -0.3873  0.9100
 1247SOL     OW 4318   9.140   9.863   9.812  0.2140  0.7812  0.5271
 1247SOL    HW1 4319   9.211   9.837   9.752 -0.9823  0.7297 -0.9188
 1247SOL    HW2 4320   9.175   9.845   9.899  1.3668 -0.7836 -0.2165
 1248SOL     OW 4321   9.021   8.789   8.627 -0.0816  0.1090  0.0732
 1248SOL    HW1 4322   9.084   8.754   8.690 -0.0856 -0.8954 -0.4590
 1248SOL    HW2 4323   9.039   8.741   8.546 -1.4026 -0.0598 -0.1356
 1249SOL     OW 4324   6.284   8.189   7.646  0.7817 -0.4758  0.3156
 1249SOL    HW1 4325   6.206   8.245   7.638  0.9677 -0.3281 -0.5213
 1249SOL    HW2 4326   6.358   8.250   7.646  0.8998 -0.5928  1.4480
 1250SOL     OW 4327   1.941   7.493   0.939 -0.0859  0.4846 -0.0462
 1250SOL    HW1 4328   1.967   7.578   0.904 -0.5889 -0.0175 -1.6957
 1250SOL    HW2 4329   1.848   7.503   0.961 -0.1780  0.3314 -0.3595
 1251SOL     OW 4330   9.214   4.348   8.581  0.4115  0.4228 -0.4496
 1251SOL    HW1 4331   9.189   4.259   8.606  0.4236  0.1533 -1.3367
 1251SOL    HW2 4332   9.188   4.402   8.655 -0.5770 -0.1785 -0.3352
 1252SOL     OW 4333   4.040   1.929   7.184 -0.4579  0.3143  0.1084
 1252SOL    HW1 4334   4.079   1.863   7.126  2.7420  2.7858 -0.8937
 1252SOL    HW2 4335   4.042   1.889   7.271 -1.1334 -1.8214 -0.7887
 1253SOL     OW 4336   3.298   6.720   0.766 -0.2994 -0.5589 -0.4725
 1253SOL    HW1 4337   3.334   6.803   0.798 -2.0257  0.3082 -0.6919
 1253SOL    HW2 4338   3.375   6.668   0.745  0.8551  1.2533 -1.0157
 1254SOL     OW 4339   7.620   5.110   3.995  0.8722  0.1720  0.3291
 1254SOL    HW1 4340   7.527   5.126   4.003  0.8632 -0.1314  0.8850
 1254SOL    HW2 4341   7.647   5.162   3.919  0.1911 -0.0111 -0.0494
 1255SOL     OW 4342   9.382   8.571   5.395 -0.9888 -0.3253 -0.0783
 1255SOL    HW1 4343   9.362   8.528   5.312  0.1134 -1.7196  0.3283
 1255SOL    HW2 4344   9.417   8.501   5.450  1.6832  1.1950  0.3581
 1256SOL     OW 4345   5.412   8.520   4.073  0.6368  0.1831  0.3188
 1256SOL    HW1 4346   5.418   8.609   4.110  2.6782  1.5660 -2.9431
 1256SOL    HW2 4347   5.339   8.525   4.012  1.4176 -0.0390 -0.6463
 1257SOL     OW 4348   4.964   0.860   2.083  0.1890  0.1676 -0.5134
 1257SOL    HW1 4349   4.906   0.872   2.159 -0.2348 -0.1582 -0.7849
 1257SOL    HW2 4350   5.041   0.914   2.104 -0.0746  0.3617 -0.0117
 1258SOL     OW 4351   0.458   7.289   2.573 -0.7350 -0.1949 -0.0183
 1258SOL    HW1 4352   0.367   7.274   2.599 -0.5110 -1.2991  0.1521
 1258SOL    HW2 4353   0.477   7.221   2.508  0.1590 -0.3682  0.4067
 1259SOL     OW 4354   5.599   5.228   8.083 -0.4439  0.6537 -0.0416
 1259SOL    HW1 4355   5.504   5.221   8.076 -0.4787  1.3207 -0.3408
 1259SOL    HW2 4356   5.633   5.183   8.006 -0.6262  2.6546 -1.3863
 1260SOL     OW 4357   6.514   3.497   8.888 -0.2558  0.6049 -0.2263
 1260SOL    HW1 4358   6.501   3.575   8.834 -0.1485  0.6042 -0.2536
 1260SOL    HW2 4359   6.433   3.448   8.878 -0.6485  1.1027  0.4404
 1261SOL     OW 4360   2.531   7.856   1.228 -0.0375  0.0208 -0.2456
 1261SOL    HW1 4361   2.453   7.872   1.281 -0.0172  0.7923 -0.4424
 1261SOL    HW2 4362   2.604   7.869   1.288 -0.0001  1.3167 -0.5530
 1262SOL     OW 4363   1.059   4.609   8.525  0.0752  0.0859 -0.4187
 1262SOL    HW1 4364   1.141   4.588   8.481  0.2824 -0.1607  0.0764
 1262SOL    HW2 4365   1.012   4.525   8.528  0.9168 -0.3867  1.5957
 1263SOL     OW 4366   1.922   2.942   3.000 -0.0453  0.2826  0.1839
 1263SOL    HW1 4367   1.927   3.024   3.049 -1.4382  1.1177 -0.9897
 1263SOL    HW2 4368   1.865   2.886   3.053  0.3633  0.3041  0.6558
 1264SOL     OW 4369   4.186   0.264   4.221  0.1821 -0.6461  0.1135
 1264SOL    HW1 4370   4.245   0.258   4.146  0.0055  0.3427 -0.1247
 1264SOL    HW2 4371   4.201   0.184   4.271 -0.0720 -1.5703 -1.2559
 1265SOL     OW 4372   5.393   0.405   5.388 -0.0273  0.8049 -0.0674
 1265SOL    HW1 4373   5.480   0.405   5.427  0.2839 -0.9077 -0.6782
 1265SOL    HW2 4374   5.355   0.322   5.415 -0.9647  0.9477 -0.8936
 1266SOL     OW 4375   6.980   7.090   3.438 -0.0242 -0.1485 -0.0786
 1266SOL    HW1 4376   6.941   7.003   3.440  0.0786 -0.1869  1.0157
 1266SOL    HW2 4377   6.905   7.150   3.428  0.0067 -0.3937 -2.1211
 1267SOL     OW 4378   1.365   7.067   4.066  0.2795  0.5405  0.2811
 1267SOL    HW1 4379   1.387   6.995   4.008  0.7821  0.8377  0.0932
 1267SOL    HW2 4380   1.404   7.144   4.025 -0.2719  0.9242  0.4673
 1268SOL     OW 4381   5.754   4.189   2.326  0.4330  0.5030 -0.0810
 1268SOL    HW1 4382   5.819   4.133   2.370  0.7877  1.4238  0.6077
 1268SOL    HW2 4383   5.724   4.137   2.251  1.2724 -0.3160  0.1306
 1269SOL     OW 4384   0.848   5.944   2.070  0.4505 -0.2108 -0.1863
 1269SOL    HW1 4385   0.924   5.904   2.111  1.4893 -0.7251 -2.4518
 1269SOL    HW2 4386   0.774   5.889   2.097  1.0757 -0.5355  0.9075
 1270SOL     OW 4387   9.517   3.858   4.481  0.3850  0.6799  0.2671
 1270SOL    HW1 4388   9.544   3.878   4.570 -2.7383  1.0518  1.2466
 1270SOL    HW2 4389   9.598   3.863   4.430  1.7603  4.2960  2.3823
 1271SOL     OW 4390   1.633   3.611   2.149 -0.6936  0.2630  0.0188
 1271SOL    HW1 4391   1.562   3.619   2.212 -0.4385  1.2219  0.2089
 1271SOL    HW2 4392   1.681   3.693   2.157  0.0446 -0.0976 -0.5810
 1272SOL     OW 4393   5.482   6.887   9.885 -0.4265 -0.2235  0.0183
 1272SOL    HW1 4394   5.391   6.912   9.904 -0.3594  1.1167 -1.1912
 1272SOL    HW2 4395   5.534   6.937   9.948 -0.5358 -1.4349  1.0934
 1273SOL     OW 4396   1.441   7.942   5.013  0.6364 -0.1397  0.4176
 1273SOL    HW1 4397   1.491   7.906   4.940  1.9784 -0.7414  1.5665
 1273SOL    HW2 4398   1.507   7.981   5.070 -0.2354 -0.5976  1.8062
 1274SOL     OW 4399   6.171   0.394   2.528 -0.2601 -0.2434 -0.8771
 1274SOL    HW1 4400   6.244   0.366   2.473 -0.2682 -1.6961 -0.2179
 1274SOL    HW2 4401   6.173   0.333   2.602 -1.2483  0.6207 -0.1080
 1275SOL     OW 4402   8.040   9.773   5.792  0.9309  0.3493  0.1533
 1275SOL    HW1 4403   8.044   9.861   5.753 -0.4703 -0.0209 -0.9055
 1275SOL    HW2 4404   8.035   9.789   5.886  1.1824  1.3881  0.0074
 1276SOL     OW 4405   3.789   1.645   4.117 -0.2337 -0.3573  0.3705
 1276SOL    HW1 4406   3.878   1.614   4.097 -1.0030 -1.6724 -1.3364
 1276SOL    HW2 4407   3.735   1.606   4.048 -1.9165  1.6927  0.4447
 1277SOL     OW 4408   5.661   7.097   9.466 -0.3940 -0.3793 -0.1369
 1277SOL    HW1 4409   5.747   7.114   9.504 -0.7571 -0.2257  0.6308
 1277SOL    HW2 4410   5.625   7.026   9.520 -0.9221 -0.1501 -0.1874
 1278SOL     OW 4411   2.216   2.117   2.923 -0.3795  0.0998  0.4722
 1278SOL    HW1 4412   2.267   2.037   2.933 -0.9557 -0.2719  0.4498
 1278SOL    HW2 4413   2.137   2.090   2.876 -0.7759  0.5954  0.8389
 1279SOL     OW 4414   1.416   9.393   2.036 -0.2710  0.2751  0.0548
 1279SOL    HW1 4415   1.354   9.350   2.096  0.3519 -1.8163 -0.7048
 1279SOL    HW2 4416   1.497   9.342   2.046  1.2964  2.7346  0.7892
 1280SOL     OW 4417   6.727   3.523   3.509 -0.5927 -0.1870 -0.5673
 1280SOL    HW1 4418   6.813   3.512   3.469  1.5377  2.6923  2.5959
 1280SOL    HW2 4419   6.744   3.520   3.603 -3.9245  0.7880  0.2109
 1281SOL     OW 4420   5.942   8.480   0.736  0.3495 -0.3110 -1.1138
 1281SOL    HW1 4421   6.012   8.543   0.755 -1.3977  1.4572 -0.1685
 1281SOL    HW2 4422   5.937   8.426   0.815  1.7416 -1.5972 -1.8607
 1282SOL     OW 4423   5.692   9.321   4.040  0.2412 -0.5739  0.2525
 1282SOL    HW1 4424   5.695   9.400   4.094 -0.7154 -0.2613 -0.1321
 1282SOL    HW2 4425   5.695   9.249   4.103 -0.2780 -0.2166  0.6958
 1283SOL     OW 4426   4.847   2.745   3.175 -0.3097 -0.6609  0.5638
 1283SOL    HW1 4427   4.915   2.711   3.118 -0.8856 -0.5244 -0.2275
 1283SOL    HW2 4428   4.768   2.747   3.120 -0.0050  3.4619 -0.0001
 1284SOL     OW 4429   8.908   5.589   8.172 -0.8268  0.4388 -0.4376
 1284SOL    HW1 4430   8.973   5.522   8.151 -0.1682  0.7413  0.5726
 1284SOL    HW2 4431   8.828   5.540   8.189 -1.2662  0.1337 -2.9773
 1285SOL     OW 4432   8.420   7.489   8.275 -0.1608  0.0428  0.5524
 1285SOL    HW1 4433   8.347   7.443   8.233  1.9864 -1.5300 -1.7839
 1285SOL    HW2 4434   8.492   7.482   8.212  2.0857  1.3786  2.7771
 1286SOL     OW 4435   2.756   8.792   9.121  0.5236 -0.5467 -0.6096
 1286SOL    HW1 4436   2.765   8.810   9.215 -0.3875  1.0400 -0.7747
 1286SOL    HW2 4437   2.822   8.848   9.080 -1.8961  2.2429 -1.1049
 1287SOL     OW 4438   7.964   3.659   3.255 -0.4643  0.0099  0.7586
 1287SOL    HW1 4439   8.054   3.669   3.286 -0.1754  3.2644 -0.7862
 1287SOL    HW2 4440   7.963   3.574   3.210  1.3900 -0.7346  2.0155
 1288SOL     OW 4441   4.033   8.869   2.923 -0.4285 -0.0483  0.1173
 1288SOL    HW1 4442   4.119   8.888   2.961 -0.7645  0.7110  0.5184
 1288SOL    HW2 4443   4.052   8.814   2.847  0.3336 -0.8164  0.8329
 1289SOL     OW 4444   2.519   8.113   3.399  0.3465 -0.1338 -0.0853
 1289SOL    HW1 4445   2.507   8.061   3.319  0.4384  0.5942 -0.5751
 1289SOL    HW2 4446   2.564   8.053   3.458  1.0302 -0.4116 -0.8669
 1290SOL     OW 4447   6.683   9.703   5.146 -0.2896  0.6988  0.2276
 1290SOL    HW1 4448   6.703   9.614   5.176  1.9445  0.4184 -1.7856
 1290SOL    HW2 4449   6.636   9.691   5.064  0.1326  1.3836 -0.1207
 1291SOL     OW 4450   8.411   8.215   0.046  0.0008  0.4589  0.8416
 1291SOL    HW1 4451   8.480   8.281   0.040  0.4188 -0.0576 -0.5152
 1291SOL    HW2 4452   8.436   8.149  -0.019 -1.4101 -0.0820  0.8144
 1292SOL     OW 4453   0.707   7.018   2.569 -0.0332 -0.1815  0.3164
 1292SOL    HW1 4454   0.756   7.097   2.594 -2.6447  1.8070 -0.3748
 1292SOL    HW2 4455   0.628   7.051   2.526 -0.8285 -3.2380 -0.8731
 1293SOL     OW 4456   1.607   2.443   0.268  0.5717  0.3938  0.0103
 1293SOL    HW1 4457   1.656   2.509   0.219  0.1661 -0.6274 -1.8667
 1293SOL    HW2 4458   1.671   2.404   0.328  1.0021  1.9032  0.5760
 1294SOL     OW 4459   9.035   5.775   3.679  0.4737  0.1714  0.5158
 1294SOL    HW1 4460   9.025   5.848   3.741  0.7968  0.8091 -0.1719
 1294SOL    HW2 4461   9.037   5.817   3.593  0.6070 -0.6625  0.1049
 1295SOL     OW 4462   0.792   6.275   8.909 -0.0800 -0.4316  0.2561
 1295SOL    HW1 4463   0.828   6.301   8.994 -2.9701  0.3913  1.3343
 1295SOL    HW2 4464   0.723   6.212   8.929 -1.0073 -0.0362 -1.4530
 1296SOL     OW 4465   9.024   2.445   2.752 -0.0979  0.5911 -0.2498
 1296SOL    HW1 4466   9.032   2.478   2.662 -1.2450 -0.1732 -0.6529
 1296SOL    HW2 4467   8.932   2.459   2.774 -0.6887 -2.3989 -0.4934
 1297SOL     OW 4468   7.250   8.616   5.732 -0.2518 -0.4126  0.4881
 1297SOL    HW1 4469   7.262   8.640   5.640 -0.4780 -0.5383  0.4239
 1297SOL    HW2 4470   7.320   8.663   5.779 -0.4877  0.1140  0.3267
 1298SOL     OW 4471   1.116   3.889   5.055 -0.0307 -0.0516  0.0381
 1298SOL    HW1 4472   1.205   3.870   5.082 -0.2719  0.1476  1.0076
 1298SOL    HW2 4473   1.125   3.954   4.985  0.5467  0.8616  0.9350
 1299SOL     OW 4474   3.391   3.210   4.544  0.2536  0.0980  0.0414
 1299SOL    HW1 4475   3.345   3.269   4.604 -0.3005  0.2714 -0.5488
 1299SOL    HW2 4476   3.411   3.265   4.468  0.6140 -0.2197 -0.0954
 1300SOL     OW 4477   7.308   5.337   7.116  0.7803  0.2051 -0.3183
 1300SOL    HW1 4478   7.366   5.266   7.089  3.4627  2.1135 -0.0163
 1300SOL    HW2 4479   7.332   5.354   7.207 -0.5689  0.8208 -0.0560
 1301SOL     OW 4480   5.723   2.507   9.882  0.4076  0.2304  0.2782
 1301SOL    HW1 4481   5.684   2.421   9.868  2.2191 -0.4566 -0.8221
 1301SOL    HW2 4482   5.673   2.565   9.824  1.0563 -0.6530 -1.2144
 1302SOL     OW 4483   8.995   3.047   7.098  0.3655  0.0288 -0.9619
 1302SOL    HW1 4484   9.023   3.005   7.017  0.7832 -0.9010 -0.3563
 1302SOL    HW2 4485   9.008   3.140   7.083  1.4717 -0.2081 -1.5816
 1303SOL     OW 4486   3.044   2.456   5.660 -0.0497  0.1011  0.1980
 1303SOL    HW1 4487   3.099   2.389   5.620 -0.9745  0.5877 -2.0124
 1303SOL    HW2 4488   3.049   2.530   5.599 -0.3663  1.4434  1.7445
 1304SOL     OW 4489   6.576   5.081   0.037  0.0878 -0.0543 -0.2685
 1304SOL    HW1 4490   6.498   5.085   0.093  0.3224  0.8782  0.0198
 1304SOL    HW2 4491   6.649   5.087   0.099  0.3450  1.2188 -0.6647
 1305SOL     OW 4492   6.330   9.557   2.487 -0.3030 -0.2712  0.4993
 1305SOL    HW1 4493   6.302   9.467   2.501 -1.0966  0.2258  2.5108
 1305SOL    HW2 4494   6.426   9.553   2.489 -0.3249 -0.9126  2.1043
 1306SOL     OW 4495   3.679   8.383   8.664 -0.3788  0.0316 -0.3557
 1306SOL    HW1 4496   3.752   8.413   8.610 -0.5646  2.4325  0.6098
 1306SOL    HW2 4497   3.676   8.288   8.650  2.7368 -0.1188 -0.6179
 1307SOL     OW 4498   7.828   5.973   6.239 -0.1908  0.3963  0.2220
 1307SOL    HW1 4499   7.807   6.014   6.155  0.9799 -1.7685 -1.2426
 1307SOL    HW2 4500   7.823   5.879   6.221  0.3944 -0.1266  2.5128
 1308SOL     OW 4501   0.673   9.363   1.774 -0.1601  0.4529 -0.0727
 1308SOL    HW1 4502   0.749   9.327   1.820 -0.0057  0.2680 -0.4669
 1308SOL    HW2 4503   0.608   9.377   1.843  0.6046  1.6490  0.4438
 1309SOL     OW 4504   0.442   2.077   0.509  0.0594 -0.4955 -0.4484
 1309SOL    HW1 4505   0.391   2.048   0.434 -0.5111  2.8273 -1.4930
 1309SOL    HW2 4506   0.527   2.103   0.472  0.3767 -0.3677  0.3480
 1310SOL     OW 4507   3.450   5.762   6.454 -0.5292 -0.5505 -0.0706
 1310SOL    HW1 4508   3.393   5.717   6.517 -0.8688 -2.6374 -1.7312
 1310SOL    HW2 4509   3.534   5.717   6.462  0.0488  0.5660  0.3167
 1311SOL     OW 4510   1.844   0.037   3.922  0.5312 -0.2799 -0.1791
 1311SOL    HW1 4511   1.752   0.061   3.912  0.2672 -1.0057  0.3917
 1311SOL    HW2 4512   1.892   0.116   3.896 -0.2757  0.5477  0.7329
 1312SOL     OW 4513   7.851   3.941   0.533 -0.0173 -0.1528  0.6469
 1312SOL    HW1 4514   7.765   3.906   0.510  0.4529 -0.8321 -0.1319
 1312SOL    HW2 4515   7.903   3.863   0.552  0.9835  0.1045 -0.8734
 1313SOL     OW 4516   4.626   9.634   1.683  0.0566  0.2473 -0.1657
 1313SOL    HW1 4517   4.534   9.617   1.705 -0.1727  0.1491 -1.1855
 1313SOL    HW2 4518   4.674   9.572   1.738 -0.5114 -0.0336  0.0320
 1314SOL     OW 4519   4.602   9.759   3.496 -0.0913  0.3748 -0.0089
 1314SOL    HW1 4520   4.554   9.697   3.441  0.2491  0.9946 -1.0258
 1314SOL    HW2 4521   4.660   9.704   3.548  0.0144 -0.1883 -0.7065
 1315SOL     OW 4522   4.277   7.276   0.250  0.0244 -0.3189 -0.5996
 1315SOL    HW1 4523   4.269   7.367   0.276 -0.5409 -0.6198  0.3133
 1315SOL    HW2 4524   4.371   7.263   0.235  0.1297  0.3537 -0.5319
 1316SOL     OW 4525   3.200   9.136   6.050  0.4048 -0.5370 -0.1754
 1316SOL    HW1 4526   3.145   9.214   6.041  0.5949 -0.3327  0.3552
 1316SOL    HW2 4527   3.246   9.149   6.133  0.8885 -0.9353 -0.3759
 1317SOL     OW 4528   0.319   1.315   0.424 -0.6452  0.1275 -0.0839
 1317SOL    HW1 4529   0.333   1.408   0.442  0.8335  0.0540 -0.6614
 1317SOL    HW2 4530   0.320   1.309   0.328 -2.0770 -0.3114 -0.0830
 1318SOL     OW 4531   8.757   0.888   9.531 -0.1448  0.3017 -1.0115
 1318SOL    HW1 4532   8.800   0.845   9.606 -1.3819 -0.2914 -0.6073
 1318SOL    HW2 4533   8.775   0.981   9.542 -0.3071  0.2175  0.0327
 1319SOL     OW 4534   6.487   8.930   3.634 -0.1599  0.3360  0.2781
 1319SOL    HW1 4535   6.446   9.010   3.600  0.0561  0.2092 -0.2763
 1319SOL    HW2 4536   6.562   8.962   3.684  1.3192  0.3898 -1.8644
 1320SOL     OW 4537   2.726   8.005   8.477  0.2560 -0.1136  0.0539
 1320SOL    HW1 4538   2.632   7.989   8.468  0.3050 -1.3415  1.4013
 1320SOL    HW2 4539   2.734   8.100   8.471 -1.1411  0.0564  0.4144
 1321SOL     OW 4540   1.644   2.550   2.979 -0.3265 -0.2489 -0.2604
 1321SOL    HW1 4541   1.601   2.635   2.982  2.6600  1.3781  0.9440
 1321SOL    HW2 4542   1.717   2.562   2.918  1.1286 -1.3473  1.1456
 1322SOL     OW 4543   3.332   7.655   6.522  0.3201  0.3729  0.7437
 1322SOL    HW1 4544   3.359   7.746   6.531 -0.5159  0.6935  0.0999
 1322SOL    HW2 4545   3.364   7.628   6.436  1.0189 -0.1140  1.1444
 1323SOL     OW 4546   3.596   7.556   4.982  0.1377 -0.2949  0.9817
 1323SOL    HW1 4547   3.616   7.615   4.909 -1.0914  0.3209  1.1207
 1323SOL    HW2 4548   3.592   7.614   5.059  0.8674 -0.8570  1.4540
 1324SOL     OW 4549   2.098   6.131   3.981 -0.3028 -0.0403  0.2931
 1324SOL    HW1 4550   2.090   6.137   3.886  0.4475  0.3150  0.2476
 1324SOL    HW2 4551   2.018   6.171   4.015 -1.5946 -2.0718 -0.2012
 1325SOL     OW 4552   9.745   2.076   9.892  0.0468 -0.4544  0.2130
 1325SOL    HW1 4553   9.817   2.140   9.895  2.2490 -2.7928  1.4182
 1325SOL    HW2 4554   9.748   2.041   9.803 -2.7363  2.5681 -1.2753
 1326SOL     OW 4555   8.778   2.497   2.881  0.3173  0.2385  0.0293
 1326SOL    HW1 4556   8.733   2.413   2.889  1.2092 -0.2758 -0.2008
 1326SOL    HW2 4557   8.764   2.539   2.966 -1.0668  0.3558 -0.2256
 1327SOL     OW 4558   5.000   3.883   0.325 -0.0910  0.5400  0.2082
 1327SOL    HW1 4559   4.970   3.849   0.409 -0.6145 -1.2548 -0.6497
 1327SOL    HW2 4560   5.071   3.824   0.300 -0.2298  0.7854 -0.8108
 1328SOL     OW 4561   7.932   3.755   7.551 -0.2405 -0.3110  0.3866
 1328SOL    HW1 4562   7.930   3.677   7.495  2.3141  0.5006 -1.0238
 1328SOL    HW2 4563   8.016   3.748   7.597  0.3227  1.8363 -0.2180
 1329SOL     OW 4564   8.957   9.399   9.664  0.1460  0.3250 -0.3646
 1329SOL    HW1 4565   9.007   9.343   9.605 -1.5972 -1.5911 -0.1308
 1329SOL    HW2 4566   8.887   9.435   9.611 -0.8147 -0.5716  0.2570
 1330SOL     OW 4567   0.704   3.633   5.271 -0.6296  0.0372  0.0718
 1330SOL    HW1 4568   0.772   3.571   5.299 -0.0896  0.6210  0.0937
 1330SOL    HW2 4569   0.624   3.582   5.269 -0.0276 -0.9130 -0.8768
 1331SOL     OW 4570   7.116   0.511   8.650  0.0064 -0.2289  0.0185
 1331SOL    HW1 4571   7.027   0.476   8.663 -0.2224  0.1614 -0.4705
 1331SOL    HW2 4572   7.103   0.592   8.602  0.6931 -0.6427 -0.8985
 1332SOL     OW 4573   8.175   8.398   2.140 -0.3428  0.8147 -0.3316
 1332SOL    HW1 4574   8.224   8.377   2.060  0.1725 -0.5471  0.3035
 1332SOL    HW2 4575   8.196   8.489   2.159  1.2145  0.5296 -0.5866
 1333SOL     OW 4576   8.234   1.872   0.388  0.5399 -0.4248  0.1148
 1333SOL    HW1 4577   8.324   1.906   0.396  0.7286 -0.8713 -0.0448
 1333SOL    HW2 4578   8.198   1.878   0.477  0.7910 -0.4073  0.2168
 1334SOL     OW 4579   8.183   1.919   6.102 -0.1457  0.2795 -0.4900
 1334SOL    HW1 4580   8.165   1.831   6.133 -1.0617  0.9515  1.0022
 1334SOL    HW2 4581   8.097   1.957   6.084  0.2057  1.0738 -0.5402
 1335SOL     OW 4582   7.747   1.275   8.895 -0.6072 -0.4896 -0.2684
 1335SOL    HW1 4583   7.700   1.357   8.907  0.0258  0.0575 -1.4512
 1335SOL    HW2 4584   7.839   1.297   8.905 -0.4536 -1.1386 -0.1699
 1336SOL     OW 4585   1.408   5.495   6.443 -0.1626  0.4223 -0.1807
 1336SOL    HW1 4586   1.338   5.488   6.378 -0.5112 -1.8789  0.3377
 1336SOL    HW2 4587   1.368   5.539   6.517 -0.6683  0.3489 -0.4051
 1337SOL     OW 4588   6.837   0.899   2.067 -0.4898  0.6804 -0.6296
 1337SOL    HW1 4589   6.801   0.823   2.023 -0.0270 -0.5649  1.0368
 1337SOL    HW2 4590   6.781   0.911   2.144 -0.2407  1.7035 -0.5935
 1338SOL     OW 4591   1.684   9.164   4.156  0.2945 -0.2497 -0.7372
 1338SOL    HW1 4592   1.637   9.137   4.235 -2.4135 -0.3882 -2.2815
 1338SOL    HW2 4593   1.678   9.089   4.097  1.4733  0.1716 -1.4239
 1339SOL     OW 4594   0.735   6.912   0.750  0.2241 -0.1512  0.4565
 1339SOL    HW1 4595   0.767   6.915   0.840 -1.8643 -2.1580  1.3947
 1339SOL    HW2 4596   0.650   6.868   0.757 -0.3945  0.3821 -2.4175
 1340SOL     OW 4597   1.093   5.884   1.426 -0.3709  0.0402 -0.2077
 1340SOL    HW1 4598   1.184   5.904   1.406 -0.1792 -0.1675  0.4487
 1340SOL    HW2 4599   1.089   5.789   1.428  0.0513  0.0194  2.6149
 1341SOL     OW 4600   6.404   7.688   1.345  0.2415  1.0878 -0.4570
 1341SOL    HW1 4601   6.476   7.627   1.331 -0.3460  0.5235 -1.1213
 1341SOL    HW2 4602   6.330   7.633   1.370  0.1522  1.7040  0.7394
 1342SOL     OW 4603   3.107   9.827   8.675  0.3052  0.0028 -0.0664
 1342SOL    HW1 4604   3.035   9.888   8.690 -1.0992 -0.8872 -2.6424
 1342SOL    HW2 4605   3.067   9.741   8.677  1.9865 -0.8281  1.8921
 1343SOL     OW 4606   9.094   8.618   6.862  0.5526  0.4349 -0.6212
 1343SOL    HW1 4607   9.050   8.641   6.780  1.4930  1.7547 -0.7722
 1343SOL    HW2 4608   9.121   8.701   6.900 -2.6757  0.2487  2.7459
 1344SOL     OW 4609   4.434   7.164   7.495  0.4988 -0.2364  0.0547
 1344SOL    HW1 4610   4.409   7.074   7.475  2.1460 -1.1191  1.5889
 1344SOL    HW2 4611   4.414   7.213   7.416  0.5027 -2.1484 -1.2054
 1345SOL     OW 4612   8.182   6.261   2.162  0.4578  0.0557  0.3740
 1345SOL    HW1 4613   8.254   6.318   2.137 -1.5454  2.2065 -0.8613
 1345SOL    HW2 4614   8.189   6.186   2.103  1.3193  0.5168 -0.1171
 1346SOL     OW 4615   2.937   5.117   0.340 -0.6325 -0.3076 -0.0662
 1346SOL    HW1 4616   2.971   5.197   0.380 -3.6070  1.3369 -0.5514
 1346SOL    HW2 4617   2.914   5.144   0.251 -1.2831 -1.8403 -0.3836
 1347SOL     OW 4618   5.632   0.838   0.354  0.1497 -0.2502 -0.4935
 1347SOL    HW1 4619   5.672   0.834   0.441  0.5382  2.2148 -0.5005
 1347SOL    HW2 4620   5.697   0.881   0.299 -1.7840  2.4048 -0.8935
 1348SOL     OW 4621   1.605   9.982   1.237  0.2396 -0.2014 -0.0880
 1348SOL    HW1 4622   1.632  10.002   1.148  1.6795 -2.4809 -0.2487
 1348SOL    HW2 4623   1.517   9.945   1.228  1.0437 -2.0576 -0.8506
 1349SOL     OW 4624   6.782   0.153   5.893 -0.1937  0.5290  0.3477
 1349SOL    HW1 4625   6.698   0.131   5.934 -1.3972  0.5146 -1.9395
 1349SOL    HW2 4626   6.767   0.240   5.856  1.3068  1.1289  1.0770
 1350SOL     OW 4627   2.571   1.775   4.614  0.1865  0.0091  0.1554
 1350SOL    HW1 4628   2.500   1.773   4.677  0.2824  0.0966  0.2661
 1350SOL    HW2 4629   2.617   1.691   4.627 -0.2548 -0.3148 -0.3304
 1351SOL     OW 4630   3.248   3.634   5.337  0.7918 -0.8047 -0.0131
 1351SOL    HW1 4631   3.153   3.625   5.336  0.7007  0.0241 -1.2905
 1351SOL    HW2 4632   3.280   3.545   5.325  0.1846 -1.0986  0.4778
 1352SOL     OW 4633   1.897   3.985   0.826  0.0856  0.2606  1.0235
 1352SOL    HW1 4634   1.908   3.903   0.779  1.9968 -0.4060  2.5046
 1352SOL    HW2 4635   1.849   4.042   0.765  1.8328 -0.7585 -1.4489
 1353SOL     OW 4636   6.165   7.665   6.714  0.4612  0.0612  0.3045
 1353SOL    HW1 4637   6.247   7.714   6.711 -0.5383  1.7886 -2.0639
 1353SOL    HW2 4638   6.169   7.606   6.639  0.3326 -1.3032  1.3304
 1354SOL     OW 4639   6.711   1.569   5.650  0.1313 -0.0193  0.1470
 1354SOL    HW1 4640   6.800   1.574   5.684  0.3856  0.7674 -0.5960
 1354SOL    HW2 4641   6.700   1.650   5.600 -0.6999 -0.5111 -0.4941
 1355SOL     OW 4642   1.737   6.908   8.271 -0.4254 -0.2452  0.3530
 1355SOL    HW1 4643   1.767   6.912   8.180 -1.7507  0.2587 -0.0858
 1355SOL    HW2 4644   1.805   6.859   8.316  1.1883  1.0765 -0.5315
 1356SOL     OW 4645   1.986   2.422   5.610  0.2134 -0.4730  0.0872
 1356SOL    HW1 4646   2.053   2.361   5.642  0.5184  0.3608  1.0884
 1356SOL    HW2 4647   2.034   2.503   5.592 -0.5224  0.1687  0.9114
 1357SOL     OW 4648   3.921   3.618   7.881 -0.0294 -0.4296  0.6671
 1357SOL    HW1 4649   4.004   3.643   7.921 -0.4549  1.1115  0.6293
 1357SOL    HW2 4650   3.880   3.700   7.856 -0.6178 -1.2537 -1.2953
 1358SOL     OW 4651   8.785   0.019   4.075 -0.5164 -0.0200 -0.2591
 1358SOL    HW1 4652   8.725   0.043   4.145 -0.0039  0.0170  0.1774
 1358SOL    HW2 4653   8.861  -0.018   4.119 -0.1205  0.1393 -0.7810
 1359SOL     OW 4654   3.099   4.751   0.196 -0.3404 -0.2512  0.1805
 1359SOL    HW1 4655   3.028   4.733   0.258  0.5027 -4.2972  0.2575
 1359SOL    HW2 4656   3.057   4.745   0.110 -0.4861 -0.3586  0.2587
 1360SOL     OW 4657   4.210   6.600   2.753 -0.0018 -0.1756  0.1012
 1360SOL    HW1 4658   4.212   6.529   2.689 -0.1466  0.6526 -0.8472
 1360SOL    HW2 4659   4.133   6.580   2.808  0.8183 -1.5376  0.8153
 1361SOL     OW 4660   2.849   6.233   6.411 -0.7545 -0.6000  0.0282
 1361SOL    HW1 4661   2.916   6.167   6.393  0.3324 -0.1811  2.1405
 1361SOL    HW2 4662   2.766   6.186   6.404  0.0372 -2.7533  3.0676
 1362SOL     OW 4663   6.556   2.751   9.431 -0.5415  0.3975 -0.4365
 1362SOL    HW1 4664   6.555   2.834   9.384 -1.4902  1.1337  0.8210
 1362SOL    HW2 4665   6.466   2.741   9.463  0.2097  0.3217  1.8415
 1363SOL     OW 4666   3.338   9.853   3.798 -0.0767  0.1648  0.6152
 1363SOL    HW1 4667   3.378   9.915   3.737 -3.3386 -0.7046 -2.7590
 1363SOL    HW2 4668   3.276   9.907   3.848  1.2300  0.5286  1.9192
 1364SOL     OW 4669   8.623   4.653   2.574 -0.6076  0.4166 -0.2869
 1364SOL    HW1 4670   8.561   4.602   2.522  0.3103  1.1810 -2.2448
 1364SOL    HW2 4671   8.611   4.744   2.544  2.5159  0.4126 -2.0343
 1365SOL     OW 4672   6.996   4.848   6.478  0.4543 -0.0680 -0.2573
 1365SOL    HW1 4673   6.950   4.911   6.422 -0.0483 -1.4722 -1.4764
 1365SOL    HW2 4674   6.979   4.763   6.438  0.6878 -1.0587  1.6470
 1366SOL     OW 4675   4.546   4.270   9.820  0.3467  0.7184  0.1444
 1366SOL    HW1 4676   4.517   4.356   9.851 -0.0597  1.3304 -1.8448
 1366SOL    HW2 4677   4.603   4.238   9.891  0.6734  2.6981  0.8445
 1367SOL     OW 4678   2.952   8.230   6.197 -0.3268 -0.7393  0.2321
 1367SOL    HW1 4679   2.863   8.243   6.166 -0.2270 -0.6393 -0.0100
 1367SOL    HW2 4680   3.003   8.210   6.118 -0.3315 -1.8324  0.4848
 1368SOL     OW 4681   9.194   7.693   0.798  0.2480 -0.3069 -0.4640
 1368SOL    HW1 4682   9.126   7.644   0.751  0.3517  0.0796 -1.0393
 1368SOL    HW2 4683   9.257   7.627   0.826 -0.6166 -0.7356  0.5226
 1369SOL     OW 4684   6.722   7.878   4.586  0.7373 -0.1058 -0.3047
 1369SOL    HW1 4685   6.644   7.906   4.634 -0.3397 -0.1630 -1.9302
 1369SOL    HW2 4686   6.702   7.787   4.561  2.0056 -0.6460  0.5664
 1370SOL     OW 4687   6.354   9.830   3.446 -0.2922  0.5957 -0.4881
 1370SOL    HW1 4688   6.439   9.849   3.485 -1.3612  0.5715  2.0529
 1370SOL    HW2 4689   6.353   9.735   3.434  0.2941  0.6753 -1.2568
 1371SOL     OW 4690   9.744   9.841   4.563 -0.3027  0.2766 -0.0767
 1371SOL    HW1 4691   9.720   9.880   4.647  2.0622  1.0350  0.3155
 1371SOL    HW2 4692   9.676   9.870   4.503 -2.3981 -0.7641  1.6171
 1372SOL     OW 4693   3.260   1.366   3.101 -0.2755 -0.7339 -0.2495
 1372SOL    HW1 4694   3.233   1.454   3.127  0.2739 -1.1808  2.0056
 1372SOL    HW2 4695   3.341   1.378   3.052 -1.1890  0.1109 -1.6373
 1373SOL     OW 4696   6.088   8.295   9.285  0.2984 -0.1243 -0.2822
 1373SOL    HW1 4697   6.167   8.244   9.302  1.3113  1.2260 -0.7119
 1373SOL    HW2 4698   6.057   8.265   9.199  0.6031 -0.3350 -0.3187
 1374SOL     OW 4699   0.722   8.014   1.129  0.5322 -0.0373 -0.0306
 1374SOL    HW1 4700   0.655   7.977   1.186  1.1138  0.7869  1.2166
 1374SOL    HW2 4701   0.754   7.939   1.078 -0.0880 -0.7636  0.6274
 1375SOL     OW 4702   9.256   9.010   5.597  0.1982 -0.1782  0.2223
 1375SOL    HW1 4703   9.311   8.955   5.542 -1.0622 -1.5178  0.2519
 1375SOL    HW2 4704   9.169   8.972   5.591 -0.5018  1.1837  1.1113
 1376SOL     OW 4705   1.198   1.991   4.047  0.5193 -0.2524  0.2444
 1376SOL    HW1 4706   1.189   1.984   4.142  0.5076  0.0280  0.2639
 1376SOL    HW2 4707   1.157   2.074   4.025  0.4603 -0.3487 -0.0158
 1377SOL     OW 4708   7.217   4.523   0.661  0.8324 -0.0826  0.3129
 1377SOL    HW1 4709   7.141   4.492   0.612  1.2427 -0.6037 -0.0025
 1377SOL    HW2 4710   7.184   4.536   0.750 -0.1735  1.8329 -0.2809
 1378SOL     OW 4711   3.225   6.513   3.642  0.0832 -0.2535  1.1297
 1378SOL    HW1 4712   3.286   6.541   3.710  1.0617  0.2703  0.0831
 1378SOL    HW2 4713   3.268   6.538   3.560 -2.2696  1.6932  0.3722
 1379SOL     OW 4714   3.636   6.028   0.438  0.1794  0.4551  0.0790
 1379SOL    HW1 4715   3.633   5.988   0.525 -0.4635  0.0733 -0.1038
 1379SOL    HW2 4716   3.643   5.954   0.378  1.2682  0.7489 -0.1766
 1380SOL     OW 4717   6.659   9.640   5.443 -0.1408  0.4997  0.1266
 1380SOL    HW1 4718   6.654   9.592   5.525  1.4377 -0.9285 -0.5533
 1380SOL    HW2 4719   6.738   9.694   5.451  1.5625 -1.6294 -1.3801
 1381SOL     OW 4720   6.352   5.269   1.577  0.0494 -0.1108  0.1177
 1381SOL    HW1 4721   6.308   5.349   1.551 -2.6104 -1.7174 -0.7105
 1381SOL    HW2 4722   6.320   5.202   1.516  0.4982 -2.2225  2.0245
 1382SOL     OW 4723   4.378   7.690   4.332  0.5385 -0.4972  0.3164
 1382SOL    HW1 4724   4.462   7.680   4.377  0.5880  0.3077  0.4194
 1382SOL    HW2 4725   4.316   7.639   4.385  1.0131 -1.3703  0.0536
 1383SOL     OW 4726   6.562   0.483   1.051 -0.2867  0.6196 -0.4014
 1383SOL    HW1 4727   6.538   0.556   0.995 -3.0677 -0.0445 -0.2203
 1383SOL    HW2 4728   6.620   0.521   1.118 -1.1897  2.5257 -0.6428
 1384SOL     OW 4729   5.329   1.593   5.247 -0.0311 -0.2914  0.5424
 1384SOL    HW1 4730   5.257   1.542   5.210 -1.3826  0.3679  2.1191
 1384SOL    HW2 4731   5.339   1.668   5.188 -1.4684  0.2250  0.9195
 1385SOL     OW 4732   5.081   0.059   9.111 -0.1500 -0.2069  0.5686
 1385SOL    HW1 4733   5.085   0.035   9.019 -0.8028 -1.6206  0.8825
 1385SOL    HW2 4734   5.008   0.007   9.146 -1.2892  1.8431  1.4338
 1386SOL     OW 4735   4.953   3.603   7.915 -0.1619  0.8970  0.4017
 1386SOL    HW1 4736   5.012   3.528   7.918 -0.9830  0.2305  0.2971
 1386SOL    HW2 4737   4.930   3.612   7.822 -0.4859  0.9223  0.4803
 1387SOL     OW 4738   2.833   4.315   1.726 -0.2231  0.0704  0.3372
 1387SOL    HW1 4739   2.789   4.400   1.720  1.1061  0.7236 -0.8561
 1387SOL    HW2 4740   2.892   4.324   1.800  0.0963  0.2806  0.0589
 1388SOL     OW 4741   0.579   6.333   0.111 -0.2590  0.0940 -0.3178
 1388SOL    HW1 4742   0.652   6.391   0.133 -0.4023  0.2595 -0.2854
 1388SOL    HW2 4743   0.584   6.262   0.175 -0.5212  0.4397  0.0871
 1389SOL     OW 4744   5.517   9.177   8.114  0.6251 -0.1298  0.2244
 1389SOL    HW1 4745   5.538   9.084   8.122  0.7107 -0.0497  0.9962
 1389SOL    HW2 4746   5.548   9.201   8.026 -1.0388 -1.2365 -0.7102
 1390SOL     OW 4747   1.855   6.026   0.437  0.3453 -0.1165 -0.0842
 1390SOL    HW1 4748   1.866   6.094   0.504 -1.9078  0.8782 -0.6214
 1390SOL    HW2 4749   1.919   6.047   0.370 -0.2039  1.4201 -0.1622
 1391SOL     OW 4750   2.895   5.534   2.808  0.0385  0.1527  0.1543
 1391SOL    HW1 4751   2.830   5.488   2.862 -2.2648  1.2979 -1.4304
 1391SOL    HW2 4752   2.877   5.627   2.824 -0.8509  0.5371 -2.5679
 1392SOL     OW 4753   1.734   3.467   4.082  0.6270  0.2988 -0.8794
 1392SOL    HW1 4754   1.760   3.454   3.991 -1.0516  1.3159 -1.5476
 1392SOL    HW2 4755   1.641   3.491   4.078 -0.4239 -2.7365  1.3306
 1393SOL     OW 4756   1.139   9.692   1.143 -0.5154  0.3085  0.7849
 1393SOL    HW1 4757   1.111   9.701   1.234 -1.2273 -0.3439  0.6410
 1393SOL    HW2 4758   1.068   9.645   1.100 -0.0427  0.3179 -0.0422
 1394SOL     OW 4759   1.473   2.776   7.534 -0.1520  0.7886  0.5116
 1394SOL    HW1 4760   1.557   2.822   7.542  0.5215 -0.1611 -0.8939
 1394SOL    HW2 4761   1.481   2.724   7.455 -1.0589 -1.4302  1.8001
 1395SOL     OW 4762   9.360   4.784   7.199  0.2214  0.0072  0.7967
 1395SOL    HW1 4763   9.270   4.753   7.208  0.0692  0.5885  1.3393
 1395SOL    HW2 4764   9.394   4.785   7.288  0.4710  0.6523  0.6993
 1396SOL     OW 4765   3.184   7.334   6.539  0.4479  0.0523 -0.1740
 1396SOL    HW1 4766   3.121   7.406   6.540  0.7866  0.3528 -0.3425
 1396SOL    HW2 4767   3.172   7.292   6.454  0.0503 -0.2678  0.0403
 1397SOL     OW 4768   2.490   1.684   1.988 -0.2971  0.3937  0.0908
 1397SOL    HW1 4769   2.581   1.666   1.967 -0.3502 -0.2785  0.3874
 1397SOL    HW2 4770   2.489   1.775   2.016  0.4461  0.1647  0.9144
 1398SOL     OW 4771   7.145   7.419   9.367 -0.0926 -0.2045 -0.3066
 1398SOL    HW1 4772   7.100   7.494   9.407  2.1484  0.5168  1.0492
 1398SOL    HW2 4773   7.075   7.370   9.324 -1.7935  2.1142 -0.4080
 1399SOL     OW 4774   2.353   8.280   6.187 -0.2589 -0.4554  0.3308
 1399SOL    HW1 4775   2.350   8.231   6.269 -2.1165 -0.9219  0.0124
 1399SOL    HW2 4776   2.263   8.282   6.156  0.1392  1.1938 -0.8471
 1400SOL     OW 4777   6.635   5.519   1.427  0.2691 -0.2732  0.0357
 1400SOL    HW1 4778   6.540   5.525   1.426  0.3275  0.8624 -0.9325
 1400SOL    HW2 4779   6.661   5.563   1.508 -0.0202 -0.6734  0.3517
 1401SOL     OW 4780   6.421   2.186   1.405  0.0154  0.3534  0.0854
 1401SOL    HW1 4781   6.379   2.264   1.369  0.5104  0.0565 -1.1605
 1401SOL    HW2 4782   6.431   2.206   1.498  2.4157  2.8538 -0.5906
 1402SOL     OW 4783   8.992   8.469   3.487 -0.1645  0.2677  0.4218
 1402SOL    HW1 4784   9.030   8.440   3.405 -0.4892  0.5204  0.1820
 1402SOL    HW2 4785   9.035   8.415   3.554  1.3927  1.2392  0.2723
 1403SOL     OW 4786   5.189   6.272   3.099 -0.3623  0.0076  0.3272
 1403SOL    HW1 4787   5.098   6.292   3.119 -0.0964 -1.5789  3.8752
 1403SOL    HW2 4788   5.237   6.350   3.128 -0.4715  0.7505 -1.3360
 1404SOL     OW 4789   8.801   3.874   1.121 -0.2257  0.0142 -0.5190
 1404SOL    HW1 4790   8.832   3.816   1.190 -1.3988 -0.8261 -0.6712
 1404SOL    HW2 4791   8.725   3.830   1.085  0.0026  0.7296 -1.9521
 1405SOL     OW 4792   9.176   4.234   6.187  0.8195  0.2442  0.1868
 1405SOL    HW1 4793   9.143   4.154   6.227  0.6041  0.2986  0.1237
 1405SOL    HW2 4794   9.136   4.235   6.099  0.2892  0.7481  0.4253
 1406SOL     OW 4795   6.965   8.800   3.238  0.4225  0.2640  0.6516
 1406SOL    HW1 4796   6.929   8.838   3.158  0.3937  0.1734  0.6223
 1406SOL    HW2 4797   6.953   8.706   3.228 -0.5994  0.3234  1.2552
 1407SOL     OW 4798   3.095   8.123   3.296 -0.1776  0.3442  0.1683
 1407SOL    HW1 4799   3.045   8.059   3.346 -0.7746 -0.0974 -0.9538
 1407SOL    HW2 4800   3.031   8.163   3.238  0.2928  1.6090  0.4886
 1408SOL     OW 4801   8.093   1.246   4.457 -0.4768  0.1285  0.3129
 1408SOL    HW1 4802   8.006   1.265   4.493 -1.2868 -0.5865 -1.1861
 1408SOL    HW2 4803   8.081   1.249   4.363  1.1543  0.0131  0.0697
 1409SOL     OW 4804   2.569   8.754   7.250  0.1769  0.0996  0.4235
 1409SOL    HW1 4805   2.646   8.810   7.258  0.3825  0.2908 -2.1140
 1409SOL    HW2 4806   2.496   8.810   7.278  0.6373  0.8653  0.1283
 1410SOL     OW 4807   6.221   8.991   3.053 -0.4183 -0.2528 -0.5921
 1410SOL    HW1 4808   6.130   9.006   3.078 -0.2156  0.8120 -0.4443
 1410SOL    HW2 4809   6.222   8.903   3.016 -1.9832  0.5573 -2.7518
 1411SOL     OW 4810   0.825   2.577   4.249  0.0886  0.3600  0.0571
 1411SOL    HW1 4811   0.835   2.563   4.343  0.2036 -1.2343 -0.1552
 1411SOL    HW2 4812   0.867   2.661   4.233 -0.2840  0.8567  1.4783
 1412SOL     OW 4813   6.610   8.022   8.994 -0.6053 -0.1155  0.1898
 1412SOL    HW1 4814   6.551   8.060   8.929 -0.6026 -0.0445  0.2278
 1412SOL    HW2 4815   6.560   8.027   9.076 -0.5779 -0.1290  0.2071
 1413SOL     OW 4816   8.482   2.403   5.788  0.5935  0.0972  0.1135
 1413SOL    HW1 4817   8.508   2.454   5.711  1.3396  0.4799  0.6145
 1413SOL    HW2 4818   8.400   2.443   5.816  1.5807  1.5865  0.9936
 1414SOL     OW 4819   4.825   5.128   5.973  0.6062 -0.0140 -0.1113
 1414SOL    HW1 4820   4.847   5.037   5.949  1.5659  0.4743 -1.2097
 1414SOL    HW2 4821   4.781   5.163   5.895 -0.3199  0.2980  0.5354
 1415SOL     OW 4822   8.502   7.663   7.188  0.2286 -0.4874 -0.6087
 1415SOL    HW1 4823   8.513   7.669   7.283  0.9255  0.1909 -0.7136
 1415SOL    HW2 4824   8.434   7.726   7.167  0.6206 -0.0682 -0.6367
 1416SOL     OW 4825   1.851   1.016   3.159 -0.2486  0.2502 -0.2550
 1416SOL    HW1 4826   1.856   1.064   3.076 -1.6875  0.4545 -0.2375
 1416SOL    HW2 4827   1.779   0.955   3.148 -1.3838  1.2299  1.3120
 1417SOL     OW 4828   8.175   0.005   2.594 -0.3258 -0.9235  0.0415
 1417SOL    HW1 4829   8.085   0.020   2.567 -0.3135 -0.9634 -0.0213
 1417SOL    HW2 4830   8.224  -0.006   2.512 -0.0478  0.3192  0.0091
 1418SOL     OW 4831   4.845   0.500   8.420 -0.2948  0.2023 -0.0617
 1418SOL    HW1 4832   4.922   0.454   8.386  0.9994  1.8400  0.5007
 1418SOL    HW2 4833   4.787   0.431   8.451  1.6724 -1.0595  1.0012
 1419SOL     OW 4834   7.422   0.058   6.385  0.5703  0.5792 -0.4849
 1419SOL    HW1 4835   7.365   0.125   6.349 -0.1388  1.2432  1.7365
 1419SOL    HW2 4836   7.441   0.087   6.475  3.9235  0.0693 -0.9020
 1420SOL     OW 4837   7.198   7.297   4.925 -0.1225 -0.8612 -0.3577
 1420SOL    HW1 4838   7.177   7.390   4.928  1.3343 -0.5228  0.5698
 1420SOL    HW2 4839   7.290   7.293   4.951 -0.0580 -2.5349 -0.7497
 1421SOL     OW 4840   5.957   0.691   3.632 -0.2731 -1.0267  0.2343
 1421SOL    HW1 4841   5.964   0.662   3.541  1.7336 -0.4898  0.1643
 1421SOL    HW2 4842   5.904   0.771   3.628  0.2204 -0.7271 -0.5424
 1422SOL     OW 4843   0.290   8.169   5.016  0.5880  0.0069  0.2359
 1422SOL    HW1 4844   0.294   8.264   5.012 -1.4465  0.2347  1.9924
 1422SOL    HW2 4845   0.255   8.142   4.931  2.5362  0.6385 -0.8355
 1423SOL     OW 4846   7.193   5.295   2.911  0.4145 -0.6052  0.2859
 1423SOL    HW1 4847   7.192   5.317   2.818  0.7718 -1.7012  0.0083
 1423SOL    HW2 4848   7.129   5.225   2.920  0.7706 -0.8769  0.7598
 1424SOL     OW 4849   6.320   3.577   9.740  0.0706 -0.9668  0.1893
 1424SOL    HW1 4850   6.355   3.644   9.798 -0.3791 -1.6395  1.2604
 1424SOL    HW2 4851   6.338   3.610   9.652  1.7834 -0.4700  0.6862
 1425SOL     OW 4852   4.933   5.844   1.494 -0.4022  0.2522  0.5971
 1425SOL    HW1 4853   5.006   5.855   1.555  0.0293  1.1302 -0.0544
 1425SOL    HW2 4854   4.858   5.884   1.538  0.1698  1.9603  0.0896
 1426SOL     OW 4855   6.777   9.333   7.031 -0.2538 -0.0528 -0.8344
 1426SOL    HW1 4856   6.795   9.344   6.938 -0.7031  2.9044 -0.6675
 1426SOL    HW2 4857   6.808   9.415   7.071 -0.1383 -1.2097  1.6223
 1427SOL     OW 4858   4.998   1.086   4.011  0.1337  0.1235 -0.4266
 1427SOL    HW1 4859   4.997   0.993   4.031  0.5539  0.0903 -0.5577
 1427SOL    HW2 4860   5.088   1.113   4.026  0.4096  0.1523 -2.0105
 1428SOL     OW 4861   5.928   1.351   0.516 -0.2126  0.1161 -0.0788
 1428SOL    HW1 4862   5.859   1.404   0.555 -1.2733 -1.2859 -0.0003
 1428SOL    HW2 4863   5.942   1.390   0.429  0.9097  2.1384  0.9390
 1429SOL     OW 4864   5.481   4.396   8.366  0.2524 -0.0470  0.5614
 1429SOL    HW1 4865   5.391   4.396   8.399  0.6666 -0.3916  1.7677
 1429SOL    HW2 4866   5.476   4.354   8.280 -0.7903  0.2980  0.4491
 1430SOL     OW 4867   5.139   0.143   1.313 -0.2616  0.6011 -0.2698
 1430SOL    HW1 4868   5.092   0.110   1.389 -0.3547 -1.2235 -1.0748
 1430SOL    HW2 4869   5.074   0.196   1.266 -0.6886  0.3721  0.0565
 1431SOL     OW 4870   6.187   5.210   8.510 -0.1076  0.1435 -0.0172
 1431SOL    HW1 4871   6.212   5.137   8.453 -0.1615  0.4763 -0.4764
 1431SOL    HW2 4872   6.271   5.246   8.540 -0.0876 -0.5165  0.7551
 1432SOL     OW 4873   6.174   7.923   3.668  0.3204  0.7702  0.0247
 1432SOL    HW1 4874   6.167   7.903   3.762  0.2757  1.9241  0.2898
 1432SOL    HW2 4875   6.114   7.862   3.626 -1.4460  1.7650  0.9849
 1433SOL     OW 4876   5.632   9.436   8.494 -0.2236 -0.2690  0.5339
 1433SOL    HW1 4877   5.607   9.528   8.492 -1.9813 -0.6785 -1.9542
 1433SOL    HW2 4878   5.645   9.416   8.586 -0.1865  2.3455  1.1699
 1434SOL     OW 4879   5.044   6.431   1.405 -0.4640 -0.5735 -0.3090
 1434SOL    HW1 4880   5.052   6.517   1.364 -1.3183 -1.3276 -2.1568
 1434SOL    HW2 4881   5.012   6.450   1.493  2.3912  1.1658  0.5220
 1435SOL     OW 4882   7.309   2.120   6.177  0.0647 -0.4764 -0.3103
 1435SOL    HW1 4883   7.358   2.111   6.259 -0.3058  2.3050  0.2910
 1435SOL    HW2 4884   7.234   2.175   6.199 -0.6426 -0.5759 -2.2947
 1436SOL     OW 4885   0.134   3.197   7.703  0.3526  0.3854  0.0695
 1436SOL    HW1 4886   0.207   3.256   7.682  1.6418 -0.8859  0.7572
 1436SOL    HW2 4887   0.108   3.160   7.619 -0.7641  2.1924 -0.4355
 1437SOL     OW 4888   0.971   8.736   0.692  0.4891  0.4653  0.5107
 1437SOL    HW1 4889   0.894   8.793   0.699 -0.4132 -0.7923  1.1671
 1437SOL    HW2 4890   1.024   8.760   0.769 -0.6968 -0.7046  1.7389
 1438SOL     OW 4891   2.024   3.474   7.386  0.1553  0.3027 -0.2699
 1438SOL    HW1 4892   2.080   3.516   7.321  1.0110  2.1431  1.5409
 1438SOL    HW2 4893   1.986   3.547   7.435 -2.2828 -0.9564 -0.1191
 1439SOL     OW 4894   8.289   0.301   9.935  0.2751  0.5407  0.0478
 1439SOL    HW1 4895   8.383   0.284   9.926  0.3608  0.0974  1.4061
 1439SOL    HW2 4896   8.283   0.356  10.013 -0.5435  1.1524 -0.4472
 1440SOL     OW 4897   7.631   4.472   3.247  0.2500 -0.8011 -0.0668
 1440SOL    HW1 4898   7.650   4.558   3.285  0.4597 -0.9346  0.1305
 1440SOL    HW2 4899   7.565   4.490   3.180 -1.4063 -0.7744  1.4815
 1441SOL     OW 4900   0.586   1.240   0.647  0.1674  0.3561 -0.3269
 1441SOL    HW1 4901   0.651   1.216   0.581  0.6518  1.6259 -0.3437
 1441SOL    HW2 4902   0.522   1.293   0.599 -0.3995 -0.1310 -0.1198
 1442SOL     OW 4903   5.055   9.072   7.985  0.0300 -0.0213  0.3154
 1442SOL    HW1 4904   5.133   9.032   7.946  0.3734 -0.7770  1.6931
 1442SOL    HW2 4905   5.090   9.138   8.044 -0.3834 -0.1098  0.6632
 1443SOL     OW 4906   5.883   5.366   7.259 -0.1941 -0.2516 -0.2405
 1443SOL    HW1 4907   5.818   5.296   7.252  0.7779 -1.2626  0.5442
 1443SOL    HW2 4908   5.898   5.394   7.168 -1.2436 -0.4379 -0.4783
 1444SOL     OW 4909   9.601   9.501   1.195  0.4708 -0.3186  0.2858
 1444SOL    HW1 4910   9.602   9.569   1.128  2.0603 -2.1238 -1.6916
 1444SOL    HW2 4911   9.656   9.536   1.266 -1.3285  1.6691  0.7860
 1445SOL     OW 4912   0.720   7.928   8.834 -0.1254 -0.2911 -0.0080
 1445SOL    HW1 4913   0.811   7.947   8.856  0.2182 -2.4620  0.6358
 1445SOL    HW2 4914   0.670   7.968   8.906  0.2372  1.2408 -0.5597
 1446SOL     OW 4915  -0.014   0.119   5.106 -0.1558  0.4573 -0.1208
 1446SOL    HW1 4916  -0.006   0.070   5.188  1.0289  0.7363 -0.0553
 1446SOL    HW2 4917   0.076   0.134   5.078 -0.3974  3.4934  0.3902
 1447SOL     OW 4918   3.105   5.673   7.239 -0.4099 -0.0897  0.2368
 1447SOL    HW1 4919   3.027   5.666   7.184 -0.1353  1.8846 -0.4830
 1447SOL    HW2 4920   3.173   5.709   7.182  0.4445  0.1784  1.3659
 1448SOL     OW 4921   6.735   2.390   1.563  0.0141  0.2514  0.3443
 1448SOL    HW1 4922   6.795   2.429   1.626  2.6414  2.7842 -3.3163
 1448SOL    HW2 4923   6.771   2.303   1.546 -0.2256 -0.1098  1.5697
 1449SOL     OW 4924   5.087   3.226   0.764  0.0946  0.5170 -0.7224
 1449SOL    HW1 4925   5.170   3.194   0.729  0.9091  0.9589  0.7511
 1449SOL    HW2 4926   5.069   3.169   0.838 -2.3255 -1.3190 -2.5382
 1450SOL     OW 4927   6.421   5.750   8.960  0.2596  0.9766  0.1752
 1450SOL    HW1 4928   6.511   5.779   8.977  0.8443 -0.2451 -0.7673
 1450SOL    HW2 4929   6.417   5.661   8.994 -0.9278  1.3550  1.1487
 1451SOL     OW 4930   2.788   4.933   9.080 -0.1567  0.0781  1.0153
 1451SOL    HW1 4931   2.777   4.977   8.996  2.6007  0.9908  1.0444
 1451SOL    HW2 4932   2.718   4.969   9.135 -2.2799 -0.8444 -0.9226
 1452SOL     OW 4933   0.658   9.751   4.085  0.2397 -0.5354 -0.2449
 1452SOL    HW1 4934   0.588   9.743   4.021  1.0352  0.0830 -1.2107
 1452SOL    HW2 4935   0.707   9.669   4.078 -0.3412 -0.9525  0.4052
 1453SOL     OW 4936   8.629   8.111   7.251 -0.1082  0.0249 -0.5521
 1453SOL    HW1 4937   8.559   8.159   7.294 -0.3276  0.6022 -1.5336
 1453SOL    HW2 4938   8.694   8.178   7.229  1.2832 -0.6227  1.2736
 1454SOL     OW 4939   5.895   0.433   1.036 -0.1060  0.1382 -0.1187
 1454SOL    HW1 4940   5.898   0.477   1.121 -0.2711  0.0568 -0.0706
 1454SOL    HW2 4941   5.981   0.451   0.996 -0.3675  0.9600 -0.3304
 1455SOL     OW 4942   4.526   2.856   8.367 -0.5239 -0.4503 -0.0705
 1455SOL    HW1 4943   4.560   2.802   8.295  1.8507  2.0066 -0.9631
 1455SOL    HW2 4944   4.474   2.924   8.323  0.6390  0.8515  0.4771
 1456SOL     OW 4945   8.828   2.616   6.836 -0.2615  0.1116 -0.4276
 1456SOL    HW1 4946   8.873   2.615   6.751  1.8977  1.8799  0.6061
 1456SOL    HW2 4947   8.736   2.600   6.814  0.4448 -1.0758 -2.9169
 1457SOL     OW 4948   6.322   2.117   2.615  0.3840  0.5942 -0.7415
 1457SOL    HW1 4949   6.245   2.170   2.592  0.2801  1.0710  0.6149
 1457SOL    HW2 4950   6.285   2.038   2.655  0.5738 -0.0087 -1.7168
 1458SOL     OW 4951   0.528   6.983   8.601  0.1477  0.3690  0.5147
 1458SOL    HW1 4952   0.558   6.992   8.511 -1.8794  0.9896 -0.1458
 1458SOL    HW2 4953   0.573   7.053   8.649 -0.1001  1.1562 -0.3797
 1459SOL     OW 4954   7.096   0.234   8.036  0.0408  0.0953  0.2422
 1459SOL    HW1 4955   7.081   0.182   8.115 -0.2632 -0.1277  0.0392
 1459SOL    HW2 4956   7.180   0.202   8.003 -0.1821 -0.3236  0.0750
 1460SOL     OW 4957   2.154   7.813   2.140  0.2523 -0.0915 -0.3533
 1460SOL    HW1 4958   2.155   7.887   2.080 -1.0283 -0.0573 -0.3652
 1460SOL    HW2 4959   2.137   7.737   2.085 -0.3478 -0.1350 -0.1199
 1461SOL     OW 4960   7.589   9.225   4.781  0.0080  0.4480  0.0232
 1461SOL    HW1 4961   7.641   9.290   4.734 -0.7540  1.1908  0.1748
 1461SOL    HW2 4962   7.626   9.224   4.869  0.6748 -0.0834 -0.2505
 1462SOL     OW 4963   6.562   0.362   5.181  0.0372 -0.2253  0.2876
 1462SOL    HW1 4964   6.588   0.400   5.097 -0.6158  4.5164  1.9341
 1462SOL    HW2 4965   6.642   0.323   5.215  2.1372  3.4124  0.0425
 1463SOL     OW 4966   5.075   7.308   6.481  0.3383  0.0548 -0.4108
 1463SOL    HW1 4967   5.106   7.342   6.565 -1.6061  3.1405 -0.7759
 1463SOL    HW2 4968   4.982   7.290   6.494  0.3306 -0.8622 -1.5215
 1464SOL     OW 4969   7.252   6.230   9.552  0.0196 -0.4436  0.1759
 1464SOL    HW1 4970   7.256   6.236   9.457  0.6569  1.5629  0.2868
 1464SOL    HW2 4971   7.328   6.177   9.576  0.2792 -0.3331 -0.3868
 1465SOL     OW 4972   9.687   6.313   4.254 -0.4368 -0.0071 -0.2746
 1465SOL    HW1 4973   9.747   6.335   4.183 -0.1080 -0.0022  0.0022
 1465SOL    HW2 4974   9.600   6.322   4.215 -0.2565 -0.1356 -0.7134
 1466SOL     OW 4975   2.508   2.658   3.066 -0.3644  0.2113  0.2197
 1466SOL    HW1 4976   2.556   2.738   3.085  1.8364 -0.8296 -0.5259
 1466SOL    HW2 4977   2.510   2.609   3.148 -1.4995  0.7941  0.6079
 1467SOL     OW 4978   4.951   3.035   6.696  0.2345 -0.4142  0.1441
 1467SOL    HW1 4979   4.979   3.125   6.679 -0.6051 -0.4231 -1.3796
 1467SOL    HW2 4980   4.906   3.039   6.781  0.2578  0.5823  0.1169
 1468SOL     OW 4981   9.319   8.301   1.805  0.3453 -0.1434  0.7808
 1468SOL    HW1 4982   9.342   8.393   1.793 -0.9581  0.3549  1.8355
 1468SOL    HW2 4983   9.396   8.262   1.844  1.7931 -0.0804 -1.7655
 1469SOL     OW 4984   8.029   9.789   1.405 -0.4928 -0.1510 -0.6918
 1469SOL    HW1 4985   7.970   9.742   1.346 -2.0300  0.2644  0.4797
 1469SOL    HW2 4986   8.101   9.727   1.419 -0.6241 -0.6802 -2.0963
 1470SOL     OW 4987   4.326   5.614   4.357 -0.3892 -0.2488  0.0881
 1470SOL    HW1 4988   4.309   5.562   4.278  0.7353  0.7132 -0.8189
 1470SOL    HW2 4989   4.251   5.597   4.413 -2.9884  1.6286 -2.5217
 1471SOL     OW 4990   2.344   8.867   7.286 -0.3306  0.2169 -0.2788
 1471SOL    HW1 4991   2.309   8.788   7.244 -2.2403  2.2916 -2.9146
 1471SOL    HW2 4992   2.272   8.897   7.343 -0.2995  0.9548 -0.6219
 1472SOL     OW 4993   7.049   4.609   7.972  0.0697 -0.4431  0.0942
 1472SOL    HW1 4994   7.089   4.687   7.934  0.2367 -1.3285 -1.6319
 1472SOL    HW2 4995   7.025   4.556   7.897  1.4818 -2.8399  1.2294
 1473SOL     OW 4996   1.465   3.065   6.064  0.0216  0.0229  1.0145
 1473SOL    HW1 4997   1.463   3.072   5.969 -2.9062  2.4027  1.1296
 1473SOL    HW2 4998   1.462   2.971   6.081 -0.9412 -0.4217 -1.2799
 1474SOL     OW 4999   4.707   1.367   8.555 -0.1496  0.2814  0.3153
 1474SOL    HW1 5000   4.778   1.408   8.506 -1.7821  0.4859 -2.0276
 1474SOL    HW2 5001   4.737   1.277   8.571  1.5288  0.9768  1.4374
 1475SOL     OW 5002   6.609   7.792   3.654 -0.2843 -0.2648  0.0768
 1475SOL    HW1 5003   6.606   7.781   3.749  0.3446  0.5045  0.1936
 1475SOL    HW2 5004   6.543   7.859   3.635  0.1621  0.1799  0.0719
 1476SOL     OW 5005   1.057   3.697   2.018 -0.2210 -0.1075 -0.7088
 1476SOL    HW1 5006   0.990   3.636   1.987 -0.8610  1.3158 -2.3061
 1476SOL    HW2 5007   1.007   3.772   2.051  0.5472  1.1715 -2.3415
 1477SOL     OW 5008   4.152   7.836   1.570  0.2608  0.0254  0.3217
 1477SOL    HW1 5009   4.219   7.778   1.606  0.3838  0.2785  0.4959
 1477SOL    HW2 5010   4.098   7.778   1.516  1.8960  0.1836 -1.6060
 1478SOL     OW 5011   3.649   8.398   2.479  0.2505  0.1556  0.0935
 1478SOL    HW1 5012   3.574   8.344   2.457 -0.0391 -0.6786  2.7792
 1478SOL    HW2 5013   3.721   8.362   2.428 -0.8401  0.0520 -1.4195
 1479SOL     OW 5014   6.317   0.870   2.139 -0.0024 -0.1749 -0.7953
 1479SOL    HW1 5015   6.305   0.775   2.131 -2.1889 -0.2418  1.9003
 1479SOL    HW2 5016   6.232   0.903   2.166  1.3211  2.2255  0.8279
 1480SOL     OW 5017   2.911   8.364   3.523 -0.1587  0.2703 -0.0923
 1480SOL    HW1 5018   2.933   8.279   3.562 -0.4200  0.1904 -0.1128
 1480SOL    HW2 5019   2.945   8.359   3.434  0.0129  0.2674 -0.0276
 1481SOL     OW 5020   4.113   5.905   1.410 -0.0679  0.3187 -0.0943
 1481SOL    HW1 5021   4.174   5.977   1.392  0.9188 -0.8000 -1.4200
 1481SOL    HW2 5022   4.042   5.946   1.458  0.5834  2.1389 -0.5901
 1482SOL     OW 5023   2.506   0.479   1.407  0.8534 -0.1073  0.0962
 1482SOL    HW1 5024   2.520   0.432   1.325  1.4126 -0.7582  0.5535
 1482SOL    HW2 5025   2.588   0.527   1.422 -0.0073  1.7779 -0.8182
 1483SOL     OW 5026   5.824   5.213   0.818  0.0582 -0.0109 -0.0685
 1483SOL    HW1 5027   5.868   5.148   0.763 -0.5179  0.5652 -1.2552
 1483SOL    HW2 5028   5.762   5.255   0.759  0.9066  2.1179  0.4579
 1484SOL     OW 5029   6.826   9.167   8.844  0.1803 -0.3788  0.3314
 1484SOL    HW1 5030   6.855   9.236   8.785  1.1452  0.0345  1.2426
 1484SOL    HW2 5031   6.802   9.214   8.924 -1.2244 -0.9101  0.2431
 1485SOL     OW 5032   7.448   5.036   2.170  0.5353  0.1468  0.3157
 1485SOL    HW1 5033   7.506   5.095   2.218  0.9774 -0.2388  0.2567
 1485SOL    HW2 5034   7.478   5.041   2.079 -0.0960  0.6302  0.1264
 1486SOL     OW 5035   6.835   5.079   4.144  0.3249 -0.6963  0.1810
 1486SOL    HW1 5036   6.768   5.146   4.133 -1.1033 -1.8336  1.5717
 1486SOL    HW2 5037   6.914   5.127   4.168 -0.4833  0.5210  0.4385
 1487SOL     OW 5038   9.738   9.767   8.518 -0.4628 -0.4619  0.0217
 1487SOL    HW1 5039   9.740   9.673   8.537  0.3501 -0.3387  0.6258
 1487SOL    HW2 5040   9.684   9.805   8.587  0.3789 -0.3303  0.6360
 1488SOL     OW 5041   0.383   4.902   3.301  0.3472 -0.5914  0.2776
 1488SOL    HW1 5042   0.308   4.897   3.241 -0.0646  0.2088  0.7139
 1488SOL    HW2 5043   0.414   4.811   3.307  1.1008 -0.5593 -2.0101
 1489SOL     OW 5044   6.129   3.208   0.804  1.1838  0.5153 -0.0823
 1489SOL    HW1 5045   6.087   3.263   0.871  0.1133 -1.9758  1.4303
 1489SOL    HW2 5046   6.056   3.175   0.752  1.8767  1.0573 -1.4465
 1490SOL     OW 5047   9.432   9.218   5.569 -0.1443 -0.1929 -0.2514
 1490SOL    HW1 5048   9.478   9.201   5.487  1.2707 -1.1393  0.7015
 1490SOL    HW2 5049   9.383   9.138   5.587 -1.1782  0.3419 -0.6081
 1491SOL     OW 5050   7.940   8.896   7.949  0.3607  0.0640 -0.2621
 1491SOL    HW1 5051   7.882   8.936   7.884 -0.5306  0.8664  0.9724
 1491SOL    HW2 5052   8.009   8.961   7.962  2.8620 -1.7136 -3.2398
 1492SOL     OW 5053   8.498   9.289   8.302  0.3664 -0.5915  0.1108
 1492SOL    HW1 5054   8.419   9.337   8.278  1.8829  2.0500 -0.0171
 1492SOL    HW2 5055   8.473   9.240   8.381 -1.6863 -0.7928 -0.5961
 1493SOL     OW 5056   0.270   7.498   4.210  0.3164  0.1652 -0.2043
 1493SOL    HW1 5057   0.247   7.588   4.233 -0.3178 -0.1482  0.4217
 1493SOL    HW2 5058   0.361   7.503   4.181  0.1446  1.0773 -0.6215
 1494SOL     OW 5059   7.517   6.125   8.040 -0.0212 -0.3766  0.2611
 1494SOL    HW1 5060   7.463   6.093   7.968 -0.2675 -0.3711  0.4408
 1494SOL    HW2 5061   7.489   6.074   8.115 -0.0778 -0.0795  0.4458
 1495SOL     OW 5062   6.711   4.496   1.001 -0.1073  0.1706  0.4980
 1495SOL    HW1 5063   6.655   4.418   0.999  0.2228 -0.0721  0.5364
 1495SOL    HW2 5064   6.779   4.474   1.065 -0.0820  0.5383  0.5959
 1496SOL     OW 5065   2.724   3.489   7.569  0.3672 -0.3703 -0.0176
 1496SOL    HW1 5066   2.696   3.545   7.641 -0.4114  1.9886 -2.0337
 1496SOL    HW2 5067   2.816   3.469   7.589  1.0235  2.5347  0.3267
 1497SOL     OW 5068   9.816   5.634   0.107  0.1200  0.8580  0.7562
 1497SOL    HW1 5069   9.904   5.661   0.081  0.1420 -0.5664 -0.8388
 1497SOL    HW2 5070   9.824   5.540   0.125 -1.1683  0.6007  0.0965
 1498SOL     OW 5071   6.347   9.781   0.388  0.1933  0.4101 -0.2238
 1498SOL    HW1 5072   6.304   9.696   0.395 -0.6389  0.7362 -1.2232
 1498SOL    HW2 5073   6.350   9.814   0.478 -0.9001  0.0133 -0.0370
 1499SOL     OW 5074   8.253   1.656   1.151 -0.6477  0.0263 -0.2854
 1499SOL    HW1 5075   8.272   1.731   1.095 -0.8604  0.0792 -0.2882
 1499SOL    HW2 5076   8.303   1.673   1.231 -2.2974  1.2253  0.5530
 1500SOL     OW 5077   5.753   2.960   4.548 -0.2281  0.4264  0.1651
 1500SOL    HW1 5078   5.779   2.921   4.631 -1.5740  0.7070  0.7442
 1500SOL    HW2 5079   5.706   2.891   4.502  0.0813  0.4243 -0.1569
 1501SOL     OW 5080   7.969   2.816   1.914 -0.1957  0.1348 -0.1396
 1501SOL    HW1 5081   8.053   2.856   1.937 -0.3131 -0.7410  2.0396
 1501SOL    HW2 5082   7.903   2.876   1.948 -0.5361  1.1046 -2.3340
 1502SOL     OW 5083   0.078   7.991   5.605  0.0353 -0.3291 -0.1752
 1502SOL    HW1 5084   0.161   8.035   5.588 -0.2568 -0.0509 -0.9413
 1502SOL    HW2 5085   0.092   7.901   5.576  0.4507 -0.5975  0.8454
 1503SOL     OW 5086   8.269   1.557   9.356  0.0090 -0.3951 -0.2446
 1503SOL    HW1 5087   8.251   1.567   9.262  1.9570 -0.2309 -0.6447
 1503SOL    HW2 5088   8.321   1.635   9.379 -1.5545  0.2579  1.3155
 1504SOL     OW 5089   6.803   2.857   3.722 -0.3136 -0.1972 -0.0089
 1504SOL    HW1 5090   6.741   2.875   3.792  1.0679  1.2882  0.8970
 1504SOL    HW2 5091   6.841   2.942   3.701  2.0240 -1.1517  0.0694
 1505SOL     OW 5092   9.212   5.768   4.613  0.3365  0.5249  0.5305
 1505SOL    HW1 5093   9.239   5.739   4.526  0.0376 -0.6517  0.8106
 1505SOL    HW2 5094   9.293   5.772   4.663  0.3438 -0.2240  0.5890
 1506SOL     OW 5095   9.796   2.125   5.609  0.3375  0.6044 -0.3097
 1506SOL    HW1 5096   9.760   2.037   5.620 -0.6570  1.0703  0.3186
 1506SOL    HW2 5097   9.890   2.114   5.618  0.1652 -0.2704  0.6014
 1507SOL     OW 5098   1.536   0.361   3.032  0.3683 -0.1788 -0.3958
 1507SOL    HW1 5099   1.612   0.384   2.979  0.4415 -0.5802 -0.4657
 1507SOL    HW2 5100   1.461   0.381   2.976  0.4212  0.1409 -0.3563
 1508SOL     OW 5101   5.094   6.604   6.945  0.6841 -0.1824 -0.4569
 1508SOL    HW1 5102   5.058   6.623   6.858 -0.1862  0.0403 -0.0592
 1508SOL    HW2 5103   5.137   6.686   6.971  0.1881  0.0479 -0.3271
 1509SOL     OW 5104   7.348   8.072   0.584 -0.4479  0.0803 -0.4672
 1509SOL    HW1 5105   7.436   8.110   0.589 -0.6104  0.4475 -0.3231
 1509SOL    HW2 5106   7.295   8.129   0.640 -0.4615 -1.0906  0.7490
 1510SOL     OW 5107   6.937   0.729   3.278 -0.0861 -0.0373  0.2582
 1510SOL    HW1 5108   6.906   0.767   3.360 -0.2356 -0.0954  0.2282
 1510SOL    HW2 5109   6.866   0.745   3.216  0.6816  1.4730 -0.2925
 1511SOL     OW 5110   7.293   9.471   8.467 -0.3957 -0.2818  0.1631
 1511SOL    HW1 5111   7.207   9.432   8.478 -0.1898 -0.4204  1.3411
 1511SOL    HW2 5112   7.299   9.488   8.373 -1.2912 -1.2098 -0.0819
 1512SOL     OW 5113   8.431   8.952   2.771  0.2334  0.0800 -0.0835
 1512SOL    HW1 5114   8.454   9.044   2.782 -1.5424  0.4350  1.0881
 1512SOL    HW2 5115   8.357   8.952   2.711  0.0445 -0.5467  0.1334
 1513SOL     OW 5116   2.845   5.184   1.876 -0.0944  0.5273  0.1241
 1513SOL    HW1 5117   2.917   5.213   1.932  0.8075 -1.0163 -0.1565
 1513SOL    HW2 5118   2.771   5.239   1.901  1.2584  2.3981  0.1876
 1514SOL     OW 5119   0.861   2.064   5.022 -0.0350 -0.3886 -0.4041
 1514SOL    HW1 5120   0.774   2.026   5.039 -0.5641  1.8595  2.8274
 1514SOL    HW2 5121   0.843   2.139   4.964 -0.7448  1.3902  1.9434
 1515SOL     OW 5122   9.902   6.349   8.317 -0.1824 -0.3830 -0.0366
 1515SOL    HW1 5123   9.824   6.294   8.308 -0.9367  0.4443  1.1446
 1515SOL    HW2 5124   9.975   6.289   8.300 -1.0632 -1.1782 -1.1275
 1516SOL     OW 5125   8.121   9.963   4.604  0.6322  0.2356 -0.3158
 1516SOL    HW1 5126   8.210   9.943   4.577  0.8275 -0.5707  0.8618
 1516SOL    HW2 5127   8.067   9.896   4.563  0.6088  0.4857 -0.7006
 1517SOL     OW 5128   3.394   3.669   1.296 -0.4406 -0.1028 -0.5131
 1517SOL    HW1 5129   3.344   3.641   1.219  0.1669 -0.1010 -0.9192
 1517SOL    HW2 5130   3.450   3.594   1.317  0.5413  0.4547 -1.0556
 1518SOL     OW 5131   2.807  10.002   6.129 -0.0532 -0.1622  0.2628
 1518SOL    HW1 5132   2.807   9.907   6.142  0.4847 -0.3247 -0.8208
 1518SOL    HW2 5133   2.785  10.014   6.036  0.7729  0.7245  0.1640
 1519SOL     OW 5134   9.914   9.236   6.591 -0.6208 -0.1485  0.1570
 1519SOL    HW1 5135   9.841   9.289   6.558  0.2321 -0.0109 -1.6151
 1519SOL    HW2 5136   9.992   9.288   6.572  0.1079 -1.2718 -0.0540
 1520SOL     OW 5137   6.499   0.670   2.537  0.1764  0.4526 -0.2530
 1520SOL    HW1 5138   6.586   0.669   2.579  0.1930 -0.5967 -0.2827
 1520SOL    HW2 5139   6.440   0.638   2.605  0.3669 -2.4005 -1.2928
 1521SOL     OW 5140   5.258   5.446   6.201 -0.0837  0.0807  0.9960
 1521SOL    HW1 5141   5.313   5.420   6.275 -0.4981 -0.4986  1.0986
 1521SOL    HW2 5142   5.208   5.521   6.234  1.2473  1.1829  0.6377
 1522SOL     OW 5143   9.097   4.178   1.890 -0.3139  0.3244  0.2983
 1522SOL    HW1 5144   9.012   4.215   1.915  0.0412  1.5295 -0.2421
 1522SOL    HW2 5145   9.101   4.095   1.938 -1.2409  0.8395  1.3152
 1523SOL     OW 5146   5.507   8.877   5.038  0.2849 -0.0754 -0.2471
 1523SOL    HW1 5147   5.419   8.845   5.016  0.2767 -0.1075 -0.1685
 1523SOL    HW2 5148   5.559   8.861   4.959  0.1727  0.1194 -0.3599
 1524SOL     OW 5149   6.691   4.333   4.960  0.0560 -0.2339  0.4822
 1524SOL    HW1 5150   6.600   4.350   4.985  0.2517  1.0363  0.4287
 1524SOL    HW2 5151   6.710   4.401   4.895  2.1599  2.0791  3.2323
 1525SOL     OW 5152   0.023   6.556   5.983  0.2178 -0.1780  0.0879
 1525SOL    HW1 5153  -0.054   6.578   5.930 -0.8127 -0.2431  1.5154
 1525SOL    HW2 5154   0.056   6.640   6.014  1.7768  0.0038 -1.8667
 1526SOL     OW 5155   8.193   2.996   0.246 -0.4020 -0.7320  0.4342
 1526SOL    HW1 5156   8.289   3.000   0.256 -0.2429  2.8205 -1.0196
 1526SOL    HW2 5157   8.162   3.073   0.294 -2.4655 -1.3322  0.1152
 1527SOL     OW 5158   4.563   6.116   6.101  0.6905 -0.2935 -0.3879
 1527SOL    HW1 5159   4.639   6.062   6.122  1.4119 -0.0357 -2.1517
 1527SOL    HW2 5160   4.587   6.162   6.020 -1.8782 -1.3752 -1.9162
 1528SOL     OW 5161   0.758   5.665   2.202 -0.3532  0.2799 -0.0874
 1528SOL    HW1 5162   0.827   5.672   2.268 -0.6591 -1.1229  0.4132
 1528SOL    HW2 5163   0.678   5.692   2.248 -0.5077 -0.3538  0.0225
 1529SOL     OW 5164   4.308   8.044   5.209 -0.1839 -0.4479 -0.1827
 1529SOL    HW1 5165   4.339   8.118   5.156 -1.5335  0.2937  0.0033
 1529SOL    HW2 5166   4.274   8.085   5.288 -0.4495 -1.3286  0.1640
 1530SOL     OW 5167   9.865   0.768   8.506 -0.4147  0.8645  0.6571
 1530SOL    HW1 5168   9.828   0.800   8.588 -1.2724 -0.4461  0.8122
 1530SOL    HW2 5169   9.880   0.847   8.454 -1.0528  1.6159  1.5731
 1531SOL     OW 5170   8.700   7.496   0.131  0.6528  0.1055 -0.0229
 1531SOL    HW1 5171   8.693   7.529   0.042 -0.6781  0.4122  0.1769
 1531SOL    HW2 5172   8.707   7.401   0.121  1.6148  0.2218 -0.4903
 1532SOL     OW 5173   9.143   2.543   3.115 -0.2104 -0.3618 -0.1660
 1532SOL    HW1 5174   9.162   2.475   3.051 -0.0482  0.4194 -0.9550
 1532SOL    HW2 5175   9.119   2.495   3.195  2.2661 -1.3614  0.0410
 1533SOL     OW 5176   1.752   0.314   1.687  0.2843  0.6906  0.1682
 1533SOL    HW1 5177   1.724   0.263   1.611 -0.0163  0.6940  0.2721
 1533SOL    HW2 5178   1.814   0.257   1.732 -0.9583 -0.1118  0.9435
 1534SOL     OW 5179   9.108   2.184   8.695  0.7539  0.3756 -0.4959
 1534SOL    HW1 5180   9.076   2.110   8.746 -1.4925  1.6748  0.1198
 1534SOL    HW2 5181   9.046   2.192   8.622 -0.7031  3.1470  0.8823
 1535SOL     OW 5182   5.907   3.647   9.231 -0.4833  0.1660  0.2005
 1535SOL    HW1 5183   5.989   3.640   9.182 -0.1197  1.8185  0.5045
 1535SOL    HW2 5184   5.839   3.624   9.167  0.1386 -0.2096 -0.3439
 1536SOL     OW 5185   7.586   2.952   4.961  0.5548  0.3967  0.4277
 1536SOL    HW1 5186   7.612   2.864   4.990  1.1051  0.8532  1.3616
 1536SOL    HW2 5187   7.590   2.948   4.866 -0.9679 -1.0633  0.3713
 1537SOL     OW 5188   6.982   5.894   1.907 -0.1476 -0.0529  0.4027
 1537SOL    HW1 5189   7.075   5.891   1.929 -0.3778 -1.5248  1.3428
 1537SOL    HW2 5190   6.940   5.842   1.976 -1.6516  0.4369 -0.1034
 1538SOL     OW 5191   8.137   0.207   6.910 -0.4556 -0.2589  0.1446
 1538SOL    HW1 5192   8.155   0.128   6.858 -1.9757 -1.1140  0.8464
 1538SOL    HW2 5193   8.056   0.242   6.873  0.1109  0.8966 -0.0375
 1539SOL     OW 5194   3.607   1.939   1.391  0.5109 -0.1860 -0.6770
 1539SOL    HW1 5195   3.664   1.886   1.336  0.0937 -2.2374  0.7620
 1539SOL    HW2 5196   3.610   1.897   1.477 -0.3052  1.8218  0.4061
 1540SOL     OW 5197   3.014   0.756   2.584 -0.2931 -0.0038  0.5810
 1540SOL    HW1 5198   2.994   0.742   2.492  1.2882  0.8565  0.0789
 1540SOL    HW2 5199   2.996   0.671   2.626 -2.9942  0.1359 -0.0899
 1541SOL     OW 5200   9.833   8.913   8.253 -0.3042  0.4576  0.7221
 1541SOL    HW1 5201   9.780   8.969   8.310 -0.2393  1.6831 -0.3842
 1541SOL    HW2 5202   9.920   8.953   8.255  0.2548 -0.7278  1.4093
 1542SOL     OW 5203   3.658   8.874   6.160 -0.0722 -0.9705 -0.0562
 1542SOL    HW1 5204   3.728   8.812   6.138  0.1453 -0.2186 -1.6121
 1542SOL    HW2 5205   3.589   8.856   6.096 -1.4419 -1.8066  1.5460
 1543SOL     OW 5206   5.392   0.297   9.352  0.3991  0.6873 -0.5182
 1543SOL    HW1 5207   5.333   0.229   9.321  2.0000 -1.2691  0.5411
 1543SOL    HW2 5208   5.406   0.277   9.445 -0.5775  3.6124  0.3656
 1544SOL     OW 5209   8.242   2.560   5.785 -0.0230 -0.8829  0.2157
 1544SOL    HW1 5210   8.162   2.535   5.739 -1.4428  2.4508  0.5818
 1544SOL    HW2 5211   8.236   2.655   5.793  2.4665 -0.8288  3.0882
 1545SOL     OW 5212   2.314   3.904   2.424 -0.9822 -0.2455  0.3613
 1545SOL    HW1 5213   2.313   3.971   2.355 -1.5145  0.3295  0.9080
 1545SOL    HW2 5214   2.232   3.918   2.472 -0.2128 -0.0417  1.6699
 1546SOL     OW 5215   8.058   0.988   9.837  0.0575  0.2014  0.7486
 1546SOL    HW1 5216   7.971   0.976   9.876 -0.3296  1.1683  0.2293
 1546SOL    HW2 5217   8.092   0.900   9.826 -1.5772 -0.3175 -0.6421
 1547SOL     OW 5218   4.520   5.961   5.365  0.0882  0.7256  0.0749
 1547SOL    HW1 5219   4.597   6.018   5.364 -0.1639  1.0851  0.7348
 1547SOL    HW2 5220   4.472   5.987   5.443 -0.7848  0.6118 -0.4100
 1548SOL     OW 5221   4.256   4.210   1.499 -0.1227 -0.8138  0.6170
 1548SOL    HW1 5222   4.193   4.145   1.470 -1.8496  1.7221 -1.7818
 1548SOL    HW2 5223   4.312   4.225   1.423  1.1519 -0.4896  1.5889
 1549SOL     OW 5224   2.553   1.007   0.510  0.2649  0.4611  0.1619
 1549SOL    HW1 5225   2.604   1.033   0.586 -0.3312  2.2482  0.0022
 1549SOL    HW2 5226   2.489   0.944   0.544  0.5855  0.5509  0.9507
 1550SOL     OW 5227   6.837   2.056   4.607 -0.3249 -0.0996  0.3866
 1550SOL    HW1 5228   6.910   2.024   4.554 -0.7640 -0.9543  0.2802
 1550SOL    HW2 5229   6.861   2.031   4.697  0.4316  1.3715  0.6292
 1551SOL     OW 5230   8.800   1.468   5.973  0.0042 -0.2094  0.3000
 1551SOL    HW1 5231   8.796   1.439   6.064 -0.5069  0.7083  0.5765
 1551SOL    HW2 5232   8.873   1.530   5.971  1.8367 -2.2242 -0.5267
 1552SOL     OW 5233   1.826   5.120   3.294  0.0571 -0.4558  0.3756
 1552SOL    HW1 5234   1.884   5.160   3.358 -0.2171  0.2064  0.2137
 1552SOL    HW2 5235   1.880   5.106   3.216 -0.0526  0.3762  0.1443
 1553SOL     OW 5236   5.826   9.680   0.560  0.2444  0.0353 -0.5059
 1553SOL    HW1 5237   5.855   9.770   0.545  0.3774 -0.3727 -3.3286
 1553SOL    HW2 5238   5.731   9.685   0.559  0.2495  0.1660 -0.4415
 1554SOL     OW 5239   4.225   0.100   8.965  0.4091  0.3855 -0.1020
 1554SOL    HW1 5240   4.138   0.129   8.990  0.4111 -1.0390  1.7756
 1554SOL    HW2 5241   4.216   0.072   8.874 -0.9119  0.8724 -0.1420
 1555SOL     OW 5242   7.173   0.125   9.891  0.5781  0.7424  0.3699
 1555SOL    HW1 5243   7.224   0.046   9.903 -0.1992  0.4300  1.8637
 1555SOL    HW2 5244   7.116   0.129   9.968 -0.6289  1.8230 -0.5304
 1556SOL     OW 5245   6.273   0.594   2.702 -0.0479 -0.3478 -0.1603
 1556SOL    HW1 5246   6.239   0.662   2.644 -1.8641  0.9112  2.1845
 1556SOL    HW2 5247   6.241   0.512   2.665  0.8049  0.1502 -2.1441
 1557SOL     OW 5248   8.322   3.527   6.585 -0.0254  0.0556 -0.3822
 1557SOL    HW1 5249   8.318   3.447   6.532 -0.1580 -0.4682  0.4079
 1557SOL    HW2 5250   8.305   3.598   6.523 -1.7400 -0.6488 -0.7685
 1558SOL     OW 5251   6.007   5.649   4.905  0.7942  0.3913  0.0119
 1558SOL    HW1 5252   5.916   5.678   4.915  0.8829  1.1574 -1.2561
 1558SOL    HW2 5253   6.000   5.563   4.862  0.6883  0.7724 -0.7378
 1559SOL     OW 5254   0.803   7.035   0.995  0.1641  0.1180 -0.3756
 1559SOL    HW1 5255   0.792   7.122   1.033  2.0508  0.1686  0.2106
 1559SOL    HW2 5256   0.784   6.975   1.067  0.1951  0.1022 -0.3803
 1560SOL     OW 5257   6.677   6.708   4.904 -0.1080 -0.5370 -0.4028
 1560SOL    HW1 5258   6.595   6.683   4.862 -0.0879  1.1085 -1.5216
 1560SOL    HW2 5259   6.741   6.711   4.832  0.5503 -0.2348  0.1807
 1561SOL     OW 5260   1.699   7.027   0.954  0.1440  0.2986 -0.1332
 1561SOL    HW1 5261   1.767   7.022   0.886  0.4440  1.8268  0.0131
 1561SOL    HW2 5262   1.698   6.940   0.993  0.9407 -0.2044 -1.1689
 1562SOL     OW 5263   1.067   9.173   8.816 -0.0590 -0.5043  0.7588
 1562SOL    HW1 5264   1.153   9.198   8.851 -0.7105  0.1517  1.9713
 1562SOL    HW2 5265   1.072   9.194   8.723  0.5989  1.0228  1.0996
 1563SOL     OW 5266   9.786   1.006   6.845 -0.3995  0.0546  0.6843
 1563SOL    HW1 5267   9.822   1.087   6.881  0.9819 -0.2663  0.0846
 1563SOL    HW2 5268   9.795   1.015   6.750  3.5139 -2.3000  0.5836
 1564SOL     OW 5269   0.731   1.264   9.574  0.0418  0.5942 -0.0744
 1564SOL    HW1 5270   0.678   1.298   9.646 -0.1800 -0.0323  0.0594
 1564SOL    HW2 5271   0.743   1.340   9.516 -1.1648  0.6989 -0.2170
 1565SOL     OW 5272   4.477   6.216   3.423  0.1170  0.1718  0.4091
 1565SOL    HW1 5273   4.472   6.124   3.398  1.2213 -0.1283  1.2673
 1565SOL    HW2 5274   4.386   6.247   3.414  0.1827 -0.1870 -2.7616
 1566SOL     OW 5275   7.886   8.209   0.664 -0.0178  0.0077  0.3202
 1566SOL    HW1 5276   7.948   8.282   0.656  0.2193 -0.3279 -1.3401
 1566SOL    HW2 5277   7.833   8.214   0.584 -1.0662 -0.6884  0.9492
 1567SOL     OW 5278   3.622   9.728   0.848  0.0215  0.1835 -0.2756
 1567SOL    HW1 5279   3.564   9.789   0.801 -1.6631 -1.1276  0.0208
 1567SOL    HW2 5280   3.629   9.766   0.936  1.2706  1.3973 -0.8654
 1568SOL     OW 5281   8.022   3.449   3.721  0.7358  0.1666 -0.1972
 1568SOL    HW1 5282   8.040   3.540   3.744 -0.2774  0.6309 -1.1488
 1568SOL    HW2 5283   8.019   3.448   3.626 -2.3370 -0.1721 -0.1957
 1569SOL     OW 5284   5.817   6.066   2.608 -0.2051 -0.4254  0.1577
 1569SOL    HW1 5285   5.862   6.146   2.635 -1.1312  0.7339 -1.5499
 1569SOL    HW2 5286   5.746   6.096   2.551 -2.0083 -2.3052  1.2668
 1570SOL     OW 5287   0.532   1.166   3.329 -0.1632  0.4008 -0.6553
 1570SOL    HW1 5288   0.590   1.222   3.381  0.2828 -0.0468 -0.6703
 1570SOL    HW2 5289   0.591   1.112   3.276 -0.5761 -0.3919 -0.3193
 1571SOL     OW 5290   6.448   5.367   7.258 -0.1252 -0.3555  0.3051
 1571SOL    HW1 5291   6.425   5.442   7.313  0.1405 -0.6100  0.7770
 1571SOL    HW2 5292   6.523   5.396   7.207 -0.8119  0.1222 -0.4602
 1572SOL     OW 5293   6.462   5.622   0.746 -0.2639 -0.4156  0.0926
 1572SOL    HW1 5294   6.441   5.655   0.658 -3.6390 -0.7860  0.6346
 1572SOL    HW2 5295   6.459   5.527   0.737 -1.4911 -0.4588  0.7303
 1573SOL     OW 5296   4.396   6.599   4.246  0.2446 -0.2320 -0.0163
 1573SOL    HW1 5297   4.388   6.527   4.183 -1.7170  0.3515 -0.5036
 1573SOL    HW2 5298   4.418   6.556   4.329  0.2917 -1.2647 -0.5449
 1574SOL     OW 5299   5.607   0.187   1.693  0.0551 -0.4039 -0.0109
 1574SOL    HW1 5300   5.524   0.147   1.666  0.6506 -1.4716 -0.2852
 1574SOL    HW2 5301   5.612   0.268   1.643  1.1826 -2.3527 -3.3318
 1575SOL     OW 5302   5.728   1.545   9.752 -0.0732 -0.3176 -0.5195
 1575SOL    HW1 5303   5.714   1.640   9.751 -1.1205 -0.4216  0.8569
 1575SOL    HW2 5304   5.803   1.532   9.695  0.0467  1.3358 -0.8114
 1576SOL     OW 5305   9.018   7.145   5.750  0.3194 -0.9342 -0.2873
 1576SOL    HW1 5306   9.035   7.091   5.673  2.2216 -0.2777 -0.3985
 1576SOL    HW2 5307   9.081   7.114   5.815  0.2996  0.0139  0.2035
 1577SOL     OW 5308   5.247   8.994   1.324  0.1294 -0.2709 -0.0162
 1577SOL    HW1 5309   5.277   8.994   1.233  1.0201  0.3215  0.2686
 1577SOL    HW2 5310   5.165   9.044   1.322  0.5003  0.3361 -0.3871
 1578SOL     OW 5311   4.592   0.499   1.475  1.0687 -0.1059 -0.0444
 1578SOL    HW1 5312   4.631   0.451   1.403  1.2859 -0.3406  0.2266
 1578SOL    HW2 5313   4.644   0.578   1.483  0.5489  0.3092 -0.6614
 1579SOL     OW 5314   7.234   3.458   4.479 -0.4535  0.2724  0.8085
 1579SOL    HW1 5315   7.211   3.477   4.389 -0.0122 -1.5787  0.2638
 1579SOL    HW2 5316   7.151   3.458   4.527 -1.1144 -1.8025 -0.2300
 1580SOL     OW 5317   1.440   7.737   6.882  0.1873  0.8447 -0.0559
 1580SOL    HW1 5318   1.369   7.700   6.829  1.5557 -1.0737 -0.6466
 1580SOL    HW2 5319   1.415   7.829   6.894 -2.1148  0.3725 -0.6747
 1581SOL     OW 5320   0.111   4.421   9.953  0.1594 -0.0395  0.3444
 1581SOL    HW1 5321   0.126   4.470   9.873  1.2686 -0.3109  0.3598
 1581SOL    HW2 5322   0.107   4.488  10.022  0.1524  0.1320  0.1772
 1582SOL     OW 5323   4.436   9.070   1.462 -0.9117 -0.0864  0.1261
 1582SOL    HW1 5324   4.497   9.010   1.419 -1.0832  0.3009 -0.6811
 1582SOL    HW2 5325   4.493   9.128   1.514 -0.5981  0.2014 -0.5316
 1583SOL     OW 5326   8.104   9.211   1.172  0.2740  0.4860  0.1264
 1583SOL    HW1 5327   8.109   9.305   1.188  0.3551  0.3802  0.7337
 1583SOL    HW2 5328   8.176   9.193   1.112 -1.9702  1.4437 -3.2051
 1584SOL     OW 5329   9.393   9.196   2.669 -0.5534 -0.0806 -0.7333
 1584SOL    HW1 5330   9.438   9.258   2.612  0.2008  1.1728  1.1038
 1584SOL    HW2 5331   9.322   9.161   2.616 -0.4679  1.7200 -2.1270
 1585SOL     OW 5332   0.880   5.316   6.008  0.1906  0.0941 -0.4267
 1585SOL    HW1 5333   0.912   5.376   5.941  0.0207  1.2995  0.5357
 1585SOL    HW2 5334   0.937   5.332   6.084  0.1076 -0.9286 -0.1213
 1586SOL     OW 5335   3.551   5.651   2.531  0.1973  0.4485  0.3842
 1586SOL    HW1 5336   3.627   5.593   2.542  0.3839  0.2976 -1.3556
 1586SOL    HW2 5337   3.553   5.708   2.608  1.0284 -0.7060  1.2584
 1587SOL     OW 5338   0.415   3.203   8.589 -0.0558  0.0477  0.0783
 1587SOL    HW1 5339   0.345   3.209   8.524 -1.1698 -0.6026  1.1744
 1587SOL    HW2 5340   0.384   3.256   8.662  0.4493 -0.5015  0.7005
 1588SOL     OW 5341   1.233   6.100   8.357  1.0454  0.1265 -0.4232
 1588SOL    HW1 5342   1.171   6.153   8.305  1.0666  0.5699 -0.0096
 1588SOL    HW2 5343   1.277   6.044   8.293 -0.9727 -1.4289 -0.5511
 1589SOL     OW 5344   1.179   7.058   2.329 -0.3455 -0.5989 -0.2679
 1589SOL    HW1 5345   1.223   7.140   2.351  1.6701 -1.7752  0.2611
 1589SOL    HW2 5346   1.177   7.009   2.411  0.4494 -1.9493 -1.0215
 1590SOL     OW 5347   0.198   9.939   6.499 -0.2703  0.3624 -0.8624
 1590SOL    HW1 5348   0.286   9.974   6.487 -0.8214  1.6195 -1.4719
 1590SOL    HW2 5349   0.148   9.974   6.426 -1.0593 -1.1527 -1.0840
 1591SOL     OW 5350   1.763   6.117   3.948  0.5189  0.0494  0.2062
 1591SOL    HW1 5351   1.782   6.177   3.876  1.5913 -1.1553 -0.5539
 1591SOL    HW2 5352   1.696   6.162   4.000 -1.2634  0.4255 -2.2297
 1592SOL     OW 5353   7.387   8.808   2.892 -0.3961 -0.6251 -0.2935
 1592SOL    HW1 5354   7.314   8.806   2.830 -0.0539 -2.3366 -0.6987
 1592SOL    HW2 5355   7.412   8.901   2.897 -3.1528  0.1677  0.5831
 1593SOL     OW 5356   1.600   9.085   7.474  0.1736  0.1431  0.2813
 1593SOL    HW1 5357   1.691   9.111   7.485  0.7342 -1.7854  0.5885
 1593SOL    HW2 5358   1.603   9.011   7.413 -1.0857 -0.4584  0.8961
 1594SOL     OW 5359   4.871   1.257   5.326  0.1531  0.0546 -0.0999
 1594SOL    HW1 5360   4.785   1.235   5.289 -0.7521  2.7759  0.1418
 1594SOL    HW2 5361   4.928   1.185   5.299 -2.0849 -1.6324 -0.6364
 1595SOL     OW 5362   0.237   1.204   4.118 -0.5194 -0.0115  0.2314
 1595SOL    HW1 5363   0.298   1.158   4.060  0.2862  0.6474  0.5320
 1595SOL    HW2 5364   0.152   1.163   4.102 -0.1107 -0.5283 -0.6537
 1596SOL     OW 5365   9.556   4.946   1.262 -0.3806 -0.0111  0.2611
 1596SOL    HW1 5366   9.537   4.978   1.173 -0.1392  0.7214  0.4676
 1596SOL    HW2 5367   9.472   4.917   1.296 -0.6662  0.7168  0.1863
 1597SOL     OW 5368   3.936   6.168   1.354 -0.0063 -0.2059  0.0498
 1597SOL    HW1 5369   3.873   6.176   1.426 -0.3506  0.7357 -0.3367
 1597SOL    HW2 5370   3.883   6.147   1.278  0.1894  0.2229 -0.2080
 1598SOL     OW 5371   2.722   6.396   3.865 -0.1176 -0.2692 -0.2544
 1598SOL    HW1 5372   2.805   6.413   3.819 -0.0411 -0.8314 -0.3384
 1598SOL    HW2 5373   2.662   6.369   3.795 -0.2386 -0.3195 -0.1304
 1599SOL     OW 5374   2.276   3.203   3.360 -0.2448  0.2793  0.1992
 1599SOL    HW1 5375   2.216   3.253   3.304 -0.2321  2.1187  1.7396
 1599SOL    HW2 5376   2.328   3.269   3.405 -0.4084 -1.0876  2.5719
 1600SOL     OW 5377   9.571   0.352   0.838 -0.2669 -0.0561 -0.5456
 1600SOL    HW1 5378   9.551   0.259   0.847 -1.0258 -0.0880 -2.1432
 1600SOL    HW2 5379   9.492   0.396   0.869 -0.0253  0.0498 -0.0776
 1601SOL     OW 5380   3.955   3.233   6.355  0.0433  0.0360 -0.5317
 1601SOL    HW1 5381   3.945   3.238   6.260  0.2092  0.1081 -0.5451
 1601SOL    HW2 5382   3.887   3.172   6.383 -0.4868  0.5805 -0.6183
 1602SOL     OW 5383   9.097   1.069   6.033  0.0788  0.2220  0.1834
 1602SOL    HW1 5384   9.128   1.111   6.113 -0.7769  0.7068  0.2673
 1602SOL    HW2 5385   9.044   0.996   6.063  0.8644 -0.4266  0.0396
 1603SOL     OW 5386   6.054   8.344   7.651 -0.2581 -0.0215  0.2792
 1603SOL    HW1 5387   5.989   8.345   7.721 -0.4308 -0.2050  0.1205
 1603SOL    HW2 5388   6.045   8.430   7.610 -0.3979 -0.0432  0.2613
 1604SOL     OW 5389   2.170   8.037   9.449 -0.0986  0.0133  0.0715
 1604SOL    HW1 5390   2.235   8.060   9.382  0.6408 -0.0296  0.7559
 1604SOL    HW2 5391   2.221   8.026   9.529 -0.7684 -1.3928  0.3365
 1605SOL     OW 5392   9.634   3.212   7.578  0.5389  0.8174 -0.4116
 1605SOL    HW1 5393   9.553   3.169   7.604  0.6091 -0.0495 -1.5179
 1605SOL    HW2 5394   9.699   3.183   7.642  0.3950 -0.0810 -0.6532
 1606SOL     OW 5395   2.452   3.391   7.887 -0.3749  0.0129  0.0977
 1606SOL    HW1 5396   2.395   3.338   7.943 -0.7257  0.9557  0.6522
 1606SOL    HW2 5397   2.539   3.354   7.901 -0.6440 -0.5618  0.3041
 1607SOL     OW 5398   6.352   3.417   5.595  0.1121 -0.2989  0.7451
 1607SOL    HW1 5399   6.304   3.354   5.542  0.6356 -1.2323  1.3614
 1607SOL    HW2 5400   6.397   3.473   5.532  0.7604 -1.4190  0.1885
 1608SOL     OW 5401   8.495   0.860   8.967 -0.2069  0.0806 -0.1516
 1608SOL    HW1 5402   8.563   0.811   8.921  0.3742  2.9447 -2.6828
 1608SOL    HW2 5403   8.536   0.888   9.049  1.7455  1.6538 -1.5724
 1609SOL     OW 5404   8.709   3.341   3.989 -0.0896 -0.1309  0.2152
 1609SOL    HW1 5405   8.680   3.431   4.002 -0.6846 -0.0589 -1.3941
 1609SOL    HW2 5406   8.774   3.347   3.919  1.1060 -0.7670  1.2264
 1610SOL     OW 5407   5.951   1.800   1.191 -0.0811 -0.6951 -0.5047
 1610SOL    HW1 5408   5.950   1.711   1.156 -2.2285 -1.3848  1.1199
 1610SOL    HW2 5409   5.906   1.853   1.126 -0.8341 -1.2512 -0.4415
 1611SOL     OW 5410   4.189   9.827   3.762  0.1313  0.0519 -0.1965
 1611SOL    HW1 5411   4.184   9.919   3.788  1.4941  0.9383 -2.7825
 1611SOL    HW2 5412   4.102   9.792   3.783 -0.6227  2.0715  0.3011
 1612SOL     OW 5413   5.093   0.842   2.993  0.0762  0.5754  0.4481
 1612SOL    HW1 5414   5.122   0.779   3.059 -0.0812  0.6431  0.5828
 1612SOL    HW2 5415   5.031   0.793   2.938  2.2154 -0.3034 -1.3375
 1613SOL     OW 5416   6.365   6.029   0.061  0.0969  0.2603  0.8482
 1613SOL    HW1 5417   6.431   5.962   0.074 -0.6550 -0.4610  0.9857
 1613SOL    HW2 5418   6.347   6.028  -0.033  1.3337  1.4813  0.5689
 1614SOL     OW 5419   5.495   2.231   3.594 -0.5249  0.6410 -0.6013
 1614SOL    HW1 5420   5.469   2.279   3.672  0.2798  0.7612 -0.4019
 1614SOL    HW2 5421   5.580   2.266   3.571  0.2764 -0.9545 -0.2037
 1615SOL     OW 5422   2.984   0.966   1.118 -0.2558 -0.1661  0.3920
 1615SOL    HW1 5423   3.025   0.984   1.202 -0.3150 -0.1863  0.4250
 1615SOL    HW2 5424   2.934   0.885   1.132  0.1962 -0.4805  0.1806
 1616SOL     OW 5425   1.574   1.848   5.227 -0.1268  0.2109 -0.1869
 1616SOL    HW1 5426   1.613   1.781   5.170 -0.5931  0.4064 -0.7410
 1616SOL    HW2 5427   1.611   1.931   5.196 -0.3941  0.3187 -0.2222
 1617SOL     OW 5428   7.519   3.202   8.034 -1.2653 -0.8290 -0.2762
 1617SOL    HW1 5429   7.543   3.117   7.997 -1.0036 -1.0548  0.4005
 1617SOL    HW2 5430   7.429   3.217   8.005 -1.1128 -1.0591 -0.8890
 1618SOL     OW 5431   8.498   2.986   5.850 -0.5057 -1.2059 -0.0667
 1618SOL    HW1 5432   8.583   3.017   5.883 -1.1373 -0.5465  0.9963
 1618SOL    HW2 5433   8.515   2.896   5.825  1.0183 -0.4974 -1.8407
 1619SOL     OW 5434   3.345   8.912   1.753  0.5312 -0.7031 -0.3746
 1619SOL    HW1 5435   3.307   8.824   1.759 -1.9209  0.2206 -0.8524
 1619SOL    HW2 5436   3.361   8.938   1.843 -3.5721  0.1777  0.3118
 1620SOL     OW 5437   9.052   4.832   0.135  0.2340  0.8793  0.2349
 1620SOL    HW1 5438   8.963   4.806   0.109  0.4103  0.4296  0.0822
 1620SOL    HW2 5439   9.057   4.924   0.112 -0.6415  1.2507  1.4282
 1621SOL     OW 5440   7.887   9.568   1.997  0.1802 -0.3108  0.6085
 1621SOL    HW1 5441   7.897   9.480   2.032  1.3517 -0.5545 -0.2628
 1621SOL    HW2 5442   7.916   9.561   1.906  0.6840  1.0544  0.6360
 1622SOL     OW 5443   3.340   8.042   2.712 -0.1665  0.5007  0.2586
 1622SOL    HW1 5444   3.398   8.118   2.715  0.9482 -0.2154 -1.4562
 1622SOL    HW2 5445   3.373   7.989   2.640 -0.1793 -2.2472  2.1119
 1623SOL     OW 5446   5.253   0.632   1.230  0.4403 -0.0429  0.7987
 1623SOL    HW1 5447   5.172   0.628   1.280  1.1133 -0.9793  1.8470
 1623SOL    HW2 5448   5.313   0.681   1.286  0.4054  1.3146 -0.2931
 1624SOL     OW 5449   1.284   3.109   7.167  0.1384  0.4980  0.2037
 1624SOL    HW1 5450   1.272   3.060   7.085  0.1660  1.6418 -0.5095
 1624SOL    HW2 5451   1.378   3.101   7.186 -0.2026 -1.6101  1.3584
 1625SOL     OW 5452   9.137   1.932   0.338 -0.2300 -0.1600 -0.2975
 1625SOL    HW1 5453   9.173   1.962   0.422 -2.2054 -0.6418  0.7599
 1625SOL    HW2 5454   9.138   1.837   0.344 -0.5264 -0.1929 -0.7575
 1626SOL     OW 5455   6.896   0.848   3.533  0.3077  0.4173 -0.2638
 1626SOL    HW1 5456   6.824   0.908   3.551  0.5381  0.4834  0.4829
 1626SOL    HW2 5457   6.960   0.867   3.601  0.8343  0.0452 -0.6510
 1627SOL     OW 5458   1.575   1.690   1.845  0.4594 -0.3383  0.3683
 1627SOL    HW1 5459   1.528   1.650   1.918  1.0128  1.3954  1.7239
 1627SOL    HW2 5460   1.666   1.696   1.874  1.1715 -1.6724 -1.3825
 1628SOL     OW 5461   4.695   3.999   5.518 -0.5367 -0.0589  0.1612
 1628SOL    HW1 5462   4.771   3.997   5.577 -1.3889  1.3345  1.3802
 1628SOL    HW2 5463   4.627   3.950   5.564 -0.5695 -0.8200 -0.6726
 1629SOL     OW 5464   0.125   9.577   7.217 -0.4981  0.5096  0.0029
 1629SOL    HW1 5465   0.149   9.491   7.181 -2.0626  0.1507 -0.2552
 1629SOL    HW2 5466   0.118   9.564   7.311 -1.7598  0.0614 -0.1333
 1630SOL     OW 5467   1.029   6.559   7.048 -0.0224 -0.4048 -0.0610
 1630SOL    HW1 5468   0.996   6.553   6.958 -0.5101 -1.4842  0.1761
 1630SOL    HW2 5469   1.124   6.558   7.040  0.0274  2.0606 -0.7146
 1631SOL     OW 5470   5.798   5.679   6.892 -0.4841  0.2783  0.3603
 1631SOL    HW1 5471   5.852   5.757   6.883 -1.3380  0.8811  0.2765
 1631SOL    HW2 5472   5.802   5.657   6.985  0.7620 -0.3382  0.1838
 1632SOL     OW 5473   7.663   5.571   1.577 -0.0438 -0.6068  0.6495
 1632SOL    HW1 5474   7.720   5.609   1.644  0.3191  1.1045 -0.5700
 1632SOL    HW2 5475   7.724   5.531   1.514 -0.0805  1.5076 -0.8281
 1633SOL     OW 5476   1.334   6.233   4.779  0.0993 -0.1205  0.4477
 1633SOL    HW1 5477   1.412   6.222   4.725 -0.9930  0.4315 -1.3048
 1633SOL    HW2 5478   1.261   6.215   4.721 -1.1239 -0.1445  1.9262
 1634SOL     OW 5479   8.378   4.374   4.403 -0.1815  0.3974  0.1060
 1634SOL    HW1 5480   8.328   4.452   4.428 -1.0097 -0.3352  0.8267
 1634SOL    HW2 5481   8.359   4.310   4.472  0.1420 -0.5871 -0.6843
 1635SOL     OW 5482   2.104   4.492   8.715 -0.1955 -0.1736 -0.7608
 1635SOL    HW1 5483   2.177   4.543   8.680 -0.2396 -0.5041 -1.3658
 1635SOL    HW2 5484   2.143   4.440   8.785 -0.2605  1.0437  0.2002
 1636SOL     OW 5485   3.615   2.857   6.064 -0.0601 -0.4599  0.4315
 1636SOL    HW1 5486   3.615   2.784   6.002  0.4498  0.1825 -0.3479
 1636SOL    HW2 5487   3.523   2.884   6.070 -0.0079  0.0424 -0.7550
 1637SOL     OW 5488   6.320   1.553   3.732  0.0670  0.3566  0.0698
 1637SOL    HW1 5489   6.357   1.604   3.803  1.1595 -0.1042 -0.1468
 1637SOL    HW2 5490   6.349   1.597   3.652 -0.0853  0.1405 -0.1089
 1638SOL     OW 5491   4.338   1.881   9.475 -0.0297  0.2499 -0.0717
 1638SOL    HW1 5492   4.368   1.924   9.555 -1.9523  1.3926  0.1085
 1638SOL    HW2 5493   4.270   1.939   9.440  0.0606 -0.7109 -2.0095
 1639SOL     OW 5494   5.435   4.866   4.894 -0.4798 -0.3384  0.5629
 1639SOL    HW1 5495   5.344   4.882   4.868 -0.2850  1.4291  0.7911
 1639SOL    HW2 5496   5.435   4.877   4.989  0.3747  2.4277  0.3542
 1640SOL     OW 5497   8.312   7.327   1.362  0.2233 -0.0036  0.2387
 1640SOL    HW1 5498   8.250   7.268   1.404  0.5879 -0.3186  0.3420
 1640SOL    HW2 5499   8.281   7.334   1.272 -0.3297  0.3531  0.4480
 1641SOL     OW 5500   6.858   7.925   5.718 -0.5307 -0.3732 -0.1778
 1641SOL    HW1 5501   6.878   7.852   5.659  0.7562  0.0918 -0.3600
 1641SOL    HW2 5502   6.823   7.993   5.660 -0.7803 -0.4962 -0.1680
 1642SOL     OW 5503   4.017   5.734   9.309 -0.1722  0.1178 -0.2471
 1642SOL    HW1 5504   3.931   5.715   9.272  0.4669 -1.5502 -0.9684
 1642SOL    HW2 5505   4.077   5.727   9.234  0.6942  0.4800  0.3931
 1643SOL     OW 5506   5.999   9.872   7.948 -0.0045 -0.3234  0.3581
 1643SOL    HW1 5507   6.089   9.893   7.975 -0.0538  0.6329 -0.1724
 1643SOL    HW2 5508   5.965   9.954   7.914 -1.8038 -0.1309  2.4107
 1644SOL     OW 5509   5.252   2.524   1.741 -0.0130  0.0934 -0.3686
 1644SOL    HW1 5510   5.271   2.545   1.649  1.1185  0.2235 -0.1151
 1644SOL    HW2 5511   5.244   2.609   1.783 -1.5546  0.0556 -0.5212
 1645SOL     OW 5512   4.010   3.799   8.965  0.0815 -0.2117 -0.2350
 1645SOL    HW1 5513   3.960   3.731   8.919 -0.7668  0.9433 -1.0686
 1645SOL    HW2 5514   3.962   3.813   9.046  0.6774 -1.1042  0.2957
 1646SOL     OW 5515   5.730   8.704   4.268  0.0383  0.5126  1.2265
 1646SOL    HW1 5516   5.769   8.791   4.261 -0.2718  0.5228 -0.9638
 1646SOL    HW2 5517   5.787   8.648   4.216 -0.6095 -0.2858  1.3604
 1647SOL     OW 5518   9.853   0.061   8.797 -0.4312 -0.0626  0.1413
 1647SOL    HW1 5519   9.902  -0.011   8.837  0.4250  0.8369  0.7399
 1647SOL    HW2 5520   9.885   0.139   8.841 -1.3659  0.6921 -0.4913
 1648SOL     OW 5521   1.391   1.248   8.000  0.4672  0.0049 -0.2271
 1648SOL    HW1 5522   1.474   1.226   8.041  0.5155  1.1933  0.3481
 1648SOL    HW2 5523   1.329   1.255   8.072  0.0006 -0.2373 -0.5945
 1649SOL     OW 5524   1.276   9.002   3.512  0.2009 -0.5228 -0.1286
 1649SOL    HW1 5525   1.238   9.000   3.600 -0.9636  1.0818 -0.5418
 1649SOL    HW2 5526   1.369   8.983   3.526  0.1248  0.1034  1.5028
 1650SOL     OW 5527   5.626   5.411   4.076  0.1079  0.2242  0.4420
 1650SOL    HW1 5528   5.558   5.374   4.020  0.8082 -0.6259  0.1340
 1650SOL    HW2 5529   5.708   5.395   4.028  0.8281 -1.3686  2.0996
 1651SOL     OW 5530   4.387   7.848   4.819  0.1695  0.1346 -0.1009
 1651SOL    HW1 5531   4.413   7.864   4.909 -0.2884  0.4489 -0.0196
 1651SOL    HW2 5532   4.335   7.925   4.794 -1.0563 -0.6531 -0.0993
 1652SOL     OW 5533   6.781   5.488   0.419  0.1190 -0.3113  0.1411
 1652SOL    HW1 5534   6.793   5.574   0.379 -0.5709 -0.4582 -0.4053
 1652SOL    HW2 5535   6.791   5.503   0.513  1.0685  0.1657 -0.0318
 1653SOL     OW 5536   7.361   6.473   9.147  0.3105  0.2624 -0.3661
 1653SOL    HW1 5537   7.409   6.454   9.066 -0.9123  1.5580 -1.4731
 1653SOL    HW2 5538   7.415   6.538   9.192  1.0051 -0.4700 -0.1257
 1654SOL     OW 5539   7.761   7.868   3.022 -0.3266 -0.0456 -0.0660
 1654SOL    HW1 5540   7.742   7.930   3.092  0.5463 -0.6001  0.6995
 1654SOL    HW2 5541   7.683   7.813   3.016  0.0118 -0.7200  1.2974
 1655SOL     OW 5542   6.227   6.173   4.041  0.5828 -0.1343 -0.0051
 1655SOL    HW1 5543   6.151   6.231   4.034  1.3110  0.9919  1.0120
 1655SOL    HW2 5544   6.205   6.112   4.111  1.9676  2.5585  3.0915
 1656SOL     OW 5545   8.157   0.870   1.954  0.0156 -0.3902 -0.5469
 1656SOL    HW1 5546   8.158   0.950   1.901  0.4853  1.0295  1.4804
 1656SOL    HW2 5547   8.065   0.843   1.955 -0.7307  1.8307  1.0084
 1657SOL     OW 5548   4.597   6.237   5.833 -0.1458 -0.6274 -0.3870
 1657SOL    HW1 5549   4.502   6.239   5.824 -0.0145 -1.0585 -2.4018
 1657SOL    HW2 5550   4.625   6.326   5.814 -0.0456 -0.9691 -2.0175
 1658SOL     OW 5551   4.109   0.629   7.857 -0.1109  0.1466 -0.1016
 1658SOL    HW1 5552   4.139   0.603   7.944  0.3064 -1.0462 -0.5798
 1658SOL    HW2 5553   4.171   0.587   7.797 -0.6131  0.6438 -0.9879
 1659SOL     OW 5554   0.948   9.585   2.192 -0.0129 -0.6153 -0.0193
 1659SOL    HW1 5555   0.859   9.551   2.184  1.3276 -4.8195  0.2454
 1659SOL    HW2 5556   0.987   9.572   2.106  0.7246 -0.1885  0.2406
 1660SOL     OW 5557   2.040   5.836   4.420  0.3711  0.2203 -0.4003
 1660SOL    HW1 5558   2.031   5.889   4.341 -0.6372 -1.2346 -1.3148
 1660SOL    HW2 5559   1.961   5.781   4.421  1.7966 -1.9452 -0.0414
 1661SOL     OW 5560   1.333   3.331   0.378  0.6392  0.1784  0.2172
 1661SOL    HW1 5561   1.307   3.423   0.386 -1.4957 -0.4586  1.2470
 1661SOL    HW2 5562   1.293   3.302   0.296  2.9049  0.5895 -1.1224
 1662SOL     OW 5563   3.073   7.268   1.336  0.6199  0.5364 -0.3520
 1662SOL    HW1 5564   3.141   7.279   1.403 -0.5386  1.9816  0.6457
 1662SOL    HW2 5565   3.032   7.185   1.357  1.0849  0.3816 -0.0425
 1663SOL     OW 5566   8.180   5.028   6.182  0.0937 -0.2375 -0.0691
 1663SOL    HW1 5567   8.176   5.021   6.278  0.7025  0.9154  0.0491
 1663SOL    HW2 5568   8.249   4.966   6.157  0.6617  0.2155  0.3413
 1664SOL     OW 5569   1.379   9.802   4.138  0.2015 -0.5267 -0.3747
 1664SOL    HW1 5570   1.413   9.774   4.053  2.1889  0.2638  0.1021
 1664SOL    HW2 5571   1.336   9.886   4.121  0.7626 -0.2770 -0.5738
 1665SOL     OW 5572   9.669   1.748   4.427 -0.4364  0.5076 -0.2228
 1665SOL    HW1 5573   9.640   1.686   4.360  2.1034  0.2131 -1.1529
 1665SOL    HW2 5574   9.706   1.821   4.378 -2.9387  2.6742  0.8605
 1666SOL     OW 5575   7.603   0.975   8.621  0.0615 -0.0438  1.0671
 1666SOL    HW1 5576   7.560   0.927   8.550  0.2247 -1.9610  2.1967
 1666SOL    HW2 5577   7.535   1.031   8.657 -0.4370 -0.2090  0.4016
 1667SOL     OW 5578   7.134   9.916   5.636 -0.6484 -0.0049 -0.1478
 1667SOL    HW1 5579   7.171  10.004   5.641 -1.5851  0.3583  0.5236
 1667SOL    HW2 5580   7.039   9.929   5.641 -0.7632 -1.1166  0.8787
 1668SOL     OW 5581   3.178   8.049   7.125 -0.0517  0.0409  0.0439
 1668SOL    HW1 5582   3.271   8.045   7.146 -0.3673 -1.1161  1.3661
 1668SOL    HW2 5583   3.153   7.957   7.110 -1.4142  0.0727  1.8178
 1669SOL     OW 5584   1.252   2.564   4.420  0.1562  0.3774 -0.3313
 1669SOL    HW1 5585   1.216   2.475   4.428 -0.5099  0.7457  1.1014
 1669SOL    HW2 5586   1.215   2.611   4.494  0.7525  1.7831 -0.8977
 1670SOL     OW 5587   8.950   1.488   1.941  0.3378  0.2140  0.3816
 1670SOL    HW1 5588   8.906   1.479   1.857 -0.6937 -1.8641  1.0875
 1670SOL    HW2 5589   9.028   1.541   1.922 -0.2174  0.3450 -1.7217
 1671SOL     OW 5590   0.927   1.409   2.482 -0.4109  0.1058 -0.0809
 1671SOL    HW1 5591   0.843   1.453   2.472 -0.1323  0.8039  0.5741
 1671SOL    HW2 5592   0.932   1.388   2.576  0.0185 -0.1925 -0.1680
 1672SOL     OW 5593   6.232   3.502   0.056 -0.1268  0.2932  0.0025
 1672SOL    HW1 5594   6.200   3.554  -0.018  0.6342 -0.3024 -0.7606
 1672SOL    HW2 5595   6.321   3.535   0.071  0.8037 -1.5274 -1.2356
 1673SOL     OW 5596   1.927   0.163   6.705 -0.0827 -0.0048 -1.0531
 1673SOL    HW1 5597   1.993   0.206   6.650 -0.1705  0.5336 -0.7381
 1673SOL    HW2 5598   1.978   0.124   6.776 -0.1427  0.8368 -0.5350
 1674SOL     OW 5599   3.248   2.696   0.133 -0.1154 -0.0590 -0.1157
 1674SOL    HW1 5600   3.202   2.687   0.216 -0.6050  0.7757 -0.2924
 1674SOL    HW2 5601   3.332   2.651   0.147 -0.1734  0.1173  0.8322
 1675SOL     OW 5602   0.444   7.299   8.090 -0.1720  0.2367 -0.2487
 1675SOL    HW1 5603   0.496   7.320   8.012 -0.2319  0.0302 -0.3454
 1675SOL    HW2 5604   0.461   7.370   8.151  0.9075 -0.2627  0.0597
 1676SOL     OW 5605   2.037   2.093   7.690  0.5855 -0.1031  0.4768
 1676SOL    HW1 5606   1.996   2.007   7.699  0.1343  0.1171  0.5354
 1676SOL    HW2 5607   2.028   2.115   7.598 -2.3629  1.3782  1.0274
 1677SOL     OW 5608   8.957   6.940   3.467  0.1636 -0.2045  0.0500
 1677SOL    HW1 5609   8.919   6.978   3.388 -1.0939  0.6499  1.0331
 1677SOL    HW2 5610   9.039   6.900   3.437 -0.4450 -0.1933 -1.7305
 1678SOL     OW 5611   9.808   9.498   3.057 -0.6232 -0.3606  0.0324
 1678SOL    HW1 5612   9.877   9.556   3.026  0.7388 -2.3084 -0.7751
 1678SOL    HW2 5613   9.837   9.470   3.144 -1.0354 -0.2325  0.2169
 1679SOL     OW 5614   1.332   1.924   3.038  0.6563 -0.5053 -0.6945
 1679SOL    HW1 5615   1.260   1.968   3.083 -0.2695 -2.9192  0.3549
 1679SOL    HW2 5616   1.375   1.873   3.106 -0.1075 -3.4271 -2.2523
 1680SOL     OW 5617   9.893   8.657   0.836 -0.0140  0.3050  0.5395
 1680SOL    HW1 5618   9.941   8.581   0.869  0.4426 -0.5320 -1.8565
 1680SOL    HW2 5619   9.805   8.624   0.819 -0.3733  0.8435  1.2775
 1681SOL     OW 5620   0.542   2.324   4.095 -0.3525 -0.5225 -0.1956
 1681SOL    HW1 5621   0.518   2.246   4.044 -1.7767  0.5309 -1.2043
 1681SOL    HW2 5622   0.554   2.291   4.184 -0.0710 -2.0286 -0.7527
 1682SOL     OW 5623   3.156   2.646   5.454  0.3165 -0.1110 -0.1004
 1682SOL    HW1 5624   3.187   2.663   5.543  1.1479  0.2961 -0.4525
 1682SOL    HW2 5625   3.201   2.711   5.401 -0.3276 -0.2213 -0.7993
 1683SOL     OW 5626   1.202   7.991   7.458  0.4146  0.4773  0.1894
 1683SOL    HW1 5627   1.212   7.906   7.500  0.7070 -1.4354 -3.3621
 1683SOL    HW2 5628   1.108   8.007   7.458 -0.1344 -1.9760 -2.6032
 1684SOL     OW 5629   2.564   9.899   9.808 -0.6482  0.0640 -0.7014
 1684SOL    HW1 5630   2.602   9.863   9.728  0.1489  1.8484 -1.1761
 1684SOL    HW2 5631   2.487   9.947   9.778  0.5018  2.0321 -0.6648
 1685SOL     OW 5632   2.889   3.340   4.023 -0.6119  0.1417 -0.3674
 1685SOL    HW1 5633   2.956   3.388   3.974 -1.4341 -0.3147 -2.0311
 1685SOL    HW2 5634   2.931   3.318   4.106  0.5173  1.7939 -0.4526
 1686SOL     OW 5635   6.264   0.381   2.135  0.1675  0.3684 -0.0644
 1686SOL    HW1 5636   6.301   0.295   2.157 -0.8292  0.1893  1.0126
 1686SOL    HW2 5637   6.317   0.412   2.062  2.2250 -0.0034  1.1980
 1687SOL     OW 5638   1.997   9.550   6.047 -0.7852  0.4108  0.2730
 1687SOL    HW1 5639   2.077   9.499   6.038 -0.7237  0.6017 -0.2934
 1687SOL    HW2 5640   1.994   9.604   5.968 -1.3118  0.6305  0.4401
 1688SOL     OW 5641   9.773   1.075   7.885  0.7673 -0.2899 -0.2494
 1688SOL    HW1 5642   9.768   0.983   7.911  0.0689 -0.3920 -0.7384
 1688SOL    HW2 5643   9.865   1.088   7.863  0.7525 -1.0496 -0.8088
 1689SOL     OW 5644   8.338   4.990   4.182 -0.0659 -0.3681  0.1228
 1689SOL    HW1 5645   8.417   5.015   4.229  0.1379  1.4877 -1.0972
 1689SOL    HW2 5646   8.368   4.932   4.112  0.2370  0.3665 -0.3629
 1690SOL     OW 5647   3.050   9.165   7.358  0.1559  0.1575  0.7793
 1690SOL    HW1 5648   3.092   9.107   7.294 -0.8441  0.5868 -0.3126
 1690SOL    HW2 5649   3.038   9.111   7.435  1.4736 -0.3551  0.6506
 1691SOL     OW 5650   0.331   9.492   5.063  0.2115 -0.4265 -0.4130
 1691SOL    HW1 5651   0.332   9.581   5.100  0.4140 -0.1324 -1.0997
 1691SOL    HW2 5652   0.371   9.438   5.130  1.4211  0.2514 -0.5492
 1692SOL     OW 5653   2.708   6.877   5.970 -0.0670 -0.3766  0.1081
 1692SOL    HW1 5654   2.677   6.962   6.001  0.7165 -0.1119  0.1890
 1692SOL    HW2 5655   2.757   6.897   5.890 -1.2520 -0.9451 -0.7935
 1693SOL     OW 5656   2.526   3.816   8.857  0.1137 -0.2537  0.5444
 1693SOL    HW1 5657   2.582   3.864   8.795  0.4401 -0.0933  0.9589
 1693SOL    HW2 5658   2.507   3.734   8.813 -0.1905  0.1243 -0.0445
 1694SOL     OW 5659   7.664   8.773   0.495  0.4612  0.4577  0.0675
 1694SOL    HW1 5660   7.712   8.722   0.430  0.4479  0.6362 -0.0807
 1694SOL    HW2 5661   7.712   8.855   0.502 -0.2394  0.9387 -0.6253
 1695SOL     OW 5662   5.688   8.807   0.965  0.1658 -0.3036  0.0086
 1695SOL    HW1 5663   5.771   8.788   1.010  0.1489 -2.1213 -0.6206
 1695SOL    HW2 5664   5.650   8.720   0.949 -2.2790  0.5099  1.0087
 1696SOL     OW 5665   1.730   0.166   0.793  0.3459 -0.4394  0.1413
 1696SOL    HW1 5666   1.728   0.177   0.698  2.5744 -2.0785 -0.1649
 1696SOL    HW2 5667   1.727   0.256   0.827  4.5912  0.6587 -1.7258
 1697SOL     OW 5668   0.636   7.823   4.497 -0.2732  0.2432  0.3974
 1697SOL    HW1 5669   0.725   7.854   4.506 -0.6567  1.8548 -0.9942
 1697SOL    HW2 5670   0.640   7.756   4.429  0.0481 -0.6176  1.2366
 1698SOL     OW 5671   5.166   9.135   9.472  0.2903  0.1684 -0.2855
 1698SOL    HW1 5672   5.239   9.161   9.528  1.5255 -1.2164 -1.1591
 1698SOL    HW2 5673   5.196   9.153   9.383 -0.0038 -1.2925 -0.7186
 1699SOL     OW 5674   9.447   9.853   2.345 -0.1357  0.3002  0.0420
 1699SOL    HW1 5675   9.420   9.761   2.342 -1.0714  0.5286  1.0599
 1699SOL    HW2 5676   9.519   9.855   2.407 -0.8277  0.4192  0.8490
 1700SOL     OW 5677   8.961   4.682   5.325  0.3807  0.3857  0.4404
 1700SOL    HW1 5678   8.889   4.724   5.277  0.5881  1.5583  1.1194
 1700SOL    HW2 5679   8.971   4.597   5.282  0.2930  1.2215 -1.3476
 1701SOL     OW 5680   2.441   0.943   1.698 -0.1916 -0.2678  0.2048
 1701SOL    HW1 5681   2.450   0.971   1.607 -0.1155 -0.3259  0.1935
 1701SOL    HW2 5682   2.498   0.866   1.704 -1.1104 -0.9884 -0.0065
 1702SOL     OW 5683   4.558   0.916   8.290  0.5710  0.0612 -0.1403
 1702SOL    HW1 5684   4.621   0.878   8.351  1.1951  0.2257 -0.6730
 1702SOL    HW2 5685   4.516   0.986   8.340  1.8169  0.8840 -0.2116
 1703SOL     OW 5686   6.281   6.215   2.170 -0.7816  0.2395  0.5253
 1703SOL    HW1 5687   6.277   6.210   2.265 -0.8865  1.0824  0.5711
 1703SOL    HW2 5688   6.236   6.296   2.148 -0.1910  0.3807 -0.1995
 1704SOL     OW 5689   4.789   8.354   5.072 -0.1884  0.2273  0.0098
 1704SOL    HW1 5690   4.729   8.359   5.147 -1.0450  0.6249 -0.6995
 1704SOL    HW2 5691   4.873   8.384   5.107 -0.9348  1.9118  0.4352
 1705SOL     OW 5692   8.163   8.394   0.484  0.4533 -1.1776 -0.1925
 1705SOL    HW1 5693   8.110   8.346   0.420 -0.4154 -1.3739  0.6517
 1705SOL    HW2 5694   8.099   8.433   0.544  1.2619 -1.6968  1.0525
 1706SOL     OW 5695   2.863   5.436   2.548  0.2386  0.0926 -0.3102
 1706SOL    HW1 5696   2.891   5.486   2.624 -0.4139  0.1835 -0.1181
 1706SOL    HW2 5697   2.769   5.456   2.540  0.0815 -0.7045 -0.5282
 1707SOL     OW 5698   7.438   0.930   5.910  0.3098  0.3505  0.2113
 1707SOL    HW1 5699   7.504   0.983   5.955  1.7439 -1.0389 -0.1718
 1707SOL    HW2 5700   7.444   0.844   5.952 -0.8819  0.0376 -0.2219
 1708SOL     OW 5701   2.317   3.300   5.424 -0.1039 -0.4755 -0.2993
 1708SOL    HW1 5702   2.270   3.376   5.459 -1.2480  0.0368 -2.7079
 1708SOL    HW2 5703   2.389   3.285   5.485 -0.3539  2.0201  0.7081
 1709SOL     OW 5704   9.744   0.099   0.086  0.0721 -0.4252  0.2612
 1709SOL    HW1 5705   9.687   0.160   0.131 -0.0093  0.1897 -0.6509
 1709SOL    HW2 5706   9.699   0.015   0.091 -0.4409 -0.1446  0.4060
 1710SOL     OW 5707   0.383   5.083   9.851 -0.3406  0.0848 -0.6055
 1710SOL    HW1 5708   0.418   5.140   9.783 -3.1435 -0.1870 -2.4556
 1710SOL    HW2 5709   0.388   5.135   9.931  1.7095  0.9591 -1.2342
 1711SOL     OW 5710   9.700   5.086   6.902  0.2883 -0.2755  0.1629
 1711SOL    HW1 5711   9.684   5.053   6.813 -0.3619 -0.7539  0.4463
 1711SOL    HW2 5712   9.613   5.090   6.941  0.7111 -1.8136  1.3752
 1712SOL     OW 5713   4.314   4.853   3.152 -1.0328  0.3261 -0.1863
 1712SOL    HW1 5714   4.241   4.909   3.177 -1.0610  0.3003 -0.2106
 1712SOL    HW2 5715   4.346   4.816   3.235 -0.3936  1.1302 -0.0637
 1713SOL     OW 5716   2.239   0.733   2.977  0.1370 -0.0053  0.4044
 1713SOL    HW1 5717   2.231   0.805   3.039 -2.5112  0.1190  0.0470
 1713SOL    HW2 5718   2.301   0.673   3.019  1.0935  1.6518  1.4975
 1714SOL     OW 5719   2.712   4.976   8.547 -0.2811  0.4329 -0.7586
 1714SOL    HW1 5720   2.702   5.061   8.504  1.7805  2.0206  1.5861
 1714SOL    HW2 5721   2.635   4.968   8.602 -0.5543  0.7218 -1.0946
 1715SOL     OW 5722   3.312   7.041   0.509  0.5118  0.3821  0.1767
 1715SOL    HW1 5723   3.217   7.048   0.496  0.5603  0.4042 -0.1630
 1715SOL    HW2 5724   3.347   7.120   0.468  0.8038 -0.3268 -0.9682
 1716SOL     OW 5725   8.059   0.388   8.113  0.1149  0.0832  0.0913
 1716SOL    HW1 5726   8.037   0.467   8.064 -1.1210 -0.8613 -0.9081
 1716SOL    HW2 5727   8.154   0.380   8.103  0.1024  0.8218 -0.7233
 1717SOL     OW 5728   7.222   7.281   9.710 -0.4050  0.6579 -0.5804
 1717SOL    HW1 5729   7.259   7.214   9.652  1.7770 -0.0077  1.4183
 1717SOL    HW2 5730   7.127   7.272   9.700 -0.1291 -0.7165 -2.5465
 1718SOL     OW 5731   4.449   6.110   1.554  0.0469 -0.1941  0.0371
 1718SOL    HW1 5732   4.409   6.169   1.618 -1.5498 -0.3407 -0.7629
 1718SOL    HW2 5733   4.414   6.139   1.469  2.9805  0.7402 -0.9856
 1719SOL     OW 5734   2.856   3.194   8.369 -0.2695  0.2486 -0.3985
 1719SOL    HW1 5735   2.947   3.218   8.348  0.1721 -1.0417 -0.0640
 1719SOL    HW2 5736   2.852   3.202   8.465 -0.5823  0.4980 -0.4316
 1720SOL     OW 5737   6.206   0.818   5.020  0.6365 -0.1608  0.4333
 1720SOL    HW1 5738   6.144   0.749   4.993 -1.1989  0.8846  1.7191
 1720SOL    HW2 5739   6.211   0.809   5.115  1.7336  0.4001  0.4370
 1721SOL     OW 5740   2.209   6.267   2.290  0.6102 -0.1182  0.1736
 1721SOL    HW1 5741   2.159   6.202   2.340  1.4217 -2.7566 -2.2202
 1721SOL    HW2 5742   2.274   6.299   2.353  0.5409 -2.0503  1.3350
 1722SOL     OW 5743   0.087   5.131   0.911 -0.9615 -0.6988 -0.2010
 1722SOL    HW1 5744  -0.008   5.132   0.919 -0.9327  0.1846  0.1303
 1722SOL    HW2 5745   0.114   5.050   0.954 -1.7177 -2.1778 -2.3856
 1723SOL     OW 5746   6.655   5.143   5.966  0.4198  0.3272  0.6814
 1723SOL    HW1 5747   6.675   5.088   6.041  2.0293  0.8598  0.7001
 1723SOL    HW2 5748   6.602   5.214   6.001  1.0123  0.4800  1.2958
 1724SOL     OW 5749   7.049   2.651   4.294  0.8112 -0.4421 -0.6128
 1724SOL    HW1 5750   6.971   2.618   4.339  1.2700 -0.3025  0.3106
 1724SOL    HW2 5751   7.048   2.745   4.310  0.5197 -0.2589 -1.6433
 1725SOL     OW 5752   2.887   8.897   8.656 -0.7757  0.0055  0.4726
 1725SOL    HW1 5753   2.849   8.982   8.680 -0.2692  0.7045 -1.0452
 1725SOL    HW2 5754   2.951   8.918   8.589  1.7528 -1.2332  2.3358
 1726SOL     OW 5755   9.734   4.066   1.200  0.0839 -0.3262  0.0778
 1726SOL    HW1 5756   9.752   4.148   1.246  0.7947 -0.3086 -0.2084
 1726SOL    HW2 5757   9.762   3.997   1.261  0.9845 -0.3040 -0.2880
 1727SOL     OW 5758   2.166   9.912   2.387 -0.1175 -0.3135 -0.4112
 1727SOL    HW1 5759   2.178   9.858   2.465  1.7584  0.4369 -0.1288
 1727SOL    HW2 5760   2.138   9.997   2.421 -0.1990 -0.2535 -0.6261
 1728SOL     OW 5761   0.740   1.224   8.422  0.0024  0.1379  0.4117
 1728SOL    HW1 5762   0.832   1.200   8.411 -0.0840 -0.8977  1.6334
 1728SOL    HW2 5763   0.742   1.314   8.454  0.4763  0.8564 -1.5070
 1729SOL     OW 5764   5.097   0.368   1.510 -0.4839 -0.5143 -0.0982
 1729SOL    HW1 5765   5.030   0.330   1.568 -1.9568 -0.3169 -1.5844
 1729SOL    HW2 5766   5.168   0.304   1.510 -0.9529 -1.0648  0.9866
 1730SOL     OW 5767   4.856   7.211   5.395 -0.1379 -0.5309  0.6697
 1730SOL    HW1 5768   4.829   7.123   5.369 -0.5184 -1.1713  2.9629
 1730SOL    HW2 5769   4.777   7.249   5.435 -0.4956  1.5706 -1.7508
 1731SOL     OW 5770   3.212   1.651   3.104 -0.4162  0.0167 -0.6068
 1731SOL    HW1 5771   3.269   1.717   3.063  0.8019 -1.1384 -0.8351
 1731SOL    HW2 5772   3.156   1.701   3.164  1.2682  1.1205  0.1069
 1732SOL     OW 5773   3.239   2.182   6.381  0.0304 -0.2764 -0.1068
 1732SOL    HW1 5774   3.260   2.114   6.317  1.4107  1.4249 -1.5836
 1732SOL    HW2 5775   3.281   2.153   6.462  1.9434 -0.4773 -1.1208
 1733SOL     OW 5776   3.100   5.755   0.718  0.2965  0.0031 -0.4374
 1733SOL    HW1 5777   3.137   5.832   0.675 -2.7671  3.5966  2.6346
 1733SOL    HW2 5778   3.008   5.755   0.694 -0.3998 -0.8994  1.9182
 1734SOL     OW 5779   7.390   9.621   5.898 -0.5170  0.4688 -0.5285
 1734SOL    HW1 5780   7.370   9.546   5.843 -0.7844  0.9088 -1.0450
 1734SOL    HW2 5781   7.349   9.601   5.982 -0.1645 -0.1769 -0.5017
 1735SOL     OW 5782   5.185   3.090   0.008  0.3581 -0.0696  0.2067
 1735SOL    HW1 5783   5.254   3.023   0.014  1.8615  1.4161  0.0626
 1735SOL    HW2 5784   5.153   3.099   0.098 -0.2292 -1.3084  0.1505
 1736SOL     OW 5785   9.249   5.999   1.818 -0.6040  0.0627  0.3545
 1736SOL    HW1 5786   9.314   5.947   1.866  0.7361  0.7676 -0.6626
 1736SOL    HW2 5787   9.299   6.069   1.777 -2.0413  0.7307 -0.3176
 1737SOL     OW 5788   5.727   3.000   0.364  0.3677 -0.3686  0.1159
 1737SOL    HW1 5789   5.735   2.912   0.327  1.5652 -1.0957  1.9724
 1737SOL    HW2 5790   5.640   3.029   0.336 -0.1263 -2.1948 -0.4196
 1738SOL     OW 5791   2.457   5.641   5.793 -0.0475 -0.3992  0.7720
 1738SOL    HW1 5792   2.389   5.708   5.797 -1.9449 -2.0995 -0.7739
 1738SOL    HW2 5793   2.472   5.616   5.884 -0.6491  0.7902  1.2183
 1739SOL     OW 5794   6.771   0.885   3.038  0.3271  0.4200  0.5357
 1739SOL    HW1 5795   6.697   0.823   3.041 -0.3370  1.1549 -0.0667
 1739SOL    HW2 5796   6.807   0.874   2.950 -0.2531  1.3917  0.1650
 1740SOL     OW 5797   8.768   9.808   7.386  0.4896 -0.1272  0.3560
 1740SOL    HW1 5798   8.742   9.848   7.303  0.1771 -1.6402 -0.3058
 1740SOL    HW2 5799   8.702   9.741   7.402 -0.3281  1.1187  2.6260
 1741SOL     OW 5800   2.570   2.732   5.514  0.7304  0.5356  0.0246
 1741SOL    HW1 5801   2.565   2.637   5.528  0.9945  0.3194 -1.2505
 1741SOL    HW2 5802   2.658   2.747   5.481  0.5860  1.1899 -0.0816
 1742SOL     OW 5803   9.748   6.182   2.814 -0.3340 -0.1517 -0.1153
 1742SOL    HW1 5804   9.796   6.259   2.784 -2.3862  1.5234  0.6299
 1742SOL    HW2 5805   9.767   6.178   2.908  0.3290 -0.9956 -0.2827
 1743SOL     OW 5806   0.847   1.087   5.889 -0.6175  0.5094 -0.1402
 1743SOL    HW1 5807   0.788   1.058   5.959 -1.0802  2.4018  0.3082
 1743SOL    HW2 5808   0.879   1.172   5.919 -2.5422  2.4971 -3.1270
 1744SOL     OW 5809   4.827   2.104   1.518 -0.1920  0.9378 -0.8233
 1744SOL    HW1 5810   4.906   2.155   1.535 -0.2215  0.5732  0.4950
 1744SOL    HW2 5811   4.755   2.166   1.527 -0.3369  0.4463  2.2125
 1745SOL     OW 5812   5.549   2.499   4.014 -0.6353 -0.1715 -0.5109
 1745SOL    HW1 5813   5.643   2.509   4.001 -0.2362 -1.4340  1.0383
 1745SOL    HW2 5814   5.539   2.499   4.110 -2.2146  0.0088 -0.6604
 1746SOL     OW 5815   7.379   7.812   2.165 -0.5145  0.2670 -0.1236
 1746SOL    HW1 5816   7.297   7.815   2.116 -1.3115 -0.3135  1.1284
 1746SOL    HW2 5817   7.436   7.876   2.121 -1.3701  0.1566 -1.4464
 1747SOL     OW 5818   2.800   9.828   0.709  0.1081 -0.1784  0.4164
 1747SOL    HW1 5819   2.838   9.882   0.778  0.4595 -1.0892  0.9627
 1747SOL    HW2 5820   2.852   9.748   0.710 -0.7790 -0.7774  0.0554
 1748SOL     OW 5821   8.855   4.749   4.760  0.0942  0.3253  0.7826
 1748SOL    HW1 5822   8.790   4.810   4.794  0.7874  0.5442  1.7686
 1748SOL    HW2 5823   8.916   4.737   4.832  1.6780  0.8654 -0.4011
 1749SOL     OW 5824   7.280   8.085   4.315  0.1023 -0.3375  0.4040
 1749SOL    HW1 5825   7.362   8.036   4.317 -0.6540 -1.6924  0.1040
 1749SOL    HW2 5826   7.251   8.088   4.406  0.3679 -0.0676  0.4788
 1750SOL     OW 5827   9.321   3.998   4.312 -0.4742  0.4028  0.5450
 1750SOL    HW1 5828   9.385   4.052   4.266  0.7858 -0.7078  0.9172
 1750SOL    HW2 5829   9.371   3.920   4.339 -1.9396 -0.3947  1.0423
 1751SOL     OW 5830   3.077   8.447   7.140  0.1200 -0.6173  0.2977
 1751SOL    HW1 5831   3.084   8.431   7.046  1.2008 -0.5848  0.3587
 1751SOL    HW2 5832   3.151   8.504   7.160  0.1811 -1.0111  1.2518
 1752SOL     OW 5833   9.458   9.027   1.085 -0.0360  0.0391  0.1462
 1752SOL    HW1 5834   9.368   9.001   1.106  0.8637 -2.3610  1.4223
 1752SOL    HW2 5835   9.476   9.103   1.140 -1.0287  0.0676  0.4400
 1753SOL     OW 5836   1.913   2.044   4.999  0.2383 -0.2912  0.5110
 1753SOL    HW1 5837   1.876   2.000   4.923 -0.6899  1.8260 -0.3341
 1753SOL    HW2 5838   1.935   2.132   4.969  0.2096  0.4926  2.5793
 1754SOL     OW 5839   5.212   8.610   7.961 -0.0024  0.2092 -0.1917
 1754SOL    HW1 5840   5.213   8.681   8.025  1.8409  1.7162 -1.7847
 1754SOL    HW2 5841   5.126   8.568   7.973 -1.5409  3.2125  0.2613
 1755SOL     OW 5842   4.524   1.837   7.443  0.1114 -0.6125  0.0994
 1755SOL    HW1 5843   4.520   1.906   7.377  0.4430 -0.8352 -0.1547
 1755SOL    HW2 5844   4.549   1.759   7.395 -0.4483 -0.9533  0.3581
 1756SOL     OW 5845   8.709   4.580   6.185  0.0269  0.3015  0.7155
 1756SOL    HW1 5846   8.751   4.582   6.099 -0.2345 -0.0710  0.5751
 1756SOL    HW2 5847   8.734   4.494   6.221  3.0532  1.7339  2.4966
 1757SOL     OW 5848   6.881   8.327   7.418 -0.0258 -0.4693  0.4098
 1757SOL    HW1 5849   6.792   8.352   7.394 -0.2013 -4.4537 -5.0740
 1757SOL    HW2 5850   6.873   8.285   7.503 -3.0349  0.4814  0.7118
 1758SOL     OW 5851   8.663   5.904   7.901  0.3663  0.2912  0.6461
 1758SOL    HW1 5852   8.616   5.987   7.892  0.0246  0.2307  1.7893
 1758SOL    HW2 5853   8.656   5.864   7.815 -1.3122  0.4792  0.6620
 1759SOL     OW 5854   3.845   1.010   6.302  0.2389 -0.4737  0.0004
 1759SOL    HW1 5855   3.800   1.076   6.354  1.6675 -0.1878  0.9078
 1759SOL    HW2 5856   3.842   0.931   6.355  0.3380 -0.5982 -0.1783
 1760SOL     OW 5857   3.317   7.054   3.916 -0.0914 -0.3463  0.0145
 1760SOL    HW1 5858   3.305   7.064   4.010  0.5051 -2.2704  0.3399
 1760SOL    HW2 5859   3.251   6.991   3.890  0.7722 -1.0566 -0.5366
 1761SOL     OW 5860   7.333   6.187   4.049  0.0976  0.6896 -0.1721
 1761SOL    HW1 5861   7.362   6.096   4.056 -0.7441  0.4724  0.5466
 1761SOL    HW2 5862   7.359   6.228   4.131  1.8373  1.5236 -1.0767
 1762SOL     OW 5863   8.775   5.666   3.919  0.2193  0.2043  0.0893
 1762SOL    HW1 5864   8.690   5.710   3.929  1.2243  2.7726 -1.5076
 1762SOL    HW2 5865   8.779   5.643   3.826  0.6616 -1.3674  0.4654
 1763SOL     OW 5866   0.753   8.163   8.006 -0.1088  0.0415 -0.1586
 1763SOL    HW1 5867   0.832   8.169   7.952 -0.0788 -0.1703 -0.1390
 1763SOL    HW2 5868   0.682   8.190   7.947 -0.0764 -0.1904 -0.3050
 1764SOL     OW 5869   7.126   1.930   2.257 -0.6254 -0.3259  0.1261
 1764SOL    HW1 5870   7.201   1.949   2.313 -0.0863 -0.9619 -0.3584
 1764SOL    HW2 5871   7.144   1.842   2.222 -0.5096  0.3645 -1.7000
 1765SOL     OW 5872   6.831   4.245   8.605 -0.0153  0.3110 -0.2228
 1765SOL    HW1 5873   6.782   4.177   8.559  0.2328  0.1929 -0.3149
 1765SOL    HW2 5874   6.820   4.323   8.551 -0.6808  0.4640  0.1211
 1766SOL     OW 5875   6.252   0.062   0.618 -0.6679 -0.1582 -0.1004
 1766SOL    HW1 5876   6.333   0.101   0.652 -0.1617  0.0204 -1.4711
 1766SOL    HW2 5877   6.188   0.077   0.688  0.7217 -1.3054  1.5038
 1767SOL     OW 5878   9.029   8.689   3.289  0.3790  0.3557  0.1333
 1767SOL    HW1 5879   9.103   8.738   3.254 -0.2049  1.7513  0.7873
 1767SOL    HW2 5880   9.024   8.715   3.381  0.5016 -1.5265  0.7317
 1768SOL     OW 5881   2.501   7.569   7.117  0.4327 -0.4228  0.6792
 1768SOL    HW1 5882   2.466   7.644   7.165 -2.0876 -1.2641  0.3421
 1768SOL    HW2 5883   2.458   7.574   7.031  2.4844 -0.6561 -0.4271
 1769SOL     OW 5884   5.441   7.686   1.969  0.8735 -0.2207  0.2970
 1769SOL    HW1 5885   5.466   7.597   1.943  2.1210  0.7362 -2.0237
 1769SOL    HW2 5886   5.367   7.708   1.913 -0.1069 -0.1260  1.5850
 1770SOL     OW 5887   5.635   9.061   5.174  0.2656 -0.2006  0.2108
 1770SOL    HW1 5888   5.554   9.106   5.198 -0.1200 -0.1946 -1.0500
 1770SOL    HW2 5889   5.606   8.983   5.126  1.0048 -0.3384 -0.0279
 1771SOL     OW 5890   5.221   7.470   9.551 -0.6126  0.2853  0.1610
 1771SOL    HW1 5891   5.247   7.378   9.550 -2.2452 -0.2220  0.9830
 1771SOL    HW2 5892   5.243   7.502   9.464 -0.2366 -0.9402 -0.2202
 1772SOL     OW 5893   9.302   6.901   8.138  0.6698  0.1019  0.2291
 1772SOL    HW1 5894   9.328   6.810   8.121 -0.3886 -0.3471  0.8776
 1772SOL    HW2 5895   9.319   6.946   8.056 -1.0356 -1.2205 -0.9219
 1773SOL     OW 5896   5.871   8.403   2.473 -0.8286  0.0374  0.2351
 1773SOL    HW1 5897   5.836   8.489   2.451  1.2653  1.0402  0.6528
 1773SOL    HW2 5898   5.954   8.397   2.425 -0.3993 -1.2925  1.0757
 1774SOL     OW 5899   4.743   7.590   6.593  0.3933  0.6923 -0.5596
 1774SOL    HW1 5900   4.733   7.499   6.621  0.7998  1.0321  0.7650
 1774SOL    HW2 5901   4.679   7.601   6.523 -1.7736  0.1826  1.2131
 1775SOL     OW 5902   2.189   0.471   4.491 -0.0892  0.6727 -0.2730
 1775SOL    HW1 5903   2.252   0.444   4.558 -0.3967 -0.2397 -0.3450
 1775SOL    HW2 5904   2.133   0.534   4.536  0.6339  1.2136 -0.1015
 1776SOL     OW 5905   3.305   4.071   1.372  0.2012 -0.3585 -0.0455
 1776SOL    HW1 5906   3.213   4.056   1.394  0.0191  0.5188 -0.1671
 1776SOL    HW2 5907   3.354   4.015   1.432 -0.3759  0.0124  0.7958
 1777SOL     OW 5908   2.065   2.133   1.199 -0.1006 -0.1616 -0.5181
 1777SOL    HW1 5909   2.128   2.071   1.161 -0.1797 -1.0459  0.7302
 1777SOL    HW2 5910   2.025   2.175   1.123  0.9858 -0.5978 -1.3704
 1778SOL     OW 5911   0.254   4.199   2.932 -0.0839 -0.6175 -0.2882
 1778SOL    HW1 5912   0.268   4.143   3.009 -1.0587 -0.6440 -0.1164
 1778SOL    HW2 5913   0.209   4.276   2.966  0.0784 -0.3201 -0.7349
 1779SOL     OW 5914   2.324   2.258   0.199  0.5830 -0.3001  0.3939
 1779SOL    HW1 5915   2.279   2.300   0.272 -0.9459 -0.0699 -0.6308
 1779SOL    HW2 5916   2.311   2.164   0.214 -0.2571 -0.2362  0.1107
 1780SOL     OW 5917   0.495   5.702   5.808 -0.4066 -0.0782 -0.8777
 1780SOL    HW1 5918   0.565   5.649   5.771  0.2199 -0.5021  0.8300
 1780SOL    HW2 5919   0.414   5.654   5.787  0.0438 -1.0046 -0.5314
 1781SOL     OW 5920   2.535   0.998   9.073  0.6578 -0.0428 -0.1991
 1781SOL    HW1 5921   2.445   1.020   9.050  0.1607 -0.2731  1.3617
 1781SOL    HW2 5922   2.584   1.079   9.057  0.0446  0.2918 -0.4232
 1782SOL     OW 5923   1.923   7.090   1.955  0.8736 -0.8607 -0.2685
 1782SOL    HW1 5924   1.845   7.094   1.900  0.8127  0.0365 -0.1272
 1782SOL    HW2 5925   1.896   7.036   2.030  0.2389 -0.1642  0.0149
 1783SOL     OW 5926   9.296   3.865   6.856 -0.3194 -0.6911 -0.2075
 1783SOL    HW1 5927   9.259   3.777   6.864 -0.6164 -0.6398 -0.8922
 1783SOL    HW2 5928   9.291   3.884   6.762 -0.6941  0.2489 -0.0047
 1784SOL     OW 5929   6.488   2.599   4.782 -0.1617 -0.1060  0.0009
 1784SOL    HW1 5930   6.493   2.540   4.707  1.7729  1.9374 -1.6418
 1784SOL    HW2 5931   6.476   2.542   4.857  2.4296 -2.6868 -1.3386
 1785SOL     OW 5932   0.264   7.449   1.851  0.1671  0.4708  0.3297
 1785SOL    HW1 5933   0.219   7.381   1.801 -1.8970  2.3821 -0.6329
 1785SOL    HW2 5934   0.335   7.478   1.794  0.3505 -0.0856  0.2690
 1786SOL     OW 5935   2.851   7.854   6.852 -0.0238  0.4248 -0.1902
 1786SOL    HW1 5936   2.836   7.864   6.946  0.1362  0.1204 -0.1317
 1786SOL    HW2 5937   2.790   7.915   6.812  0.7070  1.4189  0.1459
 1787SOL     OW 5938   8.294   0.425   6.260 -0.0094  0.2430 -0.1853
 1787SOL    HW1 5939   8.318   0.358   6.195 -0.0882  1.2816 -1.3206
 1787SOL    HW2 5940   8.202   0.407   6.280  0.5507 -1.3662  1.2640
 1788SOL     OW 5941   4.950   0.900   1.804  0.3704  0.0053 -0.0501
 1788SOL    HW1 5942   4.884   0.963   1.775 -0.6710 -1.4466 -0.9514
 1788SOL    HW2 5943   4.927   0.882   1.896 -2.1679 -2.3372 -0.9815
 1789SOL     OW 5944   6.602   2.378   6.041  0.1083 -0.0350 -0.2054
 1789SOL    HW1 5945   6.531   2.365   6.104  0.5628  0.2693  0.3766
 1789SOL    HW2 5946   6.681   2.381   6.095  0.3665  1.7707 -0.6239
 1790SOL     OW 5947   1.820   8.847   2.199  0.7348 -0.3964  0.6576
 1790SOL    HW1 5948   1.806   8.772   2.141  3.3432 -0.2225 -0.3329
 1790SOL    HW2 5949   1.876   8.813   2.269  1.5020  0.5003  0.4911
 1791SOL     OW 5950   8.243   3.278   3.761 -0.0843 -0.3199  0.3084
 1791SOL    HW1 5951   8.174   3.344   3.759 -1.3987 -1.5640  1.9031
 1791SOL    HW2 5952   8.198   3.196   3.740  1.4721 -0.8021 -1.4342
 1792SOL     OW 5953   8.697   0.295   8.814  0.0775 -0.6193 -0.2930
 1792SOL    HW1 5954   8.716   0.203   8.828 -0.4450 -0.4716  1.5741
 1792SOL    HW2 5955   8.749   0.319   8.737  3.2611 -1.5341  1.4362
 1793SOL     OW 5956   5.129   1.705   7.084 -0.1653  0.1572 -0.3920
 1793SOL    HW1 5957   5.112   1.799   7.077 -1.0588 -0.0156 -0.6886
 1793SOL    HW2 5958   5.042   1.665   7.075 -0.1162 -0.5948  1.8394
 1794SOL     OW 5959   6.538   3.259   7.413 -0.1103  0.3449 -0.6957
 1794SOL    HW1 5960   6.606   3.236   7.350  0.3417  1.2568 -0.5521
 1794SOL    HW2 5961   6.473   3.307   7.361  1.2614  2.9856 -0.1527
 1795SOL     OW 5962   2.387   4.258   5.116  0.6026 -0.5067  0.5093
 1795SOL    HW1 5963   2.474   4.228   5.142  1.0389  1.0699  0.9668
 1795SOL    HW2 5964   2.394   4.276   5.023  1.2846  1.2175  0.8611
 1796SOL     OW 5965   7.379   3.036   6.272  0.1281 -0.3896 -0.3273
 1796SOL    HW1 5966   7.287   3.028   6.297  0.5028  0.4526  1.5690
 1796SOL    HW2 5967   7.421   2.959   6.309  0.6496  0.7475  1.6428
 1797SOL     OW 5968   4.746   2.251   9.313 -0.6857  0.1881  0.2350
 1797SOL    HW1 5969   4.775   2.335   9.276 -0.4099  0.2471  0.5773
 1797SOL    HW2 5970   4.701   2.275   9.394 -2.7783  0.1896 -0.8727
 1798SOL     OW 5971   8.810   9.025   7.477 -0.8210  0.2195 -0.2944
 1798SOL    HW1 5972   8.714   9.020   7.473 -0.7596 -0.5376 -1.4948
 1798SOL    HW2 5973   8.829   9.119   7.474 -1.5268  0.3709 -0.2578
 1799SOL     OW 5974   0.191   0.154   7.798  0.0517 -0.1488 -0.2686
 1799SOL    HW1 5975   0.285   0.162   7.817  0.0128  1.2609 -0.5777
 1799SOL    HW2 5976   0.184   0.172   7.704 -0.9799  4.7888  0.4940
 1800SOL     OW 5977   1.028   0.498   6.370 -0.6656  0.4701  0.0866
 1800SOL    HW1 5978   1.097   0.434   6.356  1.1784  2.1170  1.1692
 1800SOL    HW2 5979   0.947   0.449   6.356  0.6393 -2.0198  0.6791
 1801SOL     OW 5980   5.676   7.879   7.209 -0.1271 -0.2296  0.1206
 1801SOL    HW1 5981   5.694   7.962   7.252  0.0987 -0.1409 -0.1415
 1801SOL    HW2 5982   5.720   7.885   7.125 -0.8103 -0.2853 -0.2518
 1802SOL     OW 5983   0.917   2.699   7.731 -0.7811  0.7166  0.3781
 1802SOL    HW1 5984   0.903   2.668   7.641 -1.8234  2.1590 -0.0041
 1802SOL    HW2 5985   0.884   2.789   7.730  0.0400  1.0664  1.9869
 1803SOL     OW 5986   6.176   4.467   1.163  0.1899  0.2461  0.1105
 1803SOL    HW1 5987   6.224   4.528   1.218  2.0295  0.8705 -2.0540
 1803SOL    HW2 5988   6.084   4.487   1.180  0.6045 -0.0992  3.4063
 1804SOL     OW 5989   7.461   4.192   6.339 -0.0018 -0.3002 -0.1845
 1804SOL    HW1 5990   7.535   4.178   6.280 -0.6940  0.5820 -1.2856
 1804SOL    HW2 5991   7.412   4.265   6.301 -0.1113  0.7657  1.8436
 1805SOL     OW 5992   0.165   7.853   7.323 -0.6429 -0.1562 -0.1413
 1805SOL    HW1 5993   0.231   7.838   7.390 -0.5124  0.9338  0.0040
 1805SOL    HW2 5994   0.208   7.912   7.260 -0.6567 -1.4015 -1.3611
 1806SOL     OW 5995   5.041   1.967   7.082 -0.8344  0.0677  0.2557
 1806SOL    HW1 5996   4.960   1.967   7.132 -0.9429  2.1391  0.1799
 1806SOL    HW2 5997   5.109   1.990   7.147 -0.4422 -0.7262  0.1364
 1807SOL     OW 5998   2.054   5.887   2.278 -0.1546  0.6077  0.2749
 1807SOL    HW1 5999   2.022   5.969   2.314  1.1051  1.6679 -0.8670
 1807SOL    HW2 6000   2.086   5.911   2.190 -0.8103 -1.3339 -0.5492
 1808SOL     OW 6001   9.342   9.593   6.507  0.1783 -0.1038 -0.2497
 1808SOL    HW1 6002   9.359   9.582   6.413  0.5867 -1.1469 -0.0680
 1808SOL    HW2 6003   9.267   9.537   6.525  0.5106 -0.4314  0.1619
 1809SOL     OW 6004   1.124   4.386   4.418 -0.5010  0.1086 -0.8762
 1809SOL    HW1 6005   1.058   4.449   4.446 -1.4154  0.0944 -2.8437
 1809SOL    HW2 6006   1.080   4.331   4.354  1.3277 -0.0867 -2.0378
 1810SOL     OW 6007   2.278   7.194   8.550 -0.1265  0.1813 -0.0989
 1810SOL    HW1 6008   2.187   7.166   8.547 -0.4778  1.3318 -1.3524
 1810SOL    HW2 6009   2.279   7.268   8.610  0.4982 -1.3723  1.9203
 1811SOL     OW 6010   9.420   2.629   3.534  0.1388  0.3123  0.1796
 1811SOL    HW1 6011   9.423   2.580   3.616  0.6541 -0.7627 -0.4605
 1811SOL    HW2 6012   9.436   2.563   3.467 -1.3865  0.9898 -0.8733
 1812SOL     OW 6013   8.905   1.805   4.526  0.2138  0.1619 -0.1777
 1812SOL    HW1 6014   8.980   1.747   4.517  0.9259  0.8691  0.8787
 1812SOL    HW2 6015   8.866   1.808   4.439  2.5296  1.2459 -1.2790
 1813SOL     OW 6016   3.485   1.315   2.396 -0.3754 -0.2749 -0.1848
 1813SOL    HW1 6017   3.393   1.321   2.419 -0.7155  0.0361 -1.5582
 1813SOL    HW2 6018   3.521   1.401   2.418 -0.5831 -0.1492 -0.3358
 1814SOL     OW 6019   9.031   2.571   6.381 -0.2791  0.0743  0.7433
 1814SOL    HW1 6020   9.047   2.478   6.369  0.2073  0.1937  0.4625
 1814SOL    HW2 6021   9.000   2.601   6.296 -0.4494  0.1681  0.8375
 1815SOL     OW 6022   7.101   6.235   7.983 -0.0717 -0.2230 -0.1451
 1815SOL    HW1 6023   7.076   6.208   8.072 -1.6547 -0.8862 -0.7532
 1815SOL    HW2 6024   7.152   6.315   7.996 -1.6789  0.6340  1.3036
 1816SOL     OW 6025   5.375   6.311   2.819  0.7519 -0.1883  0.4598
 1816SOL    HW1 6026   5.330   6.228   2.804  0.1717  0.4401 -1.5158
 1816SOL    HW2 6027   5.318   6.377   2.779  0.6006  1.3524  2.9814
 1817SOL     OW 6028   5.878   9.452   9.400  0.2853 -0.2787 -0.0204
 1817SOL    HW1 6029   5.964   9.461   9.441  0.1045  2.5856 -0.0337
 1817SOL    HW2 6030   5.896   9.448   9.306  0.5496 -4.2594  0.0472
 1818SOL     OW 6031   9.372   6.733   6.851 -0.1476  0.7369 -0.2114
 1818SOL    HW1 6032   9.455   6.762   6.890 -0.5561  1.2879  0.2807
 1818SOL    HW2 6033   9.306   6.761   6.914 -0.6881  0.0336 -0.4545
 1819SOL     OW 6034   1.408   3.732   9.333  0.6827  0.0818 -0.3011
 1819SOL    HW1 6035   1.414   3.661   9.397 -0.3204  0.6696  0.4663
 1819SOL    HW2 6036   1.325   3.715   9.287  0.6142  0.5450 -0.3537
 1820SOL     OW 6037   6.809   1.722   3.575 -1.0712  0.0858  0.3736
 1820SOL    HW1 6038   6.897   1.726   3.612 -1.3712  0.3599  1.0676
 1820SOL    HW2 6039   6.766   1.651   3.622 -1.5378  0.6071  0.7393
 1821SOL     OW 6040   8.858   3.408   2.142  0.4348 -0.1795 -0.6350
 1821SOL    HW1 6041   8.781   3.363   2.177 -0.5189  2.7123  1.4056
 1821SOL    HW2 6042   8.929   3.384   2.203  0.1013  0.4292  0.0128
 1822SOL     OW 6043   4.811   6.432   4.577  0.7470 -0.3157  0.2372
 1822SOL    HW1 6044   4.827   6.354   4.524 -0.0618 -0.9311  0.8805
 1822SOL    HW2 6045   4.719   6.454   4.561  0.8815  0.3150  0.3096
 1823SOL     OW 6046   4.774   0.787   8.435 -0.2930 -0.3801  0.6318
 1823SOL    HW1 6047   4.851   0.844   8.429  0.5950 -1.1811  3.1162
 1823SOL    HW2 6048   4.810   0.699   8.444 -1.6299 -1.4565 -2.8604
 1824SOL     OW 6049   0.993   5.681   6.801  0.0322 -0.1957 -0.6878
 1824SOL    HW1 6050   1.032   5.719   6.880 -0.1129  0.4848 -0.9396
 1824SOL    HW2 6051   1.065   5.678   6.738  0.0385 -0.3353 -0.6760
 1825SOL     OW 6052   0.956   1.858   3.746 -0.1392  0.3252  0.3959
 1825SOL    HW1 6053   0.861   1.860   3.734 -0.1208  2.9809 -0.0435
 1825SOL    HW2 6054   0.988   1.803   3.675 -1.2378  1.3468 -0.9652
 1826SOL     OW 6055   3.647   2.045   6.568  0.0851 -0.0556 -0.6839
 1826SOL    HW1 6056   3.702   2.120   6.544  0.4647 -0.4539 -1.0952
 1826SOL    HW2 6057   3.558   2.078   6.565  0.2026  0.2048 -1.5587
 1827SOL     OW 6058   8.725   2.842   6.147  0.3803 -0.2692  0.4945
 1827SOL    HW1 6059   8.685   2.914   6.097  0.8965 -0.3931 -0.1109
 1827SOL    HW2 6060   8.692   2.763   6.105 -0.4241 -0.4049  1.3463
 1828SOL     OW 6061   5.753   6.661   9.721 -0.5417 -0.4673 -0.0392
 1828SOL    HW1 6062   5.681   6.605   9.751 -1.0219 -1.4565 -2.7670
 1828SOL    HW2 6063   5.830   6.604   9.724 -0.2242 -0.0104  0.9740
 1829SOL     OW 6064   2.272   9.181   6.470  0.4569 -0.1747  0.3164
 1829SOL    HW1 6065   2.177   9.171   6.468  0.5552 -0.9721 -1.5582
 1829SOL    HW2 6066   2.289   9.221   6.555 -1.5027 -0.4615  0.8988
 1830SOL     OW 6067   1.272   1.968   6.920 -0.1607 -0.3412 -0.3541
 1830SOL    HW1 6068   1.235   2.055   6.933  0.9948 -0.0053  0.9245
 1830SOL    HW2 6069   1.235   1.938   6.837  0.0359  1.7030 -1.2388
 1831SOL     OW 6070   3.506   8.319   1.808 -0.8996  0.0011 -0.1188
 1831SOL    HW1 6071   3.560   8.397   1.816  2.3725 -2.1343  0.3273
 1831SOL    HW2 6072   3.443   8.326   1.879  1.0208  1.0403  1.5810
 1832SOL     OW 6073   5.424   0.445   7.894  0.3188  0.0743 -0.0259
 1832SOL    HW1 6074   5.468   0.362   7.875  1.8795  0.8789 -0.0785
 1832SOL    HW2 6075   5.491   0.512   7.878 -0.2539  1.2291  2.0338
 1833SOL     OW 6076   8.848   0.213   4.983 -0.5091 -0.6277  0.7774
 1833SOL    HW1 6077   8.808   0.189   4.900 -0.1390 -1.3260  0.7923
 1833SOL    HW2 6078   8.872   0.129   5.024 -0.0975 -0.2729  1.2875
 1834SOL     OW 6079   5.587   1.779   0.350  0.1638  0.1054  0.2585
 1834SOL    HW1 6080   5.493   1.762   0.355  0.4848 -1.5607  1.3010
 1834SOL    HW2 6081   5.610   1.759   0.259 -0.4131  0.1855  0.0893
 1835SOL     OW 6082   7.859   3.406   4.042  0.2935  0.2218  0.2802
 1835SOL    HW1 6083   7.822   3.395   4.130  1.4633 -0.2267  0.7376
 1835SOL    HW2 6084   7.954   3.412   4.057  0.5250 -0.0913 -0.9645
 1836SOL     OW 6085   9.250   4.285   4.045  0.6279 -0.5317  0.0401
 1836SOL    HW1 6086   9.268   4.301   3.952 -1.3267  0.0106 -0.2766
 1836SOL    HW2 6087   9.199   4.204   4.047  0.5548 -0.4776  0.6338
 1837SOL     OW 6088   1.458   0.723   2.502 -0.1807 -0.0239 -0.6457
 1837SOL    HW1 6089   1.400   0.773   2.559 -1.0123 -0.6736 -0.9138
 1837SOL    HW2 6090   1.401   0.662   2.456  0.4506  0.5135 -2.2383
 1838SOL     OW 6091   9.497   5.723   3.645  0.0952 -0.4580  0.2063
 1838SOL    HW1 6092   9.522   5.717   3.737 -0.2841 -1.0582  0.2739
 1838SOL    HW2 6093   9.417   5.672   3.638  0.2163 -0.5658 -0.4906
 1839SOL     OW 6094   7.770   4.795   1.593 -0.3936 -0.4909  0.1577
 1839SOL    HW1 6095   7.682   4.825   1.573 -0.2971 -0.0353  0.4103
 1839SOL    HW2 6096   7.827   4.867   1.567 -0.2533  0.0795  1.9035
 1840SOL     OW 6097   3.614   9.321   4.287  0.3254 -0.0110  0.0582
 1840SOL    HW1 6098   3.556   9.355   4.355 -1.4984 -0.3375 -1.2705
 1840SOL    HW2 6099   3.558   9.310   4.211  2.0436 -0.8586 -1.1469
 1841SOL     OW 6100   9.307   6.225   6.405  0.3414  0.4077 -0.1556
 1841SOL    HW1 6101   9.357   6.250   6.327  0.8049 -0.3319 -0.1087
 1841SOL    HW2 6102   9.356   6.263   6.478  0.1130  0.7860 -0.2001
 1842SOL     OW 6103   4.827   0.419   2.883  0.0696 -0.1110  0.0787
 1842SOL    HW1 6104   4.843   0.354   2.814  2.0632  0.1714  0.1976
 1842SOL    HW2 6105   4.736   0.406   2.908 -0.3335 -1.0731 -1.7260
 1843SOL     OW 6106   9.626   9.142   3.063  0.5381 -0.7238 -0.0219
 1843SOL    HW1 6107   9.684   9.202   3.015  2.0591 -0.7633  1.6787
 1843SOL    HW2 6108   9.666   9.056   3.051 -0.2447 -1.0402 -0.3911
 1844SOL     OW 6109   1.737   2.417   6.455 -0.1079  0.3710  0.2396
 1844SOL    HW1 6110   1.706   2.434   6.544 -0.2490  1.4879 -0.0168
 1844SOL    HW2 6111   1.832   2.429   6.460  0.0282 -0.6305  0.4623
 1845SOL     OW 6112   5.250   5.596   7.378  0.2478 -0.1219 -0.8269
 1845SOL    HW1 6113   5.172   5.552   7.412  0.2355 -0.6891 -1.5615
 1845SOL    HW2 6114   5.224   5.629   7.292  0.7345 -0.0833 -0.9636
 1846SOL     OW 6115   5.221   6.010   9.784 -0.3733 -0.2763 -0.2660
 1846SOL    HW1 6116   5.188   6.004   9.873  1.3195 -0.3264  0.3910
 1846SOL    HW2 6117   5.233   5.919   9.756 -0.3027 -0.2554 -0.3051
 1847SOL     OW 6118   6.236   8.007   2.376 -0.2435  0.3876 -0.3241
 1847SOL    HW1 6119   6.199   8.011   2.464 -0.1764 -2.1576 -0.1056
 1847SOL    HW2 6120   6.331   8.002   2.390 -0.2985 -2.8358 -0.2514
 1848SOL     OW 6121   8.018   2.861   3.093 -0.0844  0.0070  0.1870
 1848SOL    HW1 6122   8.072   2.891   3.020 -0.2746 -2.9252 -1.2990
 1848SOL    HW2 6123   8.050   2.773   3.112 -1.8579 -0.3559  1.8529
 1849SOL     OW 6124   2.072   0.595   4.805  0.2559 -0.6019  0.3235
 1849SOL    HW1 6125   2.113   0.603   4.892 -0.4266 -1.0258  0.6905
 1849SOL    HW2 6126   2.026   0.512   4.808 -0.7423 -0.0748 -0.0351
 1850SOL     OW 6127   1.521   8.319   7.278  0.6739 -0.3037 -0.5483
 1850SOL    HW1 6128   1.457   8.289   7.343 -0.8284  0.2235 -1.7243
 1850SOL    HW2 6129   1.563   8.394   7.320 -0.9815  0.6619 -0.5099
 1851SOL     OW 6130   4.316   6.061   8.533 -0.1965  0.3352  0.3930
 1851SOL    HW1 6131   4.330   6.152   8.505 -1.8609  0.6489  0.4607
 1851SOL    HW2 6132   4.378   6.048   8.604  0.2559  1.3332  0.2060
 1852SOL     OW 6133   5.694   9.451   2.979  0.2947 -0.3219 -0.7197
 1852SOL    HW1 6134   5.769   9.479   2.926 -0.0977  3.4033  0.4281
 1852SOL    HW2 6135   5.733   9.409   3.055  1.3873  1.9764  0.0943
 1853SOL     OW 6136   0.736   8.775   0.348 -0.8662  0.0973 -0.2128
 1853SOL    HW1 6137   0.764   8.860   0.314  0.3180 -0.4236 -0.6145
 1853SOL    HW2 6138   0.740   8.717   0.272 -2.3559 -0.1808 -0.1020
 1854SOL     OW 6139   2.717   3.715   4.727  0.1472  0.1781  0.5947
 1854SOL    HW1 6140   2.728   3.720   4.632 -0.5799 -1.3068  0.3975
 1854SOL    HW2 6141   2.800   3.746   4.762  0.4378  0.7294 -0.5258
 1855SOL     OW 6142   8.097   5.999   9.370  0.6187  0.1193  0.0111
 1855SOL    HW1 6143   8.192   5.995   9.374  0.5712 -0.6050  0.4738
 1855SOL    HW2 6144   8.070   5.918   9.327  0.2470  0.6621 -0.8053
 1856SOL     OW 6145   2.547   0.320   7.441  0.5021 -0.0145  0.6676
 1856SOL    HW1 6146   2.507   0.237   7.414  2.4338 -0.5171 -0.9572
 1856SOL    HW2 6147   2.545   0.375   7.362  1.7699  0.3979  0.8876
 1857SOL     OW 6148   1.299   4.098   1.512 -0.3484 -0.2068  0.0001
 1857SOL    HW1 6149   1.241   4.105   1.437 -0.4073  1.3701  0.1679
 1857SOL    HW2 6150   1.385   4.125   1.479 -0.1592 -0.4536  0.2743
 1858SOL     OW 6151   8.924   3.823   7.408 -0.1378  0.1280 -0.6146
 1858SOL    HW1 6152   9.008   3.869   7.400  1.5653 -2.4766  0.9195
 1858SOL    HW2 6153   8.912   3.780   7.323 -0.0773  0.7225 -0.9305
 1859SOL     OW 6154   5.532   7.074   5.957  0.0481 -0.4264 -0.1290
 1859SOL    HW1 6155   5.515   7.105   5.868 -2.3937 -0.0188  0.4064
 1859SOL    HW2 6156   5.583   7.144   5.998  0.5477 -0.2856 -0.9789
 1860SOL     OW 6157   9.019   3.579   5.359  0.3603  0.0637  0.1222
 1860SOL    HW1 6158   9.008   3.562   5.266  0.0602  1.6437 -0.1714
 1860SOL    HW2 6159   8.955   3.523   5.402  0.4735 -0.6478 -0.6106
 1861SOL     OW 6160   0.959   9.754   5.062  0.4897  0.1203 -0.3459
 1861SOL    HW1 6161   0.959   9.841   5.102 -0.5364  0.8067 -1.7438
 1861SOL    HW2 6162   0.960   9.694   5.136  0.4280  1.3086  0.6684
 1862SOL     OW 6163   2.232   0.516   3.752  0.1467 -0.8874 -0.1005
 1862SOL    HW1 6164   2.163   0.579   3.731  0.6359 -0.6405 -1.0346
 1862SOL    HW2 6165   2.242   0.464   3.673  1.3147 -0.6436 -0.1232
 1863SOL     OW 6166   1.047   1.752   4.464  0.1244  0.1858 -0.1812
 1863SOL    HW1 6167   1.038   1.683   4.531  1.1644 -0.6669 -0.8848
 1863SOL    HW2 6168   1.011   1.830   4.506  0.6361 -0.3520  1.3356
 1864SOL     OW 6169   6.208   6.210   1.413  0.0319 -0.2975 -0.1169
 1864SOL    HW1 6170   6.208   6.240   1.504 -0.2975 -1.0010  0.1176
 1864SOL    HW2 6171   6.120   6.229   1.381  0.2069  0.1333 -0.3577
 1865SOL     OW 6172   9.600   6.528   6.008  0.5843 -0.7061  0.1850
 1865SOL    HW1 6173   9.680   6.521   6.061  1.1922  0.7775 -0.4651
 1865SOL    HW2 6174   9.624   6.588   5.937 -0.5430 -1.7222 -1.1298
 1866SOL     OW 6175   7.031   6.721   1.605  0.3159 -0.4983 -0.7892
 1866SOL    HW1 6176   7.066   6.807   1.580  1.7995 -0.7153  0.3989
 1866SOL    HW2 6177   7.065   6.706   1.693 -2.9127 -0.7335  0.5600
 1867SOL     OW 6178   4.686   4.931   9.110 -0.3851 -1.1531 -0.0342
 1867SOL    HW1 6179   4.763   4.968   9.066 -0.4696 -1.1423 -0.1742
 1867SOL    HW2 6180   4.717   4.849   9.148 -0.4241 -1.3935 -0.5075
 1868SOL     OW 6181   0.236   8.602   5.018 -0.3065  0.1786  0.3619
 1868SOL    HW1 6182   0.316   8.553   5.003 -0.6569  0.0855 -1.3798
 1868SOL    HW2 6183   0.186   8.548   5.079 -0.3128 -1.2572 -0.8460
 1869SOL     OW 6184   5.751   8.597   6.319 -0.5901 -0.1780  0.6841
 1869SOL    HW1 6185   5.669   8.552   6.340 -0.9597 -0.1826 -0.6521
 1869SOL    HW2 6186   5.783   8.630   6.403 -1.9473 -0.1919  1.2296
 1870SOL     OW 6187   6.701   5.698   2.600  0.2217  0.3623 -0.3196
 1870SOL    HW1 6188   6.751   5.701   2.682 -0.1206  1.7635 -0.1384
 1870SOL    HW2 6189   6.624   5.751   2.617 -0.6206 -0.5766 -1.0824
 1871SOL     OW 6190   5.390   6.295   1.211  0.4544  0.2282  0.2348
 1871SOL    HW1 6191   5.378   6.273   1.118 -1.0413 -0.8927  0.6406
 1871SOL    HW2 6192   5.424   6.384   1.210 -0.2073  0.5157 -1.3919
 1872SOL     OW 6193   9.140   6.149   1.556  1.1300  0.1541 -0.1409
 1872SOL    HW1 6194   9.072   6.202   1.597  0.9976 -0.8919  1.0555
 1872SOL    HW2 6195   9.219   6.169   1.606  1.2877 -0.0417 -0.3111
 1873SOL     OW 6196   4.792   0.809   1.140  1.1943 -0.4378 -0.1087
 1873SOL    HW1 6197   4.810   0.866   1.066 -1.5857 -1.0907 -1.4097
 1873SOL    HW2 6198   4.826   0.723   1.113 -0.8234 -0.9541 -1.2478
 1874SOL     OW 6199   8.435   6.754   1.629 -0.3597 -0.2959 -0.0658
 1874SOL    HW1 6200   8.464   6.666   1.653  0.4774  0.0522  0.2640
 1874SOL    HW2 6201   8.347   6.743   1.595 -0.2528 -1.2642 -0.0408
 1875SOL     OW 6202   5.919   5.845   6.040  0.5643 -0.4631 -0.1671
 1875SOL    HW1 6203   5.844   5.833   6.098  0.2782  0.8284 -0.2520
 1875SOL    HW2 6204   5.911   5.774   5.976  0.2076 -1.1701  0.6366
 1876SOL     OW 6205   1.058   4.766   9.386  0.4022  0.1368  0.0321
 1876SOL    HW1 6206   1.106   4.833   9.434  0.8691 -1.2413  1.5914
 1876SOL    HW2 6207   0.968   4.773   9.418 -0.0471  1.3902 -1.4011
 1877SOL     OW 6208   9.361   5.615   6.670  0.0488  0.2881 -0.0076
 1877SOL    HW1 6209   9.352   5.654   6.757  1.5128  0.0266  0.2837
 1877SOL    HW2 6210   9.347   5.688   6.609 -0.4804  0.5731  0.4460
 1878SOL     OW 6211   4.096   0.385   6.440  0.6901  0.5390  0.5046
 1878SOL    HW1 6212   4.128   0.355   6.355  1.2344 -0.8778  1.1712
 1878SOL    HW2 6213   4.009   0.345   6.449  0.1356  1.6148  0.1556
 1879SOL     OW 6214   1.038   3.183   4.810  0.0991 -0.1866  0.6337
 1879SOL    HW1 6215   1.030   3.266   4.763 -1.6744 -0.7432 -0.1255
 1879SOL    HW2 6216   1.058   3.209   4.900  0.2737  1.0322  0.2653
 1880SOL     OW 6217   7.059   3.383   1.098 -0.1438 -0.5440 -0.2789
 1880SOL    HW1 6218   7.110   3.375   1.179  1.9562  0.2874 -1.4484
 1880SOL    HW2 6219   7.003   3.305   1.097 -1.2523  0.0865  2.6043
 1881SOL     OW 6220   2.536   0.176   5.624  0.0244  0.2087 -0.4928
 1881SOL    HW1 6221   2.454   0.219   5.644 -0.0846 -0.2390  0.0402
 1881SOL    HW2 6222   2.513   0.109   5.559 -0.3402 -1.0017  0.8329
 1882SOL     OW 6223   7.096   1.867   7.098 -0.4790  0.5353 -0.3797
 1882SOL    HW1 6224   7.188   1.845   7.081 -0.2628  0.0923  1.2146
 1882SOL    HW2 6225   7.051   1.783   7.103 -0.9458  0.7441 -0.9424
 1883SOL     OW 6226   9.527   3.269   9.542  0.0763  0.0630  0.2450
 1883SOL    HW1 6227   9.589   3.228   9.603  1.8480 -0.5848 -1.8630
 1883SOL    HW2 6228   9.478   3.196   9.506  0.3965  0.2063 -0.5043
 1884SOL     OW 6229   6.799   4.714   7.537 -0.0977 -0.0536 -0.0981
 1884SOL    HW1 6230   6.753   4.694   7.456 -1.1971  0.5094  0.3559
 1884SOL    HW2 6231   6.748   4.670   7.605  0.1076  0.4557  0.3988
 1885SOL     OW 6232   1.039   8.266   2.248 -0.6712  0.3464 -0.3173
 1885SOL    HW1 6233   1.077   8.326   2.184  1.3834 -0.3598  0.1394
 1885SOL    HW2 6234   0.948   8.255   2.221 -0.2035  1.0588 -2.3360
 1886SOL     OW 6235   7.529   6.734   4.775 -0.3450  0.5365 -0.3701
 1886SOL    HW1 6236   7.614   6.704   4.742  0.2046  1.5363  0.1131
 1886SOL    HW2 6237   7.546   6.758   4.866 -1.1589  0.7318 -0.2659
 1887SOL     OW 6238   8.599   3.732   0.683  0.5974  0.5033  0.3153
 1887SOL    HW1 6239   8.609   3.826   0.698  1.8521  0.4067  0.1206
 1887SOL    HW2 6240   8.681   3.704   0.643  0.4776 -0.7911  0.9113
 1888SOL     OW 6241   7.929   7.069   6.655 -0.6130  0.6294 -0.3948
 1888SOL    HW1 6242   8.023   7.052   6.659 -0.6758  0.1053 -1.0251
 1888SOL    HW2 6243   7.888   6.987   6.685 -0.8713  1.8141  2.9714
 1889SOL     OW 6244   2.810   8.894   2.132  0.0142  0.5937  0.4664
 1889SOL    HW1 6245   2.824   8.799   2.127 -1.5873  0.3030  0.9299
 1889SOL    HW2 6246   2.836   8.926   2.046 -1.8914 -0.6513 -0.6496
 1890SOL     OW 6247   1.316   4.676   0.303  0.0967 -0.0941  0.1374
 1890SOL    HW1 6248   1.313   4.727   0.384  0.0733 -1.3482  0.9411
 1890SOL    HW2 6249   1.401   4.633   0.305 -0.8794 -2.1153  0.7676
 1891SOL     OW 6250   2.761   6.249   1.803  0.4610 -0.4154  0.3162
 1891SOL    HW1 6251   2.738   6.226   1.713  0.1463 -1.7702  0.7277
 1891SOL    HW2 6252   2.835   6.192   1.825 -0.2239 -0.9533  1.3010
 1892SOL     OW 6253   2.827   3.642   3.174 -0.5950  0.2976 -0.5545
 1892SOL    HW1 6254   2.802   3.699   3.246 -1.8360 -1.5130  0.5470
 1892SOL    HW2 6255   2.859   3.562   3.217  0.4418 -0.1200 -2.0212
 1893SOL     OW 6256   4.983   4.820   8.727  0.1425 -0.2308 -0.0401
 1893SOL    HW1 6257   4.972   4.878   8.651 -0.2528 -0.0269  0.1701
 1893SOL    HW2 6258   5.070   4.842   8.761  0.6878 -0.9203 -0.9326
 1894SOL     OW 6259   8.756   2.916   8.125 -0.2552  0.2083 -0.2841
 1894SOL    HW1 6260   8.757   2.961   8.041 -0.8184  0.5799 -0.1001
 1894SOL    HW2 6261   8.833   2.948   8.171 -0.4741  0.7529 -0.2819
 1895SOL     OW 6262   7.445   8.352   1.614  0.4644  0.0909  0.0932
 1895SOL    HW1 6263   7.407   8.418   1.673 -0.3490  0.0821 -0.3976
 1895SOL    HW2 6264   7.386   8.351   1.539  0.5975 -1.0294 -0.0150
 1896SOL     OW 6265   5.826   9.824   4.395 -0.1770 -0.1459  0.8108
 1896SOL    HW1 6266   5.871   9.787   4.471  0.8568 -0.3426  0.1180
 1896SOL    HW2 6267   5.885   9.892   4.362 -0.1187 -0.7692 -0.4309
 1897SOL     OW 6268   6.477   1.639   9.303 -0.2119  0.4612  0.4692
 1897SOL    HW1 6269   6.485   1.650   9.209 -0.6820  1.6417  0.5569
 1897SOL    HW2 6270   6.496   1.725   9.340 -0.1171  0.0364  1.4483
 1898SOL     OW 6271   8.284   8.416   0.792 -0.5795 -0.3582 -0.1172
 1898SOL    HW1 6272   8.264   8.372   0.710 -4.2802  0.4265  0.1519
 1898SOL    HW2 6273   8.254   8.355   0.860 -0.6609  0.3018  0.4640
 1899SOL     OW 6274   8.325   3.989   6.567  0.0834  0.1882  0.2680
 1899SOL    HW1 6275   8.254   3.948   6.517  0.1694 -0.4166  0.6337
 1899SOL    HW2 6276   8.367   3.916   6.614  1.4090  0.4214 -0.5046
 1900SOL     OW 6277   9.404   7.618   9.449 -0.1260  0.0503  0.1095
 1900SOL    HW1 6278   9.329   7.655   9.495 -0.4598  0.9307 -1.0824
 1900SOL    HW2 6279   9.471   7.687   9.453 -1.0922  1.3412 -2.9823
 1901SOL     OW 6280   8.834   3.929   2.195  0.0939  0.0438  0.0168
 1901SOL    HW1 6281   8.855   3.844   2.234  0.2935  1.0450  2.2496
 1901SOL    HW2 6282   8.912   3.950   2.142 -0.0793 -1.2470 -0.8071
 1902SOL     OW 6283   3.514   0.230   0.739  0.1748  0.1131  0.1812
 1902SOL    HW1 6284   3.466   0.297   0.788 -0.0783 -0.2824  0.4804
 1902SOL    HW2 6285   3.550   0.277   0.664  2.3853  1.2168  1.8387
 1903SOL     OW 6286   9.314   1.115   7.828 -0.7461  0.2703  0.0675
 1903SOL    HW1 6287   9.258   1.052   7.873 -0.8356 -0.0894 -0.5462
 1903SOL    HW2 6288   9.351   1.169   7.899 -2.1581  0.7631  0.4673
 1904SOL     OW 6289   5.855   0.501   1.720  0.4440  0.1530  0.1729
 1904SOL    HW1 6290   5.836   0.582   1.768 -0.7446 -0.6341  1.0751
 1904SOL    HW2 6291   5.946   0.511   1.692  0.2145  1.9586 -0.0526
 1905SOL     OW 6292   7.303   6.801   2.823  0.0595  0.6429 -0.0052
 1905SOL    HW1 6293   7.325   6.782   2.914 -1.7165 -1.1898  0.1252
 1905SOL    HW2 6294   7.275   6.892   2.823  0.3475  0.7523  1.2088
 1906SOL     OW 6295   5.872   1.069   8.556  0.3641  0.0984 -0.3223
 1906SOL    HW1 6296   5.785   1.101   8.533 -0.0974 -0.9214 -0.0511
 1906SOL    HW2 6297   5.857   0.980   8.588  1.4834 -0.0118 -0.0698
 1907SOL     OW 6298   8.909   7.517   6.235  0.3735  0.3554  0.3115
 1907SOL    HW1 6299   8.866   7.433   6.223  0.8901  0.0006  0.8355
 1907SOL    HW2 6300   9.002   7.499   6.222  0.4015  1.0488 -0.5390
 1908SOL     OW 6301   3.177   8.194   4.543 -0.2151 -0.4453  0.4550
 1908SOL    HW1 6302   3.246   8.216   4.606 -0.6476 -1.0532  1.1471
 1908SOL    HW2 6303   3.206   8.235   4.462  0.3193  0.4181  1.0557
 1909SOL     OW 6304   3.739   5.042   4.910  0.1403  0.0536 -0.8250
 1909SOL    HW1 6305   3.822   5.018   4.870 -0.0649  0.0462 -1.2428
 1909SOL    HW2 6306   3.757   5.126   4.953  0.6856 -0.5230  0.1078
 1910SOL     OW 6307   0.086   8.340   9.969  0.3442 -0.2235  0.1679
 1910SOL    HW1 6308   0.076   8.435   9.970 -1.9106 -0.3904 -0.4922
 1910SOL    HW2 6309   0.035   8.311   9.893  1.3468 -1.9319  0.0859
 1911SOL     OW 6310   5.949   0.924   2.622  0.1939  0.4148  0.2524
 1911SOL    HW1 6311   5.952   0.829   2.611 -0.0234  0.5877 -1.6280
 1911SOL    HW2 6312   5.865   0.940   2.665  1.7076 -0.4266  3.9618
 1912SOL     OW 6313   5.013   6.632   2.940  0.5119  0.0493 -0.6039
 1912SOL    HW1 6314   5.087   6.676   2.898  0.8060  0.2400  0.0888
 1912SOL    HW2 6315   4.936   6.664   2.893  0.8600 -0.0683 -1.2605
 1913SOL     OW 6316   6.526   8.444   7.978  0.0149  0.0794 -0.9256
 1913SOL    HW1 6317   6.458   8.403   8.032  0.5893 -0.4141 -0.5595
 1913SOL    HW2 6318   6.608   8.420   8.021  0.4107  0.9001 -1.2075
 1914SOL     OW 6319   1.161   4.850   4.078  0.5539 -0.3967 -0.0854
 1914SOL    HW1 6320   1.159   4.935   4.124  1.4914  0.6762 -1.9052
 1914SOL    HW2 6321   1.091   4.800   4.119  0.6919  0.8328  1.8212
 1915SOL     OW 6322   0.493   6.103   6.770  0.0302 -0.2277 -0.3427
 1915SOL    HW1 6323   0.545   6.069   6.698 -0.5622  0.3282 -1.0490
 1915SOL    HW2 6324   0.475   6.027   6.824  0.5437 -0.6401 -0.7418
 1916SOL     OW 6325   9.794   7.416   6.276  0.1768  0.4212 -0.4763
 1916SOL    HW1 6326   9.813   7.331   6.239  0.5100 -0.8902  2.3980
 1916SOL    HW2 6327   9.700   7.429   6.261  0.6385  0.9310 -3.3819
 1917SOL     OW 6328   9.744   6.762   5.168  0.2185  0.3182  0.0519
 1917SOL    HW1 6329   9.839   6.774   5.178  0.4982 -1.0221 -0.7893
 1917SOL    HW2 6330   9.718   6.828   5.104  0.9348 -0.4732 -1.1054
 1918SOL     OW 6331   3.327   7.058   7.212  0.0246 -0.1684 -0.2695
 1918SOL    HW1 6332   3.273   6.996   7.261  0.4060  0.0258  0.4022
 1918SOL    HW2 6333   3.417   7.027   7.225  0.3740  1.4042  1.3980
 1919SOL     OW 6334   4.297   0.545   2.738 -0.6999  0.0290  0.6580
 1919SOL    HW1 6335   4.275   0.463   2.692 -0.0532 -0.2256  0.7976
 1919SOL    HW2 6336   4.334   0.516   2.821  0.4152  0.4440  0.3157
 1920SOL     OW 6337   5.713   9.974   6.910  0.0553 -0.4893 -0.3182
 1920SOL    HW1 6338   5.688  10.058   6.873  0.7682  0.3101  0.9228
 1920SOL    HW2 6339   5.681   9.909   6.848 -1.5660  0.6442 -0.7109
 1921SOL     OW 6340   8.517   6.968   8.860  0.0209  0.3921  0.3884
 1921SOL    HW1 6341   8.523   7.063   8.876 -1.8146  0.5156  0.5415
 1921SOL    HW2 6342   8.442   6.959   8.801 -0.4625 -1.0366  1.1871
 1922SOL     OW 6343   7.482   8.280   9.427 -0.0757  0.5172  0.4421
 1922SOL    HW1 6344   7.431   8.250   9.353  2.2238 -2.4180 -0.1357
 1922SOL    HW2 6345   7.423   8.272   9.502 -1.4878  0.6275 -0.6156
 1923SOL     OW 6346   1.051   8.466   1.031  1.1518 -0.1066 -1.0500
 1923SOL    HW1 6347   1.112   8.426   0.970 -1.2649 -3.5633 -1.5142
 1923SOL    HW2 6348   0.968   8.471   0.983  0.3939  2.0217  0.3148
 1924SOL     OW 6349   5.873   6.633   4.450  0.0795 -0.2407 -0.3187
 1924SOL    HW1 6350   5.965   6.621   4.429 -0.7449 -3.9087 -2.9151
 1924SOL    HW2 6351   5.831   6.648   4.365 -1.6523  3.5789  0.9580
 1925SOL     OW 6352   1.417   3.070   8.723  0.2608  0.2044  0.3667
 1925SOL    HW1 6353   1.351   3.135   8.746 -0.2423 -0.0783 -0.2500
 1925SOL    HW2 6354   1.372   2.986   8.731  0.2106  0.0673 -1.1262
 1926SOL     OW 6355   7.142   9.697   3.742  0.6172  0.5423  0.2507
 1926SOL    HW1 6356   7.226   9.683   3.700  0.8882  2.3061  0.1112
 1926SOL    HW2 6357   7.135   9.627   3.807  2.1923  0.3840  0.2884
 1927SOL     OW 6358   0.547   3.190   6.104 -0.1654  0.2853 -0.1568
 1927SOL    HW1 6359   0.468   3.171   6.154 -0.3152 -2.8588 -1.3337
 1927SOL    HW2 6360   0.567   3.281   6.123 -2.6262  0.4522  2.1556
 1928SOL     OW 6361   8.887   6.594   7.456 -0.8491 -0.0370  0.4153
 1928SOL    HW1 6362   8.970   6.600   7.503 -0.6825 -0.1550  0.1344
 1928SOL    HW2 6363   8.859   6.686   7.447 -0.6372  0.0187  0.3102
 1929SOL     OW 6364   2.571   3.475   7.267 -0.5428  0.0795 -0.1002
 1929SOL    HW1 6365   2.638   3.520   7.215 -2.4469  2.2357 -0.8321
 1929SOL    HW2 6366   2.621   3.425   7.332  1.7696  1.8610 -0.3869
 1930SOL     OW 6367   3.344   9.288   4.426  0.0223  0.6262  0.0397
 1930SOL    HW1 6368   3.291   9.251   4.355 -1.6174 -0.2591  1.6435
 1930SOL    HW2 6369   3.369   9.213   4.479  0.1070  1.3838  1.1095
 1931SOL     OW 6370   0.640   4.112   2.531 -0.4453 -0.4302 -0.3310
 1931SOL    HW1 6371   0.575   4.148   2.592 -0.0522  0.1030 -0.2116
 1931SOL    HW2 6372   0.686   4.045   2.581 -2.1012 -2.1266 -0.9783
 1932SOL     OW 6373   6.858   6.480   6.199 -0.2307 -0.0369 -0.1894
 1932SOL    HW1 6374   6.800   6.546   6.237  1.3668  1.9790 -1.0255
 1932SOL    HW2 6375   6.908   6.447   6.273  0.3060  1.1771  0.0264
 1933SOL     OW 6376   3.102   3.319   1.754 -0.1025  0.5445  0.0080
 1933SOL    HW1 6377   3.136   3.262   1.823 -0.7645 -0.7294 -0.6836
 1933SOL    HW2 6378   3.133   3.279   1.673  0.0686  1.6269 -0.4771
 1934SOL     OW 6379   7.877   6.136   0.762  0.1419 -0.3286  0.5709
 1934SOL    HW1 6380   7.883   6.209   0.824 -0.4161 -0.2005  0.4774
 1934SOL    HW2 6381   7.968   6.115   0.741  0.2936  1.4163 -0.6807
 1935SOL     OW 6382   4.053   5.336   5.800  0.1369  0.4522 -0.2385
 1935SOL    HW1 6383   3.989   5.286   5.749 -0.6965  0.5879  0.6570
 1935SOL    HW2 6384   4.112   5.372   5.735 -0.0143 -0.6297 -1.0018
 1936SOL     OW 6385   5.757   4.981   0.381 -0.6504 -0.5014  0.0377
 1936SOL    HW1 6386   5.839   5.022   0.407 -0.2734 -1.8525  1.1644
 1936SOL    HW2 6387   5.783   4.896   0.345 -1.4489 -0.2056 -1.2781
 1937SOL     OW 6388   8.214   3.012   0.879  0.4955 -0.1744 -0.0124
 1937SOL    HW1 6389   8.210   3.062   0.961  0.4876 -1.2735  0.6688
 1937SOL    HW2 6390   8.273   2.939   0.898 -0.3007 -1.0023 -0.6790
 1938SOL     OW 6391   3.221   5.736   2.148 -0.0148  0.1279  0.0979
 1938SOL    HW1 6392   3.298   5.772   2.105  1.2656  0.8672  2.7978
 1938SOL    HW2 6393   3.256   5.673   2.211 -1.7779 -0.9300  0.0893
 1939SOL     OW 6394   6.448   4.248   2.990 -0.3649  0.1160 -0.4268
 1939SOL    HW1 6395   6.378   4.183   2.992 -2.0280  1.8136 -0.5997
 1939SOL    HW2 6396   6.411   4.322   2.941  0.7310  1.9308  1.2961
 1940SOL     OW 6397   4.046   9.190   3.072 -0.3045 -0.6872  0.0889
 1940SOL    HW1 6398   4.011   9.148   3.151  1.5290 -0.0185  1.3381
 1940SOL    HW2 6399   4.134   9.219   3.098  0.7568 -1.3215 -2.5107
 1941SOL     OW 6400   8.451   1.928   8.913  0.0481  0.2419 -0.2220
 1941SOL    HW1 6401   8.384   1.946   8.979 -0.0649 -0.2996 -0.1874
 1941SOL    HW2 6402   8.477   1.837   8.929  0.0809  0.1347 -0.8641
 1942SOL     OW 6403   4.432   4.874   0.471 -0.2331 -0.0061 -0.5484
 1942SOL    HW1 6404   4.429   4.921   0.387  1.7496  4.2974  1.4550
 1942SOL    HW2 6405   4.502   4.810   0.461 -0.7403 -0.3307 -2.4384
 1943SOL     OW 6406   6.524   6.969   6.857 -0.1135 -0.2079 -0.0194
 1943SOL    HW1 6407   6.573   6.903   6.906  0.9328 -0.3766 -1.2329
 1943SOL    HW2 6408   6.462   7.005   6.920  0.7907 -0.8068  1.2559
 1944SOL     OW 6409   0.227   2.701   8.760 -0.0934  0.3832  0.0275
 1944SOL    HW1 6410   0.291   2.685   8.690  1.8176 -0.1050  1.7938
 1944SOL    HW2 6411   0.272   2.761   8.820 -2.2444  2.0090  0.1563
 1945SOL     OW 6412   7.736   2.214   0.968 -0.5001  0.1287 -0.9227
 1945SOL    HW1 6413   7.740   2.181   0.878 -1.6483  0.9912 -1.3167
 1945SOL    HW2 6414   7.648   2.250   0.977 -0.1155  0.8520  0.2708
 1946SOL     OW 6415   4.482   1.840   1.023  0.3513 -0.6552 -0.3959
 1946SOL    HW1 6416   4.522   1.891   0.953 -0.4942  0.4828 -0.0772
 1946SOL    HW2 6417   4.391   1.870   1.027 -0.0867 -1.9403  0.0436
 1947SOL     OW 6418   0.146   5.005   1.973 -0.2322  0.4033 -0.0647
 1947SOL    HW1 6419   0.210   5.035   2.037  0.3002 -0.3911 -0.2021
 1947SOL    HW2 6420   0.199   4.977   1.898 -0.9096  2.6160 -1.4483
 1948SOL     OW 6421   0.904   6.700   6.606  0.4308  0.2523  0.2402
 1948SOL    HW1 6422   0.986   6.679   6.561 -0.3909  0.6833 -1.5043
 1948SOL    HW2 6423   0.837   6.699   6.538 -0.8409  1.0959  1.4138
 1949SOL     OW 6424   4.899   8.355   3.457  0.0470 -0.0173  0.2884
 1949SOL    HW1 6425   4.942   8.274   3.484  2.9229  1.8516  1.7532
 1949SOL    HW2 6426   4.908   8.356   3.362  1.0588 -0.8420  0.3547
 1950SOL     OW 6427   3.223   8.283   7.851 -0.7461  0.0287  0.8472
 1950SOL    HW1 6428   3.258   8.351   7.909 -1.1563  0.5642  0.4702
 1950SOL    HW2 6429   3.174   8.225   7.910  0.4229 -0.5126  1.3250
 1951SOL     OW 6430   5.875   1.291   7.943  0.3221 -0.1938 -0.3114
 1951SOL    HW1 6431   5.781   1.298   7.927 -0.4308 -0.8790  2.9989
 1951SOL    HW2 6432   5.893   1.197   7.939  0.1697 -0.3688  1.8339
 1952SOL     OW 6433   1.318   9.286   9.515 -0.1246  0.5300 -0.7243
 1952SOL    HW1 6434   1.349   9.360   9.462  0.2954 -0.7606 -2.3330
 1952SOL    HW2 6435   1.391   9.265   9.572 -0.7588  2.2677  0.8503
 1953SOL     OW 6436   8.120   2.737   0.359 -0.7211  0.4068 -0.5177
 1953SOL    HW1 6437   8.043   2.716   0.413  0.6999  0.2804  1.6026
 1953SOL    HW2 6438   8.122   2.833   0.357 -0.0902  0.4410  0.7872
 1954SOL     OW 6439   4.809   2.916   0.746 -0.3615  0.0280 -0.1484
 1954SOL    HW1 6440   4.722   2.877   0.739 -0.2904  0.0706 -1.8634
 1954SOL    HW2 6441   4.848   2.876   0.823 -0.5597 -2.8171 -1.4202
 1955SOL     OW 6442   5.726   6.036   5.480  0.2661 -0.3164 -0.1194
 1955SOL    HW1 6443   5.681   6.073   5.556  0.3284  0.8019 -0.6064
 1955SOL    HW2 6444   5.798   6.097   5.463 -0.0803 -0.2396 -1.4099
 1956SOL     OW 6445   1.867   3.532   5.469 -0.3847 -0.5501  0.3475
 1956SOL    HW1 6446   1.817   3.503   5.545  0.9520 -0.3477  1.3547
 1956SOL    HW2 6447   1.908   3.453   5.434  1.2997 -0.3050  1.6198
 1957SOL     OW 6448   2.172   4.112   4.837 -0.5708 -0.1051  0.3313
 1957SOL    HW1 6449   2.087   4.067   4.833 -0.7092 -0.0960  2.3157
 1957SOL    HW2 6450   2.166   4.168   4.914  0.8839  0.6849 -0.0985
 1958SOL     OW 6451   6.108   7.132   8.750  0.3032  0.8197 -0.6080
 1958SOL    HW1 6452   6.203   7.132   8.736  0.2766 -0.9627 -0.9991
 1958SOL    HW2 6453   6.075   7.069   8.687 -0.8027 -0.8388  1.5135
 1959SOL     OW 6454   0.847   7.397   4.132 -0.3986  0.4135  0.3864
 1959SOL    HW1 6455   0.935   7.362   4.147 -0.5983  0.3228  1.3767
 1959SOL    HW2 6456   0.831   7.380   4.039  0.4896  0.1161  0.2767
 1960SOL     OW 6457   3.400   1.326   6.996 -0.3430  0.0123  0.2389
 1960SOL    HW1 6458   3.390   1.421   7.003 -1.0608 -0.1687  2.5507
 1960SOL    HW2 6459   3.495   1.312   6.997 -0.2132  0.7065 -0.7798
 1961SOL     OW 6460   4.520   3.661   1.203  0.6054 -0.2657 -0.5082
 1961SOL    HW1 6461   4.607   3.633   1.172  0.5181 -2.0979  0.7327
 1961SOL    HW2 6462   4.514   3.626   1.292 -1.7471 -0.9591 -0.8708
 1962SOL     OW 6463   0.887   9.925   6.273 -0.4682 -0.5114 -0.1511
 1962SOL    HW1 6464   0.822   9.971   6.325  1.0792  0.0471  1.4191
 1962SOL    HW2 6465   0.852   9.925   6.184 -2.2333  0.3984  0.4961
 1963SOL     OW 6466   2.657   8.229   4.604 -0.3015  0.1411 -0.2997
 1963SOL    HW1 6467   2.747   8.203   4.583 -0.9086 -2.2930 -0.2186
 1963SOL    HW2 6468   2.651   8.219   4.699 -0.9150 -0.7624 -0.4173
 1964SOL     OW 6469   8.946   5.430   8.451 -0.1014  0.6655  0.0082
 1964SOL    HW1 6470   8.981   5.412   8.364  0.8321  1.8794  0.0935
 1964SOL    HW2 6471   8.945   5.526   8.456 -1.6590  0.6324  0.7442
 1965SOL     OW 6472   7.800   4.286   6.514  0.7628  0.1756 -0.4644
 1965SOL    HW1 6473   7.801   4.310   6.421  1.1108 -2.2467 -1.1627
 1965SOL    HW2 6474   7.880   4.236   6.527  0.0320 -0.7203  0.7985
 1966SOL     OW 6475   0.336   1.363   2.386 -0.0013 -0.5615  0.1561
 1966SOL    HW1 6476   0.241   1.356   2.375  0.2253 -0.0207 -3.4126
 1966SOL    HW2 6477   0.348   1.440   2.442 -1.6157 -1.1157  1.3582
 1967SOL     OW 6478   0.855   6.748   4.699 -0.1805 -0.5175 -0.4376
 1967SOL    HW1 6479   0.771   6.727   4.740 -1.2759  2.3413 -1.0288
 1967SOL    HW2 6480   0.918   6.692   4.745 -2.0504 -1.0367  1.6704
 1968SOL     OW 6481   6.958   9.197   9.695  0.0741 -0.5012  0.2014
 1968SOL    HW1 6482   7.019   9.127   9.718  1.0329  0.4039  0.5503
 1968SOL    HW2 6483   6.986   9.271   9.750 -2.5163 -0.5783  1.8041
 1969SOL     OW 6484   3.549   6.267   0.587 -0.4793  0.0301  0.9339
 1969SOL    HW1 6485   3.522   6.228   0.670 -2.6845 -0.7752 -0.1029
 1969SOL    HW2 6486   3.567   6.193   0.530  0.1595  0.5721  0.4071
 1970SOL     OW 6487   4.828   1.355   7.550  0.4529 -0.0393  0.5434
 1970SOL    HW1 6488   4.853   1.262   7.547  0.0297 -0.1429  0.1302
 1970SOL    HW2 6489   4.842   1.386   7.461 -0.3991  0.0300  0.4232
 1971SOL     OW 6490   7.463   6.345   6.137  0.6726  0.4373  0.8021
 1971SOL    HW1 6491   7.528   6.414   6.124 -0.1989  1.3093  0.9342
 1971SOL    HW2 6492   7.449   6.309   6.050  1.0171  0.5310  0.7053
 1972SOL     OW 6493   6.625   8.392   2.137  0.0469 -0.2200 -0.5707
 1972SOL    HW1 6494   6.677   8.375   2.215 -1.6240  1.2762  0.9599
 1972SOL    HW2 6495   6.667   8.341   2.068  1.0041 -2.4099  1.5021
 1973SOL     OW 6496   2.947   1.777   7.785 -0.0457  0.1771 -0.5940
 1973SOL    HW1 6497   3.020   1.773   7.847  0.3660 -0.4673 -1.1187
 1973SOL    HW2 6498   2.915   1.867   7.793 -0.0049  0.1118  0.5536
 1974SOL     OW 6499   6.523   7.563   8.982  0.6682  0.0929  0.0535
 1974SOL    HW1 6500   6.503   7.621   8.909  0.7396 -0.1828 -0.1891
 1974SOL    HW2 6501   6.502   7.614   9.061 -1.9202 -0.4931 -0.1758
 1975SOL     OW 6502   2.131   2.917   6.513 -0.3460  0.1867 -0.2037
 1975SOL    HW1 6503   2.182   2.856   6.566 -0.7001 -1.7134 -1.9174
 1975SOL    HW2 6504   2.193   2.986   6.489  0.1201  0.4598  1.5978
 1976SOL     OW 6505   8.968   2.724   5.975  0.0555  0.0073 -0.2670
 1976SOL    HW1 6506   8.958   2.630   5.990  0.2275  0.0477  0.1186
 1976SOL    HW2 6507   8.940   2.737   5.884 -1.5073 -0.1645  0.1676
 1977SOL     OW 6508   6.006   6.350   8.785  0.0953 -0.5703  0.2826
 1977SOL    HW1 6509   6.023   6.406   8.861 -0.3788 -0.0832  0.0365
 1977SOL    HW2 6510   5.931   6.296   8.811 -0.6578  0.2467 -0.1730
 1978SOL     OW 6511   0.858   2.337   8.708 -0.4302  0.2480 -0.4228
 1978SOL    HW1 6512   0.773   2.309   8.672 -0.4235  0.2994 -0.4802
 1978SOL    HW2 6513   0.922   2.304   8.645 -0.1049 -2.8983  1.3762
 1979SOL     OW 6514   5.727   0.698   2.199  0.0619 -0.4649  0.1491
 1979SOL    HW1 6515   5.753   0.707   2.290  2.1951  0.7846 -0.5116
 1979SOL    HW2 6516   5.800   0.654   2.156 -0.6115 -0.4481 -1.0853
 1980SOL     OW 6517   2.535   6.591   9.314 -0.6006 -0.1617  0.0025
 1980SOL    HW1 6518   2.458   6.644   9.333 -1.3504 -1.4417  0.6330
 1980SOL    HW2 6519   2.508   6.535   9.242  0.4066  0.7322 -1.1130
 1981SOL     OW 6520   1.574   0.185   8.635 -0.3429  0.4043 -0.0829
 1981SOL    HW1 6521   1.566   0.258   8.697 -3.4063 -1.7488  2.3814
 1981SOL    HW2 6522   1.634   0.124   8.678 -2.0801 -0.8789  0.6155
 1982SOL     OW 6523   0.326   1.878   3.701  0.1203  0.1685  0.1449
 1982SOL    HW1 6524   0.237   1.893   3.670  0.4720  0.1032 -0.9353
 1982SOL    HW2 6525   0.365   1.966   3.706  0.4829  0.0839 -0.9349
 1983SOL     OW 6526   7.809   9.722   0.226 -0.5143  0.1090  1.0411
 1983SOL    HW1 6527   7.837   9.635   0.197  0.5221  0.7990 -0.1586
 1983SOL    HW2 6528   7.882   9.754   0.279 -0.4439  0.6210  0.6452
 1984SOL     OW 6529   8.788   0.529   0.782  0.3223 -0.3086 -0.3024
 1984SOL    HW1 6530   8.801   0.624   0.790 -0.3378 -0.1620 -0.8374
 1984SOL    HW2 6531   8.694   0.520   0.767  0.5891 -0.9556 -1.6456
 1985SOL     OW 6532   5.451   8.145   8.748  0.4666  0.2760 -0.0529
 1985SOL    HW1 6533   5.452   8.205   8.823 -1.0868  0.8088 -0.4413
 1985SOL    HW2 6534   5.460   8.058   8.788 -1.4125  0.4701  0.8776
 1986SOL     OW 6535   0.022   1.901   6.514 -0.2762  0.0582 -0.2146
 1986SOL    HW1 6536   0.030   1.898   6.419 -2.2694  0.0255 -0.4174
 1986SOL    HW2 6537  -0.036   1.976   6.531 -1.8643 -1.3304  0.7911
 1987SOL     OW 6538   3.486   5.229   4.576 -0.2247 -0.2275  0.6211
 1987SOL    HW1 6539   3.444   5.262   4.655  0.0870  0.4181  0.5269
 1987SOL    HW2 6540   3.448   5.143   4.562  0.2875 -0.6847  1.9220
 1988SOL     OW 6541   6.815   2.204   4.290  0.0218  0.5147 -0.1502
 1988SOL    HW1 6542   6.859   2.289   4.281  1.5539 -0.2274 -0.0186
 1988SOL    HW2 6543   6.881   2.148   4.330 -1.0676 -0.6747  0.0179
 1989SOL     OW 6544   7.080   5.622   4.733 -0.1672  0.7110  0.4658
 1989SOL    HW1 6545   7.108   5.532   4.747 -2.1428 -0.0508 -0.0411
 1989SOL    HW2 6546   6.987   5.622   4.758 -1.0753  1.8005 -2.4488
 1990SOL     OW 6547   2.790   5.259   0.136  0.5881  0.2720  0.4900
 1990SOL    HW1 6548   2.753   5.301   0.058 -0.1684 -0.7879  0.2440
 1990SOL    HW2 6549   2.884   5.252   0.117  0.2755 -0.9489 -0.8562
 1991SOL     OW 6550   5.217   4.669   9.940 -0.2845 -0.3743 -0.1937
 1991SOL    HW1 6551   5.136   4.704   9.903  0.5938  0.3553 -1.4869
 1991SOL    HW2 6552   5.269   4.746   9.961  1.1864 -0.8163 -1.9691
 1992SOL     OW 6553   8.002   6.480   4.197  0.6013  0.3156 -0.0064
 1992SOL    HW1 6554   8.086   6.496   4.240  0.0730  0.9031  0.8265
 1992SOL    HW2 6555   7.976   6.565   4.163  0.1841  0.2073  0.0428
 1993SOL     OW 6556   7.182   3.783   2.732 -0.2628 -0.5054  0.4599
 1993SOL    HW1 6557   7.089   3.805   2.720 -0.0343  0.1383 -0.1911
 1993SOL    HW2 6558   7.185   3.742   2.818 -1.1709 -0.6398  0.4460
 1994SOL     OW 6559   7.489   1.835   7.316 -0.4687 -0.2653 -0.2831
 1994SOL    HW1 6560   7.574   1.821   7.274 -0.0113 -0.3894  0.6513
 1994SOL    HW2 6561   7.464   1.748   7.348 -0.3404 -0.0044  0.5474
 1995SOL     OW 6562   0.212   1.334   1.925  0.7569 -0.0695  0.1725
 1995SOL    HW1 6563   0.275   1.323   1.853 -1.2105  0.2618 -1.6989
 1995SOL    HW2 6564   0.152   1.260   1.916  0.0847  0.3470  1.0738
 1996SOL     OW 6565   5.582   0.526   2.021  0.1312  0.4957 -0.0203
 1996SOL    HW1 6566   5.548   0.582   1.951  0.2068  1.1378  0.4453
 1996SOL    HW2 6567   5.595   0.586   2.095  1.0763  0.0311  0.2014
 1997SOL     OW 6568   4.327   1.368   3.379 -0.0938  0.3202 -0.1076
 1997SOL    HW1 6569   4.235   1.382   3.359 -0.1448  1.8890  1.0273
 1997SOL    HW2 6570   4.335   1.274   3.391 -0.8555 -0.2783 -3.2667
 1998SOL     OW 6571   9.033   5.673   1.843 -0.0160 -0.5895  0.0917
 1998SOL    HW1 6572   9.026   5.580   1.821 -0.4572 -0.3412 -0.8322
 1998SOL    HW2 6573   9.052   5.716   1.760  1.8819 -0.0262  0.7627
 1999SOL     OW 6574   9.383   6.260   7.775 -0.1029  0.0816 -0.0018
 1999SOL    HW1 6575   9.407   6.183   7.827 -0.2702  0.2449  0.3169
 1999SOL    HW2 6576   9.296   6.238   7.740 -0.1150  0.0906  0.0218
 2000SOL     OW 6577   4.587   7.039   2.042 -0.7299  0.0264 -0.0079
 2000SOL    HW1 6578   4.503   7.073   2.012 -0.0733  0.2245 -1.7692
 2000SOL    HW2 6579   4.568   6.999   2.127 -2.7461 -0.5644 -0.6795
 2001SOL     OW 6580   1.086   5.423   9.128 -0.5630  0.2637  0.6697
 2001SOL    HW1 6581   1.096   5.352   9.191 -0.3770 -0.8964 -0.6018
 2001SOL    HW2 6582   0.994   5.421   9.103 -0.0617 -1.3755 -1.3494
 2002SOL     OW 6583   9.308   6.723   2.230 -0.0820  0.4065  0.4370
 2002SOL    HW1 6584   9.326   6.817   2.229 -0.2383  0.4402  0.6168
 2002SOL    HW2 6585   9.224   6.716   2.275  1.1235 -0.0185  2.7807
 2003SOL     OW 6586   7.576   0.875   9.274  0.1487  1.0445 -0.5313
 2003SOL    HW1 6587   7.586   0.933   9.198  1.1632 -0.9042 -1.9960
 2003SOL    HW2 6588   7.663   0.872   9.313  0.3161 -0.0004 -0.9283
 2004SOL     OW 6589   3.510   7.841   7.494 -0.1904 -0.3047  0.4987
 2004SOL    HW1 6590   3.533   7.772   7.556  3.5264  1.0832  0.9163
 2004SOL    HW2 6591   3.505   7.796   7.409 -0.9528 -1.5370  1.1811
 2005SOL     OW 6592   5.213   6.051   0.934  0.2728 -0.2755  0.4864
 2005SOL    HW1 6593   5.259   6.134   0.946  0.2346 -0.0526 -0.7316
 2005SOL    HW2 6594   5.262   6.006   0.866 -0.1885 -0.8893  0.5491
 2006SOL     OW 6595   9.105   0.897   1.123  0.0391  0.7361  0.1903
 2006SOL    HW1 6596   9.097   0.808   1.156 -0.3992  1.0242  0.8937
 2006SOL    HW2 6597   9.187   0.897   1.074 -0.5349 -0.3454 -0.7994
 2007SOL     OW 6598   3.465   0.239   6.088  0.3532 -0.1381 -0.4598
 2007SOL    HW1 6599   3.544   0.288   6.066 -0.0983 -0.4298 -3.0706
 2007SOL    HW2 6600   3.463   0.168   6.023 -2.9649  0.9174 -1.6867
 2008SOL     OW 6601   5.331   8.798   6.315 -0.4128  0.4666  0.9461
 2008SOL    HW1 6602   5.401   8.758   6.264 -0.3933 -1.1502  2.1766
 2008SOL    HW2 6603   5.357   8.787   6.406 -2.3985 -0.5194  1.4544
 2009SOL     OW 6604   2.593   6.090   1.980 -0.0505 -0.3092 -0.2040
 2009SOL    HW1 6605   2.638   6.172   1.961 -1.7556  0.6264 -0.3248
 2009SOL    HW2 6606   2.520   6.114   2.037 -0.2832 -1.8275  0.2033
 2010SOL     OW 6607   7.332   2.846   8.598 -0.1003  0.5048  0.1699
 2010SOL    HW1 6608   7.383   2.784   8.650  0.7504  1.6649  0.7674
 2010SOL    HW2 6609   7.324   2.804   8.512  1.3000  0.0005  0.2605
 2011SOL     OW 6610   7.970   3.629   5.554  0.3953  0.3526 -0.7088
 2011SOL    HW1 6611   7.987   3.723   5.545  1.5662  0.1858 -0.3673
 2011SOL    HW2 6612   7.875   3.623   5.555  0.2445  1.7679  1.2909
 2012SOL     OW 6613   1.553   8.791   8.962  0.1464  0.7903 -0.1861
 2012SOL    HW1 6614   1.472   8.816   8.918 -0.0530  1.8445  0.7545
 2012SOL    HW2 6615   1.533   8.795   9.055  1.1571  0.6294  0.0549
 2013SOL     OW 6616   7.142   0.305   7.372  0.2956  0.3380 -0.4822
 2013SOL    HW1 6617   7.201   0.231   7.361  1.9639  1.7488 -1.4896
 2013SOL    HW2 6618   7.199   0.377   7.399 -1.4567  0.9718  1.8664
 2014SOL     OW 6619   1.395   8.761   7.837 -0.0856  0.3947 -0.0482
 2014SOL    HW1 6620   1.461   8.798   7.779 -1.7729  0.6059 -1.9274
 2014SOL    HW2 6621   1.417   8.668   7.841 -0.5620  0.1451 -2.0094
 2015SOL     OW 6622   7.213   7.511   3.083  0.6296 -0.0029  0.1554
 2015SOL    HW1 6623   7.243   7.552   3.164 -0.9426  0.1038  0.7120
 2015SOL    HW2 6624   7.179   7.583   3.030 -1.3234 -0.3910  0.7758
 2016SOL     OW 6625   9.699   9.644   6.354 -0.1288  0.5551  0.4232
 2016SOL    HW1 6626   9.754   9.708   6.308  0.6915  0.1295  0.7869
 2016SOL    HW2 6627   9.677   9.687   6.436  0.1436  0.5100  0.5225
 2017SOL     OW 6628   9.921   9.264   0.885  0.4109 -0.0988 -0.3509
 2017SOL    HW1 6629   9.933   9.170   0.884  0.4466 -0.1020 -1.4921
 2017SOL    HW2 6630   9.828   9.277   0.868  0.3553  0.0642  0.0778
 2018SOL     OW 6631   7.041   7.436   4.381  0.9015 -0.2624 -0.6079
 2018SOL    HW1 6632   7.044   7.523   4.422 -0.3237 -0.7590  0.6160
 2018SOL    HW2 6633   7.040   7.375   4.455  1.1579 -1.3045 -1.4441
 2019SOL     OW 6634   7.940   4.172   7.671  0.4657 -0.4573 -0.1332
 2019SOL    HW1 6635   7.868   4.228   7.702 -2.2296 -2.0918 -2.8556
 2019SOL    HW2 6636   7.897   4.105   7.618  4.0354 -1.7972 -1.6621
 2020SOL     OW 6637   2.140   1.894   3.369 -0.1202  0.1913 -0.3043
 2020SOL    HW1 6638   2.173   1.865   3.285 -0.0051 -0.7240  0.0455
 2020SOL    HW2 6639   2.050   1.862   3.372 -0.1984  0.4180 -0.1739
 2021SOL     OW 6640   4.552   2.484   7.931 -0.2408 -0.5309  0.5179
 2021SOL    HW1 6641   4.526   2.545   7.862 -0.5324 -0.4196  0.7259
 2021SOL    HW2 6642   4.612   2.423   7.888  1.2871  0.8066  0.6396
 2022SOL     OW 6643   0.236   3.341   1.122  0.0963  0.0395  0.4744
 2022SOL    HW1 6644   0.147   3.309   1.103  0.2882 -1.3689  1.8176
 2022SOL    HW2 6645   0.258   3.303   1.207  2.4216 -0.5374 -0.3126
 2023SOL     OW 6646   6.204   1.525   2.905 -0.0485  0.2223 -0.5021
 2023SOL    HW1 6647   6.258   1.559   2.977  0.7564  1.0255 -1.4503
 2023SOL    HW2 6648   6.125   1.579   2.907 -0.1299  0.0922 -0.0898
 2024SOL     OW 6649   1.740   3.112   0.569 -0.0422  0.2895  0.3862
 2024SOL    HW1 6650   1.765   3.052   0.639  1.6120  0.7350  0.2103
 2024SOL    HW2 6651   1.647   3.127   0.583 -0.1723 -1.1563  1.3106
 2025SOL     OW 6652   5.384   2.952   3.435 -0.0893 -0.2173 -0.0331
 2025SOL    HW1 6653   5.361   2.871   3.391  1.6777 -1.2979  0.9267
 2025SOL    HW2 6654   5.348   3.021   3.378 -0.5483 -1.6163 -1.5237
 2026SOL     OW 6655   9.006   1.125   1.188 -0.9772  0.1308  0.3938
 2026SOL    HW1 6656   9.023   1.179   1.111 -2.3076  0.9855  0.6762
 2026SOL    HW2 6657   9.041   1.039   1.165 -2.0575  0.1432 -1.4922
 2027SOL     OW 6658   7.334   0.122   7.297 -0.4930  0.4299 -0.5407
 2027SOL    HW1 6659   7.383   0.081   7.369  0.8337  3.4955  0.4517
 2027SOL    HW2 6660   7.358   0.070   7.220  2.8216  0.5293  0.2577
 2028SOL     OW 6661   8.492   2.876   5.038 -0.1953  0.0049  0.6322
 2028SOL    HW1 6662   8.438   2.947   5.004  0.7055  0.2453 -0.3346
 2028SOL    HW2 6663   8.446   2.796   5.013 -0.3021  0.2168  0.1520
 2029SOL     OW 6664   6.989   1.709   0.108 -0.3123  0.1602  0.2135
 2029SOL    HW1 6665   6.925   1.648   0.071  1.3790 -1.5871  0.0077
 2029SOL    HW2 6666   6.992   1.688   0.201  1.4865 -1.3427 -0.1209
 2030SOL     OW 6667   6.347   5.980   1.352  0.3250  0.0311 -0.4103
 2030SOL    HW1 6668   6.314   6.070   1.360 -1.5077 -0.6807  0.4047
 2030SOL    HW2 6669   6.320   5.937   1.433 -0.3988 -1.7628 -1.5565
 2031SOL     OW 6670   8.470   1.119   9.270 -0.1034 -0.1820 -0.5274
 2031SOL    HW1 6671   8.415   1.073   9.334  1.3389  1.3449  1.9965
 2031SOL    HW2 6672   8.559   1.086   9.286  0.7355  2.2939  0.3604
 2032SOL     OW 6673   9.160   1.277   1.327 -0.4350  0.2508  0.0965
 2032SOL    HW1 6674   9.109   1.197   1.318 -0.2735 -0.3755  3.4799
 2032SOL    HW2 6675   9.232   1.267   1.265 -0.8515 -1.8703 -0.1175
 2033SOL     OW 6676   7.228   9.244   9.011  0.0335  0.2629 -0.1420
 2033SOL    HW1 6677   7.196   9.199   8.933 -1.0626  0.5487  0.1227
 2033SOL    HW2 6678   7.150   9.288   9.047  0.9161  1.8068 -0.0125
 2034SOL     OW 6679   9.657   0.329   5.946 -0.2210  0.1647  0.3487
 2034SOL    HW1 6680   9.708   0.347   6.025 -0.5850  0.0739  0.6056
 2034SOL    HW2 6681   9.579   0.283   5.978 -0.3953  0.1788 -0.0573
 2035SOL     OW 6682   3.953   8.872   1.783 -0.1990  0.1027  0.2497
 2035SOL    HW1 6683   3.937   8.793   1.732  1.7120  0.6935 -1.3923
 2035SOL    HW2 6684   3.955   8.842   1.874 -1.3978 -1.3827 -0.1740
 2036SOL     OW 6685   0.147   7.948   0.925 -0.2365  0.3004 -0.4699
 2036SOL    HW1 6686   0.095   7.877   0.886  0.7385  0.5869 -2.4362
 2036SOL    HW2 6687   0.183   7.995   0.850  2.4529  0.4063  0.7638
 2037SOL     OW 6688   0.911   7.460   1.794  0.0772 -0.3563  0.3326
 2037SOL    HW1 6689   0.867   7.522   1.851 -0.1303 -0.8629  0.7320
 2037SOL    HW2 6690   0.982   7.424   1.848 -1.1315 -2.0705  0.8714
 2038SOL     OW 6691   0.826   4.936   7.335  0.0615  0.3566 -0.7177
 2038SOL    HW1 6692   0.824   4.961   7.243 -0.0436 -2.3772 -1.5658
 2038SOL    HW2 6693   0.864   4.848   7.335 -1.0755 -0.2219  1.7011
 2039SOL     OW 6694   7.566   2.889   6.999  0.1328 -0.2524  0.3204
 2039SOL    HW1 6695   7.605   2.974   6.981  1.4835 -0.6451  1.2256
 2039SOL    HW2 6696   7.472   2.901   6.983  0.0306  1.8805  2.0922
 2040SOL     OW 6697   9.807   6.263   0.832  0.4499 -0.5714 -0.2277
 2040SOL    HW1 6698   9.776   6.194   0.773  0.1083 -1.2337  0.7075
 2040SOL    HW2 6699   9.889   6.293   0.793  0.7029 -1.6445 -0.5422
 2041SOL     OW 6700   6.205   6.547   9.781 -0.3263  0.0396  0.3930
 2041SOL    HW1 6701   6.230   6.467   9.827  2.1905  0.7722  0.4860
 2041SOL    HW2 6702   6.248   6.540   9.696 -0.4553  1.0886  0.2309
 2042SOL     OW 6703   1.181   7.240   6.672 -0.1877 -0.0885 -0.6530
 2042SOL    HW1 6704   1.249   7.306   6.667 -1.3766  1.4480  1.6767
 2042SOL    HW2 6705   1.133   7.248   6.590  1.4947 -0.2045 -1.6896
 2043SOL     OW 6706   2.164   9.048   1.924  0.2303  0.3017 -0.2447
 2043SOL    HW1 6707   2.185   9.050   2.017 -3.0713 -1.6232  0.7116
 2043SOL    HW2 6708   2.094   9.113   1.914 -0.8441 -0.9234 -0.9122
 2044SOL     OW 6709   6.891   2.681   6.448 -0.5691  0.0696 -0.0333
 2044SOL    HW1 6710   6.845   2.745   6.502 -0.2753  0.4857 -0.2662
 2044SOL    HW2 6711   6.981   2.714   6.444 -0.2218 -0.7879  0.5074
 2045SOL     OW 6712   1.847   9.251   4.391  0.4454  0.0226  0.3242
 2045SOL    HW1 6713   1.824   9.245   4.299  1.9281  2.4296 -0.2906
 2045SOL    HW2 6714   1.909   9.180   4.405 -0.0241 -0.5498 -0.4577
 2046SOL     OW 6715   4.692   7.681   7.174  0.8561 -0.0773  0.0106
 2046SOL    HW1 6716   4.722   7.771   7.184 -0.3691  0.1786  2.0864
 2046SOL    HW2 6717   4.743   7.646   7.101  1.8691  2.0616 -0.3799
 2047SOL     OW 6718   9.115   8.924   7.736 -0.0076  0.0974 -0.2183
 2047SOL    HW1 6719   9.161   8.992   7.686 -0.9905  0.2917 -0.8964
 2047SOL    HW2 6720   9.135   8.943   7.827  0.7048  0.5733 -0.4680
 2048SOL     OW 6721   7.230   9.477   6.562 -0.0709  0.6757  0.4705
 2048SOL    HW1 6722   7.249   9.448   6.473  1.5722 -0.3143  1.1051
 2048SOL    HW2 6723   7.315   9.484   6.605 -0.7839  1.6789  1.8189
 2049SOL     OW 6724   3.101   2.679   6.385 -0.0298 -0.0330  0.2327
 2049SOL    HW1 6725   3.135   2.663   6.297 -1.0365  1.8017 -0.5573
 2049SOL    HW2 6726   3.039   2.752   6.373 -0.3936  0.0676  2.4196
 2050SOL     OW 6727   9.483   3.922   0.370  0.5154  0.5350  0.4208
 2050SOL    HW1 6728   9.414   3.989   0.366  1.1138  1.0982 -1.1290
 2050SOL    HW2 6729   9.525   3.936   0.455 -1.4360 -0.0162  1.5516
 2051SOL     OW 6730   2.731   0.298   5.388 -0.3643 -0.4809  0.0123
 2051SOL    HW1 6731   2.644   0.297   5.429 -0.4149 -0.5961 -0.0968
 2051SOL    HW2 6732   2.718   0.255   5.304  0.1798 -2.1535  0.7447
 2052SOL     OW 6733   1.236   9.846   9.022 -0.1565  0.3075  0.0866
 2052SOL    HW1 6734   1.258   9.899   8.946  0.7183 -1.6004 -1.0445
 2052SOL    HW2 6735   1.152   9.807   9.001  0.2473 -0.4954 -0.0670
 2053SOL     OW 6736   0.214   0.443   6.017  0.2707  0.7397 -0.1248
 2053SOL    HW1 6737   0.119   0.431   6.014  0.1224  1.9230 -0.9729
 2053SOL    HW2 6738   0.233   0.458   6.109 -0.1883 -0.6829  0.2245
 2054SOL     OW 6739   5.302   5.763   3.778 -0.0818 -0.0590  0.6266
 2054SOL    HW1 6740   5.313   5.843   3.727  2.1182 -0.4968  0.2969
 2054SOL    HW2 6741   5.366   5.771   3.849 -1.3179 -0.6004  1.8412
 2055SOL     OW 6742   1.988   6.204   0.637 -0.4832  0.0677  0.0286
 2055SOL    HW1 6743   1.938   6.282   0.660 -1.1769  0.2057 -1.7908
 2055SOL    HW2 6744   1.984   6.149   0.715  0.6399  2.1070  1.6225
 2056SOL     OW 6745   0.032   2.305   0.618  0.0876  0.4210 -0.5360
 2056SOL    HW1 6746  -0.063   2.297   0.607 -0.1500 -1.4715  2.0016
 2056SOL    HW2 6747   0.065   2.216   0.604  1.3336  0.8155 -0.1782
 2057SOL     OW 6748   8.313   8.257   8.813 -0.0977  0.5242 -0.5144
 2057SOL    HW1 6749   8.310   8.210   8.730 -0.2522  1.5734 -1.1171
 2057SOL    HW2 6750   8.393   8.225   8.855 -0.3418 -0.4793 -0.7684
 2058SOL     OW 6751   1.785   7.310   7.243  0.4899 -0.9315  0.1841
 2058SOL    HW1 6752   1.781   7.314   7.338  1.2371  2.8631  0.2170
 2058SOL    HW2 6753   1.875   7.335   7.222  0.3678 -1.7862 -1.5481
 2059SOL     OW 6754   3.655   5.476   8.912 -1.5294 -0.0892 -0.0493
 2059SOL    HW1 6755   3.727   5.537   8.931 -0.9534 -1.2455  1.7548
 2059SOL    HW2 6756   3.633   5.439   8.997 -3.0879 -1.0825 -0.8487
 2060SOL     OW 6757   6.113   1.466   2.628 -0.0090 -0.7204  0.3710
 2060SOL    HW1 6758   6.153   1.416   2.700  0.4333 -0.6430  0.1787
 2060SOL    HW2 6759   6.075   1.399   2.571 -0.2579 -0.7886  0.6179
 2061SOL     OW 6760   4.180   2.366   4.841  0.1908 -0.2038  0.4553
 2061SOL    HW1 6761   4.174   2.271   4.828 -0.8002 -0.3612  1.8044
 2061SOL    HW2 6762   4.259   2.378   4.893 -0.2166 -0.4086  1.1338
 2062SOL     OW 6763   3.659   5.463   2.035  0.4280  0.3971  0.1907
 2062SOL    HW1 6764   3.564   5.456   2.039  0.5629 -1.3306  1.4564
 2062SOL    HW2 6765   3.683   5.415   1.955  0.2603  0.4505  0.1080
 2063SOL     OW 6766   2.802   0.620   8.603  0.1765  0.0655 -0.0433
 2063SOL    HW1 6767   2.755   0.693   8.563  0.4625  0.8409  0.9996
 2063SOL    HW2 6768   2.789   0.547   8.542 -3.7527 -0.2436  0.8839
 2064SOL     OW 6769   3.264   8.250   9.509 -0.0619 -0.5880  0.3942
 2064SOL    HW1 6770   3.175   8.216   9.510  0.5225 -2.3190  2.3315
 2064SOL    HW2 6771   3.287   8.261   9.602  1.0204  1.9431 -0.0899
 2065SOL     OW 6772   7.086   8.108   5.476 -0.3140  0.1274  0.4311
 2065SOL    HW1 6773   6.995   8.081   5.487 -0.0514 -1.6767 -1.2682
 2065SOL    HW2 6774   7.134   8.027   5.461  1.5158  1.0818  0.7522
 2066SOL     OW 6775   5.848   6.887   6.880  0.5552 -0.2239 -0.4480
 2066SOL    HW1 6776   5.872   6.885   6.787  0.0089  0.1062 -0.5990
 2066SOL    HW2 6777   5.847   6.795   6.906  2.8283 -0.2277 -0.2067
 2067SOL     OW 6778   2.456   2.272   2.795 -0.1868 -0.8051 -0.3334
 2067SOL    HW1 6779   2.460   2.183   2.831 -1.1071 -1.2696 -1.3342
 2067SOL    HW2 6780   2.528   2.277   2.732 -0.0966 -0.8127 -0.2312
 2068SOL     OW 6781   1.050   4.866   4.344  0.0897 -0.5163  0.4179
 2068SOL    HW1 6782   1.010   4.803   4.285 -0.0584 -1.8600  1.8842
 2068SOL    HW2 6783   0.995   4.943   4.339  1.9174  0.8145 -3.7347
 2069SOL     OW 6784   9.424   0.221   0.567  0.3866 -0.0869 -0.4822
 2069SOL    HW1 6785   9.434   0.129   0.593  0.6840 -0.0320 -0.3961
 2069SOL    HW2 6786   9.336   0.245   0.597  0.6945 -0.0493  0.4225
 2070SOL     OW 6787   3.349   0.481   1.050 -0.3016  0.1259  0.2197
 2070SOL    HW1 6788   3.380   0.529   0.973  1.0290  0.6582  1.0636
 2070SOL    HW2 6789   3.271   0.434   1.019  1.0493 -0.8880 -1.8522
 2071SOL     OW 6790   3.893   4.829   6.629 -0.7187  0.8206 -0.3792
 2071SOL    HW1 6791   3.870   4.744   6.591 -0.7630  0.9048 -0.5414
 2071SOL    HW2 6792   3.959   4.865   6.570 -0.7871  0.9530 -0.3743
 2072SOL     OW 6793   5.164   1.193   5.520 -0.2673  0.3595 -0.0653
 2072SOL    HW1 6794   5.085   1.140   5.527  0.1787 -0.3012  0.0913
 2072SOL    HW2 6795   5.170   1.213   5.426 -0.5534  0.3136 -0.0956
 2073SOL     OW 6796   3.030   3.200   4.225  0.3144  0.0768  0.0484
 2073SOL    HW1 6797   3.084   3.277   4.246  0.4555 -0.5112  2.0003
 2073SOL    HW2 6798   2.991   3.174   4.308 -1.5398 -0.6507 -0.9797
 2074SOL     OW 6799   2.389   6.646   8.961  0.4253 -0.0108 -0.1395
 2074SOL    HW1 6800   2.452   6.705   9.003 -0.1462 -0.0578  0.8242
 2074SOL    HW2 6801   2.356   6.695   8.886  0.6168  0.5406  0.1281
 2075SOL     OW 6802   2.768   6.714   1.196 -0.2442  0.2608  0.3408
 2075SOL    HW1 6803   2.703   6.719   1.266 -1.3232  1.1279 -0.6818
 2075SOL    HW2 6804   2.727   6.760   1.122 -0.6645 -3.6060 -2.0857
 2076SOL     OW 6805   7.979   9.338   9.824 -0.2943  0.2507 -0.0323
 2076SOL    HW1 6806   7.906   9.283   9.795  1.1599 -1.4247 -0.6455
 2076SOL    HW2 6807   8.035   9.347   9.747 -1.1693  3.9660 -0.4689
 2077SOL     OW 6808   6.898   0.857   9.361 -0.0472 -0.2604 -0.7757
 2077SOL    HW1 6809   6.871   0.766   9.353 -0.4401 -0.0933 -1.3354
 2077SOL    HW2 6810   6.822   0.908   9.332  0.7360  0.2183 -2.0432
 2078SOL     OW 6811   6.947   5.085   8.944 -0.6183  0.3589 -0.1124
 2078SOL    HW1 6812   6.969   5.178   8.953 -0.1255  0.1414  1.2639
 2078SOL    HW2 6813   7.025   5.045   8.905 -1.2437  0.6783 -1.7418
 2079SOL     OW 6814   0.963   5.284   3.889 -0.4770  0.5651  0.3838
 2079SOL    HW1 6815   0.911   5.350   3.845 -0.3621 -1.0379 -2.3679
 2079SOL    HW2 6816   1.052   5.295   3.854 -0.4781 -1.0387 -0.2307
 2080SOL     OW 6817   4.037   4.956   5.490  0.4817  0.2084  0.9898
 2080SOL    HW1 6818   4.123   4.918   5.471 -1.1368 -2.0644 -3.1935
 2080SOL    HW2 6819   4.036   5.037   5.439 -0.8826 -1.5863 -2.1470
 2081SOL     OW 6820   3.501   1.873   1.900  0.2879  0.4104  0.0149
 2081SOL    HW1 6821   3.468   1.787   1.873  2.5667 -1.3985  2.3933
 2081SOL    HW2 6822   3.441   1.901   1.969  1.8315 -1.4881  2.2977
 2082SOL     OW 6823   2.214   9.019   9.970 -0.2187 -0.0070  0.2489
 2082SOL    HW1 6824   2.238   9.028   9.878 -0.8723  2.9704  0.2878
 2082SOL    HW2 6825   2.297   9.000  10.015  0.1558 -1.1326 -0.8594
 2083SOL     OW 6826   2.865   4.588   5.386  0.1318  0.4269  0.4800
 2083SOL    HW1 6827   2.890   4.514   5.442 -0.3635  0.3379  0.5929
 2083SOL    HW2 6828   2.776   4.611   5.416 -0.3846 -0.0013 -0.6662
 2084SOL     OW 6829   7.712   3.336   5.598 -0.3916  0.3875  0.5280
 2084SOL    HW1 6830   7.646   3.267   5.607  2.9366 -2.8812  4.4751
 2084SOL    HW2 6831   7.752   3.321   5.513 -2.8571  0.7700 -0.7787
 2085SOL     OW 6832   0.224   4.967   8.730 -0.1010 -0.1466 -0.0983
 2085SOL    HW1 6833   0.150   5.022   8.754 -0.9480 -1.4593  0.4213
 2085SOL    HW2 6834   0.252   5.000   8.645 -3.0224 -1.2494 -1.6472
 2086SOL     OW 6835   6.763   1.446   6.578 -0.8968  0.0038 -0.0762
 2086SOL    HW1 6836   6.856   1.469   6.566 -0.5034 -1.0911  0.6765
 2086SOL    HW2 6837   6.715   1.522   6.545  0.3061  1.4056  1.2310
 2087SOL     OW 6838   5.757   6.813   1.929  0.0516 -0.4144  0.1306
 2087SOL    HW1 6839   5.797   6.782   1.848  0.1070 -0.9963  0.3732
 2087SOL    HW2 6840   5.813   6.885   1.957  0.1548 -0.3496 -0.2355
 2088SOL     OW 6841   6.575   9.988   0.097 -0.1548 -0.0097  0.2786
 2088SOL    HW1 6842   6.648   9.960   0.152 -2.2409 -1.2545  2.6111
 2088SOL    HW2 6843   6.607   9.976   0.008  1.7204 -2.7580  1.1782
 2089SOL     OW 6844   5.021   1.570   4.545 -0.2173  0.3697 -0.7239
 2089SOL    HW1 6845   5.039   1.497   4.604  0.2841 -0.1630 -1.5278
 2089SOL    HW2 6846   5.100   1.625   4.550 -0.4655  0.7045 -0.3644
 2090SOL     OW 6847   9.421   3.276   0.124 -0.2293 -0.2393 -0.0401
 2090SOL    HW1 6848   9.372   3.355   0.146 -2.7138 -1.5114 -0.6809
 2090SOL    HW2 6849   9.454   3.293   0.036 -0.7325  0.0820 -0.1716
 2091SOL     OW 6850   4.406   9.319   0.075 -0.3635 -0.1731 -0.9740
 2091SOL    HW1 6851   4.463   9.261   0.125  0.2040  1.7274  0.7109
 2091SOL    HW2 6852   4.426   9.298  -0.017  1.9204 -0.6475 -0.4433
 2092SOL     OW 6853   4.743   1.744   8.456 -0.0973 -0.5205  0.5596
 2092SOL    HW1 6854   4.651   1.731   8.480 -1.1459  0.8203 -2.2230
 2092SOL    HW2 6855   4.766   1.828   8.494 -0.4201 -0.3198  0.3225
 2093SOL     OW 6856   6.866   8.655   1.466 -0.4388  0.1905 -0.4646
 2093SOL    HW1 6857   6.943   8.676   1.519  1.0265 -4.2966 -0.4178
 2093SOL    HW2 6858   6.792   8.669   1.525  0.6160  1.1329  0.7030
 2094SOL     OW 6859   6.277   7.465   7.847 -0.3786 -0.3530 -1.0083
 2094SOL    HW1 6860   6.350   7.415   7.883 -0.4351 -0.2373 -0.7322
 2094SOL    HW2 6861   6.230   7.498   7.923 -2.0101 -2.2186 -1.1429
 2095SOL     OW 6862   3.436   2.807   8.744  0.6235  0.2206  0.0479
 2095SOL    HW1 6863   3.522   2.840   8.720  0.5779  0.0657 -0.3457
 2095SOL    HW2 6864   3.380   2.829   8.669  0.7491 -1.3580 -0.5591
 2096SOL     OW 6865   9.680   0.594   8.059  0.3862 -0.1691  0.2942
 2096SOL    HW1 6866   9.601   0.556   8.097 -0.4835  1.5466  0.3373
 2096SOL    HW2 6867   9.741   0.603   8.132 -0.3055  0.7219  0.7787
 2097SOL     OW 6868   4.146   3.958   8.789  0.1779  0.6407  0.0170
 2097SOL    HW1 6869   4.202   3.899   8.739  0.8462  1.2287  0.0554
 2097SOL    HW2 6870   4.076   3.902   8.822  0.4110  0.0080 -0.5331
 2098SOL     OW 6871   0.288   8.844   0.522  0.5747  0.5713 -0.8844
 2098SOL    HW1 6872   0.332   8.912   0.470  0.3083  0.3579 -1.3983
 2098SOL    HW2 6873   0.334   8.763   0.499  1.7074  0.7234  0.6500
 2099SOL     OW 6874   2.408   3.858   5.722  0.4730  0.1960  0.3095
 2099SOL    HW1 6875   2.327   3.861   5.671  1.6871 -0.5188 -1.7761
 2099SOL    HW2 6876   2.409   3.769   5.759  1.4385 -0.7074 -1.7409
 2100SOL     OW 6877   1.656   7.773   1.551  0.0738 -0.8296  0.0968
 2100SOL    HW1 6878   1.642   7.682   1.527  0.2712 -1.4299  2.1132
 2100SOL    HW2 6879   1.572   7.803   1.584 -0.7641  0.6024 -2.9534
 2101SOL     OW 6880   3.391   3.646   2.394  0.3291  0.5944 -0.0584
 2101SOL    HW1 6881   3.330   3.669   2.463 -1.3872 -0.9002 -1.0053
 2101SOL    HW2 6882   3.469   3.615   2.440  0.4762  2.5867  1.1700
 2102SOL     OW 6883   0.693   2.936   7.979  0.0166 -0.5704  0.0756
 2102SOL    HW1 6884   0.731   3.023   7.970  1.5606 -1.2144  0.0271
 2102SOL    HW2 6885   0.645   2.923   7.897 -1.1142  0.6086  0.5144
 2103SOL     OW 6886   8.230   0.158   7.341 -0.0780  0.0987  0.4534
 2103SOL    HW1 6887   8.180   0.104   7.403  0.1089 -0.1175  0.4174
 2103SOL    HW2 6888   8.229   0.245   7.380 -1.4817  0.3677 -0.1171
 2104SOL     OW 6889   9.128   8.855   6.000 -0.5731 -0.6356  0.4112
 2104SOL    HW1 6890   9.169   8.921   5.945  0.9436 -0.8457  1.2279
 2104SOL    HW2 6891   9.054   8.823   5.949  1.0327 -1.1672 -1.7318
 2105SOL     OW 6892   9.122   6.359   8.211 -0.1238 -0.4704  0.2423
 2105SOL    HW1 6893   9.157   6.391   8.129 -1.4975  0.6312  0.0382
 2105SOL    HW2 6894   9.154   6.420   8.277 -0.9674  0.0942  0.1568
 2106SOL     OW 6895   7.801   8.674   7.753  0.2995 -0.5195  0.0652
 2106SOL    HW1 6896   7.794   8.675   7.848  0.0769 -0.4082  0.0488
 2106SOL    HW2 6897   7.889   8.707   7.735 -0.3963  1.5802  0.1759
 2107SOL     OW 6898   0.016   4.926   4.128  0.2049 -0.1862 -0.2285
 2107SOL    HW1 6899   0.112   4.935   4.127  0.1186  1.2662  0.9003
 2107SOL    HW2 6900  -0.005   4.882   4.046  1.8306 -0.3961 -0.5670
 2108SOL     OW 6901   4.220   2.721   6.744  1.0440  0.1258  0.1153
 2108SOL    HW1 6902   4.309   2.749   6.723  0.8254 -0.0836 -1.1692
 2108SOL    HW2 6903   4.194   2.667   6.670 -0.0786  0.0065  0.5796
 2109SOL     OW 6904   8.711   8.880   4.292  1.0209 -0.3721 -0.4404
 2109SOL    HW1 6905   8.685   8.891   4.200  0.5342  2.4135 -0.0589
 2109SOL    HW2 6906   8.806   8.886   4.291  0.9723  0.5970 -0.7159
 2110SOL     OW 6907   6.048   1.974   4.005  0.1666  0.9293 -0.0449
 2110SOL    HW1 6908   6.115   1.928   3.954  0.6121  0.9336  0.5119
 2110SOL    HW2 6909   5.979   1.909   4.018 -0.0789  1.0122 -0.8682
 2111SOL     OW 6910   0.536   0.566   0.588  0.3781  0.6323 -0.5145
 2111SOL    HW1 6911   0.610   0.560   0.528  1.2574 -1.1301  0.6807
 2111SOL    HW2 6912   0.545   0.653   0.629  0.7762  1.1214 -1.6075
 2112SOL     OW 6913   7.932   2.827   7.237  0.0757 -0.1451 -0.4340
 2112SOL    HW1 6914   7.912   2.829   7.330  0.0129  0.5473 -0.4516
 2112SOL    HW2 6915   8.006   2.888   7.227  0.8241 -1.0808 -0.6746
 2113SOL     OW 6916   7.631   1.558   7.783 -0.3219 -0.3854 -0.3788
 2113SOL    HW1 6917   7.618   1.563   7.688  1.1337 -0.5743 -0.6094
 2113SOL    HW2 6918   7.646   1.465   7.801 -1.9718 -0.5526  0.2534
 2114SOL     OW 6919   0.318   0.750   9.043 -0.5567 -0.1736  0.2140
 2114SOL    HW1 6920   0.241   0.789   9.083 -0.1615  2.5616 -1.4132
 2114SOL    HW2 6921   0.391   0.805   9.073  0.3209 -0.8003 -0.6956
 2115SOL     OW 6922   5.508   0.669   1.819 -0.2817 -0.0271 -0.2335
 2115SOL    HW1 6923   5.426   0.719   1.817 -0.4972 -0.3218 -3.0937
 2115SOL    HW2 6924   5.572   0.726   1.777 -0.5839 -1.9625 -3.7895
 2116SOL     OW 6925   1.865   1.662   8.581 -0.0736  0.4029 -0.0317
 2116SOL    HW1 6926   1.881   1.752   8.608 -0.0830  0.2129  0.6344
 2116SOL    HW2 6927   1.902   1.656   8.493  2.1219  0.4293  0.8135
 2117SOL     OW 6928   6.413   1.768   7.064 -0.6551  0.0802  0.1948
 2117SOL    HW1 6929   6.456   1.691   7.029 -1.2247  0.1603 -0.7502
 2117SOL    HW2 6930   6.323   1.762   7.031 -0.2635  2.0461 -1.4814
 2118SOL     OW 6931   5.052   1.164   1.495 -0.0236 -0.6155  0.1573
 2118SOL    HW1 6932   5.015   1.078   1.481 -0.4241 -0.4669  0.2877
 2118SOL    HW2 6933   5.013   1.194   1.577  0.9456 -0.7593  0.6987
 2119SOL     OW 6934   2.013   5.553   7.463 -0.0158 -0.4500 -0.0328
 2119SOL    HW1 6935   1.988   5.469   7.426  1.2091 -1.0846  0.5473
 2119SOL    HW2 6936   2.101   5.570   7.429 -0.6402  1.1385 -1.0225
 2120SOL     OW 6937   3.452   5.027   2.551 -0.4172  0.1410 -0.0919
 2120SOL    HW1 6938   3.535   5.059   2.587  0.3668 -0.2484 -1.4778
 2120SOL    HW2 6939   3.386   5.059   2.612  0.6437  1.4704  0.4284
 2121SOL     OW 6940   9.299   3.733   0.600  0.0629  0.6919 -0.4350
 2121SOL    HW1 6941   9.326   3.672   0.669 -1.3881 -1.4129 -1.6020
 2121SOL    HW2 6942   9.382   3.766   0.565  0.9173 -0.3746  0.4716
 2122SOL     OW 6943   2.560   5.433   0.766  0.4247 -0.3982 -0.5542
 2122SOL    HW1 6944   2.477   5.482   0.764  0.1663 -0.8369 -0.9297
 2122SOL    HW2 6945   2.621   5.487   0.716  0.6267  0.3811  0.5196
 2123SOL     OW 6946   6.202   5.228   5.355 -0.0327 -0.4931  0.3185
 2123SOL    HW1 6947   6.165   5.143   5.377  0.8358 -1.3450 -1.3544
 2123SOL    HW2 6948   6.153   5.290   5.410 -0.6284 -2.0447  1.6245
 2124SOL     OW 6949   3.338   7.156   3.631 -0.1171 -0.2102 -0.5037
 2124SOL    HW1 6950   3.348   7.118   3.544 -2.5371  1.1228 -1.4532
 2124SOL    HW2 6951   3.351   7.082   3.690  2.6618 -0.9395 -1.8508
 2125SOL     OW 6952   4.328   4.632   0.696  1.0385  0.1481  0.3102
 2125SOL    HW1 6953   4.398   4.615   0.633  0.3079  0.0111 -0.4938
 2125SOL    HW2 6954   4.360   4.705   0.749  2.3037 -0.7300  0.7910
 2126SOL     OW 6955   7.150   3.794   9.529 -0.1003 -0.2364 -0.7785
 2126SOL    HW1 6956   7.201   3.753   9.459 -0.9570  0.5358 -1.8889
 2126SOL    HW2 6957   7.212   3.805   9.600  0.6024 -1.7758 -1.1078
 2127SOL     OW 6958   2.984   8.542   0.672  0.0428 -0.4266 -0.5134
 2127SOL    HW1 6959   2.920   8.606   0.703  2.5460  2.5685 -1.0273
 2127SOL    HW2 6960   3.044   8.529   0.746  1.5350  0.6219 -1.4737
 2128SOL     OW 6961   7.869   6.641   7.861  0.2965 -0.0468  0.0092
 2128SOL    HW1 6962   7.806   6.606   7.924  1.0923 -1.1768  0.1996
 2128SOL    HW2 6963   7.863   6.736   7.872  0.5745 -0.2113  1.9825
 2129SOL     OW 6964   8.647   6.892   9.722  0.3300  0.3725 -0.1322
 2129SOL    HW1 6965   8.555   6.889   9.747  0.0975  1.4375 -0.7951
 2129SOL    HW2 6966   8.656   6.825   9.655 -0.2773  1.1403 -1.0012
 2130SOL     OW 6967   5.118   9.506   9.976 -0.0005 -0.1948 -0.0287
 2130SOL    HW1 6968   5.025   9.487   9.992 -1.1199  2.7333 -2.1514
 2130SOL    HW2 6969   5.142   9.447   9.904  0.0231 -1.3493  0.8865
 2131SOL     OW 6970   4.425   2.196   8.068  0.2832  0.3449 -0.4916
 2131SOL    HW1 6971   4.392   2.108   8.048 -1.1083  0.9741 -1.0713
 2131SOL    HW2 6972   4.387   2.252   8.000  0.7928  1.4737  0.1279
 2132SOL     OW 6973   7.596   3.325   8.890 -0.2023 -0.3949 -0.2926
 2132SOL    HW1 6974   7.660   3.388   8.855  0.1801 -0.2241  0.6884
 2132SOL    HW2 6975   7.622   3.241   8.850 -0.0948 -0.1133 -0.8232
 2133SOL     OW 6976   4.720   9.523   6.139 -0.2365  0.4144  0.1286
 2133SOL    HW1 6977   4.664   9.508   6.215  0.9243 -0.2781  0.8838
 2133SOL    HW2 6978   4.799   9.564   6.175  0.1015  0.5943 -0.7888
 2134SOL     OW 6979   9.425   2.626   1.522  0.4446 -0.2923  0.1575
 2134SOL    HW1 6980   9.369   2.571   1.468  0.7116 -1.1964  0.7810
 2134SOL    HW2 6981   9.372   2.647   1.599  1.1529 -1.7423  1.0953
 2135SOL     OW 6982   5.398   0.241   8.213 -0.1580  1.2220 -0.0099
 2135SOL    HW1 6983   5.384   0.154   8.176 -0.6643  1.9908 -1.7265
 2135SOL    HW2 6984   5.322   0.292   8.185 -0.1099  2.1115  1.3674
 2136SOL     OW 6985   5.152   1.570   3.127  0.0759  0.1083 -0.0534
 2136SOL    HW1 6986   5.122   1.649   3.172  2.0147  1.3052 -0.7173
 2136SOL    HW2 6987   5.120   1.498   3.181 -1.2482  1.3585  0.9002
 2137SOL     OW 6988   2.208   6.949   3.654 -0.1115  0.6281  0.0019
 2137SOL    HW1 6989   2.201   6.877   3.717 -0.8332  1.6046  1.0760
 2137SOL    HW2 6990   2.141   6.929   3.588 -1.5330  1.1608  1.2180
 2138SOL     OW 6991   7.916   5.649   6.384  0.5370 -0.4684 -0.4435
 2138SOL    HW1 6992   7.899   5.555   6.384 -0.1141 -0.3710 -1.8874
 2138SOL    HW2 6993   7.859   5.684   6.316  0.3328  1.0680  0.4763
 2139SOL     OW 6994   3.912   5.619   1.218  0.3451  0.0410  0.4147
 2139SOL    HW1 6995   3.962   5.683   1.269  0.0836 -0.8251  1.7957
 2139SOL    HW2 6996   3.824   5.656   1.215  0.3000 -0.0235  0.8257
 2140SOL     OW 6997   1.854   1.928   4.431  0.4002 -0.4222  0.3620
 2140SOL    HW1 6998   1.851   2.008   4.483  1.5111  0.5024 -0.9046
 2140SOL    HW2 6999   1.946   1.919   4.407 -0.2337  0.1050 -2.7034
 2141SOL     OW 7000   4.744   3.316   2.615 -0.1492  0.3309  0.1221
 2141SOL    HW1 7001   4.671   3.293   2.672 -0.4528  0.1781 -0.3256
 2141SOL    HW2 7002   4.769   3.233   2.573 -0.0729  0.4807 -0.1308
 2142SOL     OW 7003   6.800   4.582   8.076 -0.2290 -0.3331  0.4283
 2142SOL    HW1 7004   6.820   4.491   8.100 -0.3283 -0.1318  1.2968
 2142SOL    HW2 7005   6.879   4.612   8.032 -1.2399 -1.7518 -2.6397
 2143SOL     OW 7006   1.820   6.094   3.028  0.4616 -0.2511  0.2733
 2143SOL    HW1 7007   1.913   6.097   3.008  0.3472  3.2501 -0.3501
 2143SOL    HW2 7008   1.778   6.129   2.949 -0.9046  3.0589  2.2871
 2144SOL     OW 7009   5.473   0.556   7.373  0.0163  0.1947 -0.7985
 2144SOL    HW1 7010   5.423   0.621   7.324  1.6205  0.9350 -1.5099
 2144SOL    HW2 7011   5.406   0.501   7.414 -1.3866  1.9715 -0.5649
 2145SOL     OW 7012   7.724   5.756   6.934  0.4803  0.4340 -0.2685
 2145SOL    HW1 7013   7.713   5.748   6.840 -0.6557 -1.4905 -0.0451
 2145SOL    HW2 7014   7.673   5.834   6.958 -0.2320  0.2471 -1.1204
 2146SOL     OW 7015   9.392   7.608   3.104 -0.3284 -0.6922 -0.1440
 2146SOL    HW1 7016   9.436   7.662   3.037  1.0605 -0.5576  0.8319
 2146SOL    HW2 7017   9.449   7.531   3.113 -1.8322 -1.9403 -0.8863
 2147SOL     OW 7018   0.489   5.409   3.352  0.1502  0.2997  0.3599
 2147SOL    HW1 7019   0.534   5.446   3.275  0.3160  0.4431  0.5241
 2147SOL    HW2 7020   0.396   5.418   3.331  0.1871 -1.1633 -0.5346
 2148SOL     OW 7021   8.350   3.239   1.996  0.0972 -0.3335 -0.4968
 2148SOL    HW1 7022   8.368   3.329   2.021 -0.6331  0.2754 -2.0041
 2148SOL    HW2 7023   8.426   3.214   1.943  0.0790 -0.4353 -0.4738
 2149SOL     OW 7024   3.337   0.914   9.493  0.4089  0.2813  0.5722
 2149SOL    HW1 7025   3.351   0.882   9.582  0.0240 -1.6353 -0.0225
 2149SOL    HW2 7026   3.254   0.875   9.466  0.4409  0.9655 -0.5728
 2150SOL     OW 7027   9.728   3.746   6.544 -0.0891  0.1643 -0.2539
 2150SOL    HW1 7028   9.660   3.795   6.496 -0.3045  1.4148  1.2498
 2150SOL    HW2 7029   9.684   3.666   6.573 -0.1096 -0.3527 -1.6207
 2151SOL     OW 7030   6.359   4.314   7.753  0.1558  0.3046 -0.1748
 2151SOL    HW1 7031   6.276   4.354   7.777 -0.3830 -0.6282 -0.4513
 2151SOL    HW2 7032   6.340   4.261   7.676  0.6312 -1.1837  0.6794
 2152SOL     OW 7033   2.945   7.310   6.753 -0.0596 -0.4391  0.2555
 2152SOL    HW1 7034   2.926   7.403   6.743 -0.6131 -0.5668  0.0821
 2152SOL    HW2 7035   2.965   7.299   6.846 -1.7025 -0.4314  0.6443
 2153SOL     OW 7036   1.686   2.189   0.452  0.2215  1.2541 -0.1872
 2153SOL    HW1 7037   1.761   2.148   0.408  1.1461  0.3922  2.0155
 2153SOL    HW2 7038   1.722   2.267   0.494 -0.4213  1.5524 -0.1764
 2154SOL     OW 7039   1.807   4.740   8.085  0.0843 -0.2601 -0.0157
 2154SOL    HW1 7040   1.834   4.831   8.079  0.3168 -0.3078  0.3025
 2154SOL    HW2 7041   1.740   4.730   8.017 -0.5667  0.3675  0.5149
 2155SOL     OW 7042   7.968   4.009   3.616 -0.3754  0.1659  0.2278
 2155SOL    HW1 7043   7.938   4.095   3.646  0.8281  0.2363  1.3196
 2155SOL    HW2 7044   7.957   4.012   3.521  1.6695  2.4044 -0.0424
 2156SOL     OW 7045   4.541   1.233   9.465 -0.4059 -0.0193 -0.3359
 2156SOL    HW1 7046   4.595   1.304   9.432 -1.3382  0.8150 -0.1111
 2156SOL    HW2 7047   4.594   1.192   9.533  0.3771  0.0679 -0.8826
 2157SOL     OW 7048   3.198   4.182   9.776  0.3359  0.1097 -0.0970
 2157SOL    HW1 7049   3.278   4.235   9.783  0.3546  0.0964 -0.2216
 2157SOL    HW2 7050   3.225   4.104   9.727 -0.3155  1.2164 -2.3471
 2158SOL     OW 7051   5.108   8.471   0.931  0.5457 -0.3793 -0.0304
 2158SOL    HW1 7052   5.170   8.431   0.991  0.7686  0.3420  0.2284
 2158SOL    HW2 7053   5.053   8.527   0.986  1.3952  1.0769 -0.5932
 2159SOL     OW 7054   1.646   8.124   2.817 -0.1739 -0.4472 -0.9611
 2159SOL    HW1 7055   1.584   8.186   2.856 -0.3599 -0.9227 -0.4896
 2159SOL    HW2 7056   1.726   8.136   2.869 -0.5302 -1.3338 -0.1742
 2160SOL     OW 7057   2.947   2.484   1.158 -0.5300  0.2142  0.1543
 2160SOL    HW1 7058   3.019   2.533   1.197 -0.7828 -0.7354  1.9799
 2160SOL    HW2 7059   2.880   2.549   1.140  0.0890  0.8614  0.1704
 2161SOL     OW 7060   0.223   0.810   2.833 -0.5700  0.1479 -0.3333
 2161SOL    HW1 7061   0.208   0.718   2.851 -0.1690 -0.0902 -1.1672
 2161SOL    HW2 7062   0.295   0.834   2.891 -2.2720  0.6121  1.7163
 2162SOL     OW 7063   3.699   1.818   7.982 -0.2345  0.0063  0.2666
 2162SOL    HW1 7064   3.660   1.904   7.997  0.2692  0.1850  0.5573
 2162SOL    HW2 7065   3.766   1.810   8.050 -2.5746 -2.0374  2.5731
 2163SOL     OW 7066   3.556   4.020   8.520  0.1514 -0.1530  0.4386
 2163SOL    HW1 7067   3.498   4.072   8.465 -0.1501  0.9205  1.7220
 2163SOL    HW2 7068   3.590   3.952   8.461  0.7386  1.6123 -1.3681
 2164SOL     OW 7069   3.644   8.300   8.031  0.1105 -0.1103 -0.9666
 2164SOL    HW1 7070   3.651   8.204   8.027  1.2335 -0.0135 -2.1717
 2164SOL    HW2 7071   3.557   8.317   8.065  0.2945 -1.5725  0.3296
 2165SOL     OW 7072   5.609   9.831   8.291  0.0563 -0.2228 -0.0254
 2165SOL    HW1 7073   5.543   9.807   8.355 -0.0214 -1.9037 -0.6786
 2165SOL    HW2 7074   5.671   9.885   8.339 -0.7697 -0.2245  1.0754
 2166SOL     OW 7075   0.575   0.995   1.921 -0.3842  0.3336  0.5146
 2166SOL    HW1 7076   0.632   1.066   1.896  1.3917 -0.9194  0.8303
 2166SOL    HW2 7077   0.610   0.963   2.004 -1.9601 -0.0473  1.0776
 2167SOL     OW 7078   7.175   6.620   8.769 -0.2564  0.0613 -0.2166
 2167SOL    HW1 7079   7.173   6.693   8.831 -1.7909 -0.9990  1.0468
 2167SOL    HW2 7080   7.146   6.658   8.686 -1.8645  0.7503  0.6181
 2168SOL     OW 7081   8.887   2.258   8.932 -0.4492  0.7946 -0.1408
 2168SOL    HW1 7082   8.923   2.300   8.855 -0.0897  2.2501  0.7776
 2168SOL    HW2 7083   8.798   2.232   8.907 -0.1957  0.8931 -1.1451
 2169SOL     OW 7084   2.462   6.124   8.777  0.1277 -0.5870  0.0208
 2169SOL    HW1 7085   2.376   6.082   8.776 -0.8798  1.3491 -1.9956
 2169SOL    HW2 7086   2.499   6.099   8.862 -3.4445  0.4837  2.1185
 2170SOL     OW 7087   6.200   0.692   1.778 -0.7844  0.2755 -0.2141
 2170SOL    HW1 7088   6.228   0.694   1.686 -0.0910  0.9156  0.0013
 2170SOL    HW2 7089   6.267   0.639   1.821 -2.1261 -1.6573 -0.3855
 2171SOL     OW 7090   5.213   2.899   8.232  0.3445  0.0967  0.0030
 2171SOL    HW1 7091   5.282   2.902   8.299  0.4468 -0.1809 -0.0869
 2171SOL    HW2 7092   5.233   2.820   8.181 -0.8474 -0.8087  0.8666
 2172SOL     OW 7093   0.424   0.383   0.761  0.1798  0.1031 -0.1315
 2172SOL    HW1 7094   0.406   0.406   0.852  1.2617  0.3113  0.0441
 2172SOL    HW2 7095   0.447   0.466   0.720 -0.5532  0.0510 -0.6678
 2173SOL     OW 7096   2.217   1.270   9.310  0.2955  0.0495 -0.3945
 2173SOL    HW1 7097   2.278   1.344   9.302 -0.8859  1.1773  0.5161
 2173SOL    HW2 7098   2.137   1.300   9.267 -0.7197 -0.0694  1.3378
 2174SOL     OW 7099   2.436   8.671   0.381 -0.0695 -0.0395  0.7135
 2174SOL    HW1 7100   2.427   8.671   0.477 -1.4403 -1.2012  0.6268
 2174SOL    HW2 7101   2.418   8.580   0.356 -0.0668  0.3257 -0.6811
 2175SOL     OW 7102   3.198   5.541   1.813  0.3380 -0.4575  0.4388
 2175SOL    HW1 7103   3.147   5.460   1.815 -1.0996  0.2712 -1.8512
 2175SOL    HW2 7104   3.267   5.524   1.749 -1.0231  0.5641 -1.4267
 2176SOL     OW 7105   4.198   1.470   1.247 -0.3387 -0.0891  0.0849
 2176SOL    HW1 7106   4.169   1.509   1.330  1.7960 -0.2465  0.9715
 2176SOL    HW2 7107   4.245   1.541   1.202  2.4145 -1.1333  1.1130
 2177SOL     OW 7108   9.545   2.196   2.363  0.2134 -0.2196 -0.0178
 2177SOL    HW1 7109   9.616   2.150   2.318  3.5238  1.5015  2.9522
 2177SOL    HW2 7110   9.529   2.273   2.309  0.7030 -0.5587 -0.6684
 2178SOL     OW 7111   4.899   2.620   5.008  0.1364 -0.5493 -0.3253
 2178SOL    HW1 7112   4.830   2.561   5.036  1.7587 -2.0204  0.7922
 2178SOL    HW2 7113   4.915   2.597   4.917 -1.5523  0.5972 -0.9674
 2179SOL     OW 7114   4.888   5.472   5.080 -0.1062  0.2215 -0.0034
 2179SOL    HW1 7115   4.915   5.400   5.022  0.5387  1.3177 -1.1018
 2179SOL    HW2 7116   4.922   5.551   5.038 -0.7854  1.1824  1.1924
 2180SOL     OW 7117   9.003   9.442   1.339 -0.2411  0.2165  0.1739
 2180SOL    HW1 7118   9.090   9.432   1.377 -0.5741  1.3856  1.3364
 2180SOL    HW2 7119   8.982   9.356   1.302  0.5828 -0.6475  1.6429
 2181SOL     OW 7120   1.941   5.184   6.355 -0.0720  0.1234  0.0713
 2181SOL    HW1 7121   1.869   5.239   6.387 -1.8877 -1.3936 -1.2537
 2181SOL    HW2 7122   1.937   5.105   6.408 -0.0507 -0.4168 -0.7241
 2182SOL     OW 7123   1.917   0.148   9.495 -0.2054 -0.1710 -0.4907
 2182SOL    HW1 7124   1.837   0.159   9.546 -0.1625  1.4000 -0.7178
 2182SOL    HW2 7125   1.940   0.056   9.505 -2.8255 -1.0292 -1.5916
 2183SOL     OW 7126   2.680   8.590  -0.007 -0.0733 -0.2140 -0.2957
 2183SOL    HW1 7127   2.655   8.637   0.072  0.9875 -0.9966  0.5333
 2183SOL    HW2 7128   2.603   8.595  -0.063 -0.6000  0.9537  0.4954
 2184SOL     OW 7129   1.641   0.223   5.840  0.2048  0.2615 -0.0872
 2184SOL    HW1 7130   1.726   0.267   5.843  0.9233 -1.0437 -0.5287
 2184SOL    HW2 7131   1.655   0.141   5.887  0.6832 -2.3563 -4.2756
 2185SOL     OW 7132   7.647   8.707   0.173  0.5926 -0.0763  0.1325
 2185SOL    HW1 7133   7.589   8.668   0.238  1.0997 -0.2443  0.4969
 2185SOL    HW2 7134   7.613   8.677   0.089 -0.3002  0.4634  0.3017
 2186SOL     OW 7135   4.516   8.979   5.165 -0.2751 -0.0442  0.0154
 2186SOL    HW1 7136   4.534   8.908   5.226  2.0953  1.2846  0.9506
 2186SOL    HW2 7137   4.513   9.058   5.218 -1.0264  0.8259 -1.2406
 2187SOL     OW 7138   0.087   6.533   7.361 -0.0885 -0.9058  0.0993
 2187SOL    HW1 7139   0.084   6.501   7.452 -4.2489 -1.3806 -0.0121
 2187SOL    HW2 7140   0.079   6.454   7.308  3.2787 -0.7383 -0.8916
 2188SOL     OW 7141   9.027   0.396   5.004  0.3663  0.5870 -0.4122
 2188SOL    HW1 7142   8.945   0.348   5.020  0.4919  0.3315 -0.5198
 2188SOL    HW2 7143   9.084   0.331   4.962  0.4935  0.8716 -0.6830
 2189SOL     OW 7144   1.020   4.817   0.484 -0.5300 -0.1383  0.1352
 2189SOL    HW1 7145   1.112   4.836   0.468 -0.3416 -1.7551 -0.8458
 2189SOL    HW2 7146   0.988   4.894   0.532  0.8078  1.4166 -1.3335
 2190SOL     OW 7147   8.215   6.912   0.374 -0.1383 -0.6434 -0.1481
 2190SOL    HW1 7148   8.267   6.901   0.294 -1.4610  0.5433 -1.2331
 2190SOL    HW2 7149   8.126   6.923   0.342 -0.4945  1.3280  1.3984
 2191SOL     OW 7150   2.320   0.910   3.176 -0.2241  0.2693  0.0882
 2191SOL    HW1 7151   2.297   0.972   3.245 -1.1558 -0.8800  0.8511
 2191SOL    HW2 7152   2.414   0.893   3.190 -0.2411  0.5830  0.6347
 2192SOL     OW 7153   4.982   6.598   7.856  1.0478 -0.3957  0.7753
 2192SOL    HW1 7154   5.056   6.621   7.799  0.8951 -2.1139 -0.2140
 2192SOL    HW2 7155   5.022   6.552   7.930  1.0205 -1.0857  0.3743
 2193SOL     OW 7156   5.538   2.449   8.227  0.2271  0.8236  0.9577
 2193SOL    HW1 7157   5.523   2.543   8.243 -0.0662  0.5885  2.1578
 2193SOL    HW2 7158   5.451   2.410   8.225  0.3989  0.2535  2.7327
 2194SOL     OW 7159   1.532   3.346   2.317  0.4457 -0.0035  0.3881
 2194SOL    HW1 7160   1.596   3.322   2.384  0.7677  2.0506  0.8725
 2194SOL    HW2 7161   1.565   3.428   2.280 -0.7979 -0.0263 -0.8803
 2195SOL     OW 7162   7.434   7.733   6.146 -0.3282  0.3526 -0.1201
 2195SOL    HW1 7163   7.522   7.720   6.111 -0.1295  1.3293 -0.0281
 2195SOL    HW2 7164   7.387   7.653   6.124 -0.3567  1.0617 -3.0439
 2196SOL     OW 7165   8.331   1.091   3.871 -0.2849 -0.5899  0.2049
 2196SOL    HW1 7166   8.323   1.025   3.940 -1.9594 -1.8818 -1.1195
 2196SOL    HW2 7167   8.364   1.043   3.795 -1.1567  0.1494 -0.6820
 2197SOL     OW 7168   2.191   4.783   6.527 -0.0737  0.1399 -0.5249
 2197SOL    HW1 7169   2.130   4.847   6.490  0.4308  1.1484  0.3312
 2197SOL    HW2 7170   2.226   4.825   6.606  0.4427 -1.1065 -0.0507
 2198SOL     OW 7171   0.503   4.840   9.510  0.3493  0.8302 -0.3116
 2198SOL    HW1 7172   0.502   4.918   9.455  1.6431  0.7188 -0.5332
 2198SOL    HW2 7173   0.571   4.785   9.472 -1.9749 -1.4120 -1.4631
 2199SOL     OW 7174   6.509   5.997   0.399 -0.0625  0.0780 -0.0535
 2199SOL    HW1 7175   6.508   6.002   0.494  1.4250 -0.2530  0.0016
 2199SOL    HW2 7176   6.512   6.088   0.370 -2.4827  0.2811  0.1203
 2200SOL     OW 7177   9.673   9.702   0.990  0.3149 -0.2052 -0.0507
 2200SOL    HW1 7178   9.599   9.715   0.930  0.4465  2.3482  0.2339
 2200SOL    HW2 7179   9.745   9.676   0.933  0.1565  1.1293 -0.9107
 2201SOL     OW 7180   0.689   8.546   1.505  0.2382 -0.5300 -0.6939
 2201SOL    HW1 7181   0.704   8.464   1.551  0.3060  0.7910  1.7618
 2201SOL    HW2 7182   0.596   8.564   1.517  0.4359  0.2666 -0.2971
 2202SOL     OW 7183   9.269   9.884   0.113  0.1810  0.8904 -0.0749
 2202SOL    HW1 7184   9.222   9.968   0.118  1.5915  1.6285  2.3350
 2202SOL    HW2 7185   9.349   9.898   0.163  0.9506 -1.6268 -0.4514
 2203SOL     OW 7186   3.679   2.500   1.854 -0.0509  0.3629  0.2072
 2203SOL    HW1 7187   3.601   2.474   1.803  1.1648 -1.5981 -0.7628
 2203SOL    HW2 7188   3.744   2.521   1.787  0.2960  1.9923  1.0181
 2204SOL     OW 7189   5.328   1.843   6.009  0.2081 -0.2085 -0.5290
 2204SOL    HW1 7190   5.246   1.871   6.050  1.3342  1.0135  1.0179
 2204SOL    HW2 7191   5.300   1.794   5.932 -1.9821 -0.4937  0.3577
 2205SOL     OW 7192   3.459   4.517   7.266  0.1890 -0.1290  0.6928
 2205SOL    HW1 7193   3.526   4.552   7.207 -0.7923  0.6194 -0.0166
 2205SOL    HW2 7194   3.421   4.595   7.307 -0.2588 -0.5453  1.0752
 2206SOL     OW 7195   9.054   5.444   2.851  0.1742  0.6818 -0.1618
 2206SOL    HW1 7196   9.060   5.523   2.905 -2.0185  0.8885 -0.1016
 2206SOL    HW2 7197   9.116   5.459   2.780  0.6599  1.9311  0.4800
 2207SOL     OW 7198   6.198   2.017   4.921  0.3191  0.2315 -0.3899
 2207SOL    HW1 7199   6.275   1.962   4.905 -0.4853 -0.9349 -0.4152
 2207SOL    HW2 7200   6.124   1.960   4.900 -0.5438  1.7276 -1.6173
 2208SOL     OW 7201   0.012   0.851   9.400 -0.4084  0.5794  0.3465
 2208SOL    HW1 7202   0.070   0.800   9.457 -0.6334 -0.2347 -0.1416
 2208SOL    HW2 7203  -0.066   0.867   9.454 -0.8061 -0.5665  0.1364
 2209SOL     OW 7204   9.715   3.972   5.720 -0.4035 -0.3137 -0.2882
 2209SOL    HW1 7205   9.760   3.959   5.636  1.9741 -0.2378  0.8856
 2209SOL    HW2 7206   9.724   3.888   5.765 -2.3108 -0.5920 -0.3395
 2210SOL     OW 7207   7.382   0.192   0.224 -0.1506  0.3968 -0.3835
 2210SOL    HW1 7208   7.327   0.228   0.294 -1.6213  0.9127 -1.7410
 2210SOL    HW2 7209   7.357   0.241   0.146  0.3699 -1.1565 -1.5894
 2211SOL     OW 7210   0.778   6.802   0.088  0.3684  0.4929  0.0291
 2211SOL    HW1 7211   0.794   6.765   0.175  0.2216 -1.4275 -0.7220
 2211SOL    HW2 7212   0.747   6.891   0.106 -0.0810 -0.0019  1.9608
 2212SOL     OW 7213   0.453   4.808   5.018 -0.0943 -0.1213 -0.2702
 2212SOL    HW1 7214   0.524   4.836   5.077  0.0215  1.4900 -1.1072
 2212SOL    HW2 7215   0.373   4.841   5.060 -0.2784 -1.1561  0.2192
 2213SOL     OW 7216   2.183   2.976   4.567 -0.0939  0.4360 -0.1749
 2213SOL    HW1 7217   2.177   3.028   4.647 -1.7426  0.1560 -0.0979
 2213SOL    HW2 7218   2.096   2.979   4.529  0.4340 -0.1840 -1.5035
 2214SOL     OW 7219   4.217   7.189   4.059 -0.1645  0.3262  0.0197
 2214SOL    HW1 7220   4.135   7.179   4.010 -0.6424 -0.7325  0.9780
 2214SOL    HW2 7221   4.270   7.114   4.031  0.9273  1.5348 -1.3468
 2215SOL     OW 7222   4.225   0.029   8.044  0.3789 -0.4935 -0.5575
 2215SOL    HW1 7223   4.198   0.072   7.963 -0.0412  0.6192  0.1624
 2215SOL    HW2 7224   4.266  -0.052   8.015  1.1484  0.3621 -1.9464
 2216SOL     OW 7225   7.362   5.727   5.453  0.5770 -0.1765 -0.0002
 2216SOL    HW1 7226   7.302   5.681   5.395  0.4812  0.3910 -0.3607
 2216SOL    HW2 7227   7.323   5.718   5.540  0.6189 -0.8644 -0.0494
 2217SOL     OW 7228   2.632   6.685   2.100 -0.1065  0.3933  0.0389
 2217SOL    HW1 7229   2.635   6.741   2.177 -0.5851  0.5623 -0.0603
 2217SOL    HW2 7230   2.587   6.606   2.129  2.3097 -0.8239  0.7172
 2218SOL     OW 7231   8.040   6.811   9.800 -0.0609 -0.8742 -0.4026
 2218SOL    HW1 7232   8.110   6.768   9.750 -1.0661 -2.1165 -0.7982
 2218SOL    HW2 7233   7.967   6.817   9.739 -0.1758  0.8371 -0.1367
 2219SOL     OW 7234   7.251   3.948   4.864  0.1028  0.0674  0.1388
 2219SOL    HW1 7235   7.254   4.039   4.896  1.8116 -0.3980  1.4237
 2219SOL    HW2 7236   7.338   3.932   4.829 -0.3058 -0.9767 -0.4303
 2220SOL     OW 7237   5.596   7.115   0.052  0.0321  0.6055  0.0472
 2220SOL    HW1 7238   5.657   7.114   0.126 -1.8378  0.9191  1.6711
 2220SOL    HW2 7239   5.516   7.154   0.088 -1.2642 -0.1482 -1.8896
 2221SOL     OW 7240   1.908   1.518   2.426 -0.3751 -0.4399 -0.4754
 2221SOL    HW1 7241   1.926   1.504   2.519  1.5472 -0.4673 -0.8160
 2221SOL    HW2 7242   1.964   1.455   2.381  1.0084  1.5662 -1.7284
 2222SOL     OW 7243   5.793   4.067   0.924 -0.1660  0.0370  0.1670
 2222SOL    HW1 7244   5.714   4.034   0.880 -0.6328 -0.1399  1.1249
 2222SOL    HW2 7245   5.786   4.036   1.014  1.5432 -0.9166  0.0159
 2223SOL     OW 7246   3.114   2.709   1.491  0.0669  0.4741  0.2751
 2223SOL    HW1 7247   3.142   2.638   1.549  1.5404 -0.2368 -1.2120
 2223SOL    HW2 7248   3.111   2.786   1.548  0.6945 -0.3394  1.4586
 2224SOL     OW 7249   8.861   2.752   4.610  0.3930 -0.0178  0.1525
 2224SOL    HW1 7250   8.776   2.708   4.604  0.6865 -0.8791  1.8196
 2224SOL    HW2 7251   8.888   2.739   4.701  1.1005  2.5522  0.3612
 2225SOL     OW 7252   0.156   8.943   7.182 -0.0783  1.0568 -0.1225
 2225SOL    HW1 7253   0.235   8.996   7.173  1.0190 -0.2204  1.3009
 2225SOL    HW2 7254   0.125   8.962   7.271 -1.1814  1.2709 -0.5411
 2226SOL     OW 7255   9.336   9.563   2.288  0.0533 -0.4031 -0.3354
 2226SOL    HW1 7256   9.359   9.488   2.232  0.9346 -1.7695  1.7346
 2226SOL    HW2 7257   9.346   9.530   2.377 -0.7739  1.8522  0.6557
 2227SOL     OW 7258   2.227   0.375   0.675  0.2792  0.0424  0.1594
 2227SOL    HW1 7259   2.195   0.339   0.593 -0.5083 -0.7777  0.8060
 2227SOL    HW2 7260   2.154   0.428   0.708  0.9401  1.1752 -0.1200
 2228SOL     OW 7261   0.437   1.060   9.629  0.3520  0.7572 -0.5547
 2228SOL    HW1 7262   0.386   1.015   9.696 -0.8695  0.9477 -1.3141
 2228SOL    HW2 7263   0.503   1.109   9.677 -0.3966  0.7676  0.4883
 2229SOL     OW 7264   1.466   6.955   9.018 -0.2076  0.3183 -0.0538
 2229SOL    HW1 7265   1.464   7.043   9.056 -0.0518 -0.1261  1.0302
 2229SOL    HW2 7266   1.385   6.948   8.968 -1.8064  0.0186  2.4090
 2230SOL     OW 7267   8.990   7.565   0.102 -0.3403  0.1048  0.1849
 2230SOL    HW1 7268   8.993   7.512   0.182  1.9840  1.7378  1.3219
 2230SOL    HW2 7269   8.966   7.653   0.133 -0.5822  0.5133 -1.1060
 2231SOL     OW 7270   5.717   6.572   7.387  0.2158  0.1943 -0.3596
 2231SOL    HW1 7271   5.677   6.486   7.402 -2.3271  1.2611 -0.7033
 2231SOL    HW2 7272   5.683   6.600   7.302  0.4188  1.8579  0.0797
 2232SOL     OW 7273   3.227   0.016   9.944 -0.2515  0.4390 -0.0590
 2232SOL    HW1 7274   3.319  -0.007   9.956 -0.7450 -1.3314  0.6159
 2232SOL    HW2 7275   3.224   0.111   9.956  1.2173  0.3189  1.6305
 2233SOL     OW 7276   9.867   3.563   0.754  0.5195 -0.2929  0.6244
 2233SOL    HW1 7277   9.834   3.583   0.666  0.2578  1.4650  1.0910
 2233SOL    HW2 7278   9.884   3.469   0.752  2.3254 -0.0325 -1.9211
 2234SOL     OW 7279   9.118   6.151   8.388 -0.1426 -0.2933 -0.4266
 2234SOL    HW1 7280   9.103   6.075   8.331 -0.2467 -0.0534 -0.7186
 2234SOL    HW2 7281   9.110   6.227   8.330  2.3439 -0.1393 -0.6513
 2235SOL     OW 7282   6.733   7.577   2.981 -0.2054  0.1800  0.3226
 2235SOL    HW1 7283   6.725   7.654   3.037 -1.1355  0.5224 -0.2480
 2235SOL    HW2 7284   6.653   7.578   2.928 -0.9035 -1.9596  1.2648
 2236SOL     OW 7285   8.219   1.137   8.470 -0.0890  0.2297 -0.0653
 2236SOL    HW1 7286   8.189   1.228   8.475  0.4134  0.3701  0.4302
 2236SOL    HW2 7287   8.149   1.086   8.511 -1.2733  0.1665 -2.0308
 2237SOL     OW 7288   5.630   5.084   3.995  0.0174 -0.3444 -0.3125
 2237SOL    HW1 7289   5.719   5.118   4.007 -0.1390  0.2565 -0.7982
 2237SOL    HW2 7290   5.624   5.062   3.902 -0.5977  0.3886 -0.4579
 2238SOL     OW 7291   6.211   3.096   2.700  0.0538  0.5396  0.4303
 2238SOL    HW1 7292   6.281   3.114   2.637  0.3770 -1.3082  0.2239
 2238SOL    HW2 7293   6.147   3.166   2.686  1.4972  1.8481  0.1130
 2239SOL     OW 7294   1.964   8.950   6.045 -0.0150 -0.0176 -0.0459
 2239SOL    HW1 7295   1.923   9.030   6.078 -0.1063 -0.2313  0.3672
 2239SOL    HW2 7296   1.988   8.971   5.955 -2.2063 -0.2790 -0.7690
 2240SOL     OW 7297   4.082   5.437   1.915  0.0095 -0.0101  0.2878
 2240SOL    HW1 7298   4.131   5.486   1.849  1.2772  0.2552  1.3642
 2240SOL    HW2 7299   4.029   5.503   1.960 -4.8169 -0.7574 -3.4931
 2241SOL     OW 7300   1.343   3.922   6.906  0.4293  0.0040  0.1043
 2241SOL    HW1 7301   1.338   3.999   6.963  1.3976 -0.1985  0.4906
 2241SOL    HW2 7302   1.409   3.866   6.948 -0.4665 -1.1697 -0.0068
 2242SOL     OW 7303   9.802   3.056   4.326 -0.2930  0.0136  0.1217
 2242SOL    HW1 7304   9.736   3.041   4.258  0.1292 -0.9480 -0.0910
 2242SOL    HW2 7305   9.754   3.048   4.408 -0.5325 -0.2326 -0.0416
 2243SOL     OW 7306   4.593   8.479   2.477  0.4106 -0.1915 -0.0617
 2243SOL    HW1 7307   4.569   8.507   2.565 -1.5595 -2.3256  0.1939
 2243SOL    HW2 7308   4.681   8.442   2.486 -0.3028 -1.6708  1.3771
 2244SOL     OW 7309   9.579   3.992   9.954 -0.8850  0.1355  0.5890
 2244SOL    HW1 7310   9.593   4.080   9.989 -0.1786  0.1778  0.2251
 2244SOL    HW2 7311   9.506   4.002   9.893 -0.7676  0.4893  0.5014
 2245SOL     OW 7312   5.443   5.326   3.874 -0.0857 -0.2206 -0.1749
 2245SOL    HW1 7313   5.357   5.293   3.898  0.2264 -1.2556 -0.4155
 2245SOL    HW2 7314   5.427   5.387   3.802 -0.7122  0.4557  0.5174
 2246SOL     OW 7315   8.762   4.378   3.848 -0.1234  0.0491 -0.3190
 2246SOL    HW1 7316   8.685   4.411   3.895  0.1695 -1.7491  1.5727
 2246SOL    HW2 7317   8.829   4.370   3.915  1.7273  1.4332 -1.9139
 2247SOL     OW 7318   1.938   0.573   2.453 -0.3584 -0.1884 -0.5500
 2247SOL    HW1 7319   1.850   0.535   2.447  0.2768 -2.2390  1.4682
 2247SOL    HW2 7320   1.928   0.646   2.515 -0.5378 -0.8052  0.1553
 2248SOL     OW 7321   5.203   2.091   8.800 -0.8112 -0.0136  0.5512
 2248SOL    HW1 7322   5.223   2.005   8.765  0.0595  0.1194  0.7135
 2248SOL    HW2 7323   5.277   2.146   8.776 -0.7922  0.3961  1.4728
 2249SOL     OW 7324   7.343   7.416   0.473  0.0744  0.4689 -0.3332
 2249SOL    HW1 7325   7.433   7.441   0.492 -0.2309  0.8288  0.7050
 2249SOL    HW2 7326   7.340   7.410   0.377  0.7780  2.0912 -0.4979
 2250SOL     OW 7327   6.504   7.134   8.172 -0.5679 -0.1631 -0.3131
 2250SOL    HW1 7328   6.430   7.193   8.160  0.8520  1.7334 -0.1789
 2250SOL    HW2 7329   6.517   7.095   8.086 -1.5530 -0.3491 -0.3954
 2251SOL     OW 7330   8.252   0.296   4.363  0.4528  0.0095 -0.1098
 2251SOL    HW1 7331   8.181   0.233   4.357 -1.2202  1.8983 -1.0538
 2251SOL    HW2 7332   8.274   0.298   4.457 -1.0180 -0.3264  0.2671
 2252SOL     OW 7333   1.039   1.808   1.689  0.3674 -0.2681 -0.5187
 2252SOL    HW1 7334   1.086   1.726   1.677  0.2053 -0.5138  0.4247
 2252SOL    HW2 7335   0.947   1.782   1.699 -0.0803  0.2450 -2.8440
 2253SOL     OW 7336   2.946   4.134   7.119  0.3003 -0.3354  0.1732
 2253SOL    HW1 7337   3.013   4.198   7.096 -1.5831  1.5027 -0.4519
 2253SOL    HW2 7338   2.920   4.156   7.208 -1.0797  0.4528 -0.4131
 2254SOL     OW 7339   4.670   0.142   3.161 -0.1502 -0.8701  0.9574
 2254SOL    HW1 7340   4.589   0.131   3.211  0.4381 -1.0011  1.9296
 2254SOL    HW2 7341   4.737   0.157   3.228  0.3507  1.1271  0.0914
 2255SOL     OW 7342   0.086   6.784   1.499  0.5617  0.6805 -0.0441
 2255SOL    HW1 7343  -0.007   6.782   1.475  0.4976  2.6434 -0.1515
 2255SOL    HW2 7344   0.110   6.692   1.509 -1.8969  0.1377  2.0180
 2256SOL     OW 7345   6.007   4.443   6.081  0.1738  0.6988  0.2816
 2256SOL    HW1 7346   6.018   4.348   6.077 -1.0986  0.4674  1.4979
 2256SOL    HW2 7347   6.047   4.476   6.000  1.0458 -0.8144  0.0681
 2257SOL     OW 7348   0.637   5.544   6.753  0.2744  0.3513 -0.1251
 2257SOL    HW1 7349   0.586   5.537   6.834  1.1963 -0.6107  0.3903
 2257SOL    HW2 7350   0.571   5.559   6.685 -1.3558 -4.7398 -0.1262
 2258SOL     OW 7351   8.683   6.621   6.152 -0.6033  0.1996  0.3072
 2258SOL    HW1 7352   8.675   6.587   6.063 -1.6286  0.3234  0.3477
 2258SOL    HW2 7353   8.657   6.547   6.208  0.1058  0.0990  0.5103
 2259SOL     OW 7354   7.379   4.191   3.407  0.9182  0.4286 -0.6129
 2259SOL    HW1 7355   7.294   4.160   3.440  0.5558 -0.8298 -2.5423
 2259SOL    HW2 7356   7.371   4.184   3.311  3.3540 -0.1663 -0.8301
 2260SOL     OW 7357   1.191   0.903   7.805  0.0564 -0.1574  0.8232
 2260SOL    HW1 7358   1.113   0.957   7.817 -1.2236 -2.0418  1.3183
 2260SOL    HW2 7359   1.242   0.950   7.739 -1.0558  1.5748  1.1274
 2261SOL     OW 7360   7.308   9.435   5.707 -0.6321  0.1409  0.2065
 2261SOL    HW1 7361   7.381   9.443   5.646  1.3242 -1.4846  2.1628
 2261SOL    HW2 7362   7.230   9.442   5.652  0.9730 -1.8670 -2.5996
 2262SOL     OW 7363   9.075   8.341   2.150 -0.0750 -0.0176  0.1401
 2262SOL    HW1 7364   8.996   8.331   2.202 -1.4627 -2.1021 -2.1208
 2262SOL    HW2 7365   9.066   8.426   2.108 -0.1930  0.5437  1.2758
 2263SOL     OW 7366   4.820   4.959   2.999 -0.1743  0.2689  0.5071
 2263SOL    HW1 7367   4.745   4.971   2.940  1.0198 -0.3794 -1.2243
 2263SOL    HW2 7368   4.850   5.048   3.018  0.6365  0.5064 -1.5736
 2264SOL     OW 7369   8.262   5.005   0.605  0.1659 -0.0397  0.9457
 2264SOL    HW1 7370   8.311   4.968   0.532  0.6141 -0.5146  1.4745
 2264SOL    HW2 7371   8.289   5.096   0.609  0.5822 -0.1577  0.8794
 2265SOL     OW 7372   1.572   3.711   1.630  0.2731  0.0153 -0.2009
 2265SOL    HW1 7373   1.478   3.695   1.622  0.2342  0.6575 -1.2945
 2265SOL    HW2 7374   1.578   3.796   1.673  0.4516 -1.6522  3.4783
 2266SOL     OW 7375   1.448   9.482   4.957 -0.4447 -0.3845 -0.3138
 2266SOL    HW1 7376   1.534   9.523   4.958 -0.0650 -1.1169 -1.1771
 2266SOL    HW2 7377   1.428   9.467   5.049 -0.1041  0.7070 -0.0495
 2267SOL     OW 7378   8.945   8.647   6.637  0.2206 -0.1960  0.3942
 2267SOL    HW1 7379   8.947   8.717   6.571 -3.9289 -1.3836 -1.2905
 2267SOL    HW2 7380   9.015   8.587   6.609 -1.1907 -0.5340 -2.9561
 2268SOL     OW 7381   0.337   5.726   9.052  0.1603  0.6821  0.4176
 2268SOL    HW1 7382   0.394   5.741   9.128  0.0812  1.4117  0.3430
 2268SOL    HW2 7383   0.396   5.724   8.977  0.6257 -2.8679  0.6892
 2269SOL     OW 7384   9.799   9.241   5.395  0.3591 -0.1867 -0.4496
 2269SOL    HW1 7385   9.743   9.305   5.441  0.1398  1.0626 -2.3667
 2269SOL    HW2 7386   9.745   9.210   5.322  0.3339 -2.8991  0.6075
 2270SOL     OW 7387   2.667   0.356   4.173  0.2628  0.3339 -0.3797
 2270SOL    HW1 7388   2.728   0.309   4.116  2.4899  1.1934  1.1189
 2270SOL    HW2 7389   2.628   0.422   4.116  0.6539 -0.3100 -1.4290
 2271SOL     OW 7390   5.450   5.436   1.251 -0.4512 -0.0317  0.0417
 2271SOL    HW1 7391   5.429   5.481   1.169  0.2165 -1.0339 -0.7090
 2271SOL    HW2 7392   5.366   5.422   1.294 -1.3106 -2.7382 -2.2159
 2272SOL     OW 7393   3.116   0.299   9.083 -0.1444  0.5081  0.0290
 2272SOL    HW1 7394   3.064   0.256   9.151 -0.9739  1.5585  0.0870
 2272SOL    HW2 7395   3.095   0.392   9.092 -0.7027  0.6183 -2.0288
 2273SOL     OW 7396   7.668   7.666   4.515  0.0163  0.0755  0.3358
 2273SOL    HW1 7397   7.575   7.652   4.537 -0.0109 -0.1925  0.0583
 2273SOL    HW2 7398   7.670   7.664   4.419  0.4094 -0.5964  0.3522
 2274SOL     OW 7399   3.316   9.966   3.399 -0.4322  0.4601 -0.4978
 2274SOL    HW1 7400   3.364   9.975   3.316 -1.4490 -0.0527 -1.1646
 2274SOL    HW2 7401   3.233   9.925   3.374  0.3235 -2.3534  1.1232
 2275SOL     OW 7402   9.928   7.383   7.420  0.5725 -0.0929 -0.4577
 2275SOL    HW1 7403  10.005   7.433   7.448  0.6485  1.4938 -3.1743
 2275SOL    HW2 7404   9.963   7.303   7.381  0.6151 -0.8669  1.0894
 2276SOL     OW 7405   3.193   5.597   0.927  0.1028 -0.0276  0.1041
 2276SOL    HW1 7406   3.154   5.641   0.851  0.9027 -1.6020 -1.2535
 2276SOL    HW2 7407   3.145   5.634   1.002 -1.3860  0.8551 -1.2120
 2277SOL     OW 7408   3.857   6.443   2.379 -0.3649 -0.1708  0.2773
 2277SOL    HW1 7409   3.876   6.491   2.459 -1.9213 -0.2618  0.7398
 2277SOL    HW2 7410   3.778   6.392   2.399 -1.1546  0.2607 -1.4704
 2278SOL     OW 7411   2.163   0.418   7.418 -0.3487  0.6781  0.0760
 2278SOL    HW1 7412   2.148   0.469   7.339 -0.2372 -0.5761 -0.7909
 2278SOL    HW2 7413   2.130   0.331   7.397  1.2396 -0.1495  0.7981
 2279SOL     OW 7414   4.760   3.707   7.203 -0.2997  0.6339  0.0203
 2279SOL    HW1 7415   4.708   3.761   7.262 -1.6507 -0.3357 -0.2335
 2279SOL    HW2 7416   4.695   3.658   7.152  0.8368  1.0256 -1.8817
 2280SOL     OW 7417   0.675   8.177   4.738 -0.1121 -0.3518 -0.1474
 2280SOL    HW1 7418   0.751   8.204   4.790  0.3388  2.1048 -1.9027
 2280SOL    HW2 7419   0.644   8.097   4.781  2.9205 -0.9818  1.1634
 2281SOL     OW 7420   7.831   9.879   0.560 -0.2355  0.3091 -0.1868
 2281SOL    HW1 7421   7.804   9.960   0.518  1.6001  0.9859 -0.1252
 2281SOL    HW2 7422   7.913   9.900   0.605  0.9201 -1.8320 -1.1264
 2282SOL     OW 7423   3.188   8.596   5.260 -1.0231 -0.5862 -0.3725
 2282SOL    HW1 7424   3.166   8.632   5.347  2.1956 -0.3886  0.4944
 2282SOL    HW2 7425   3.189   8.501   5.273 -0.8023 -0.5686 -0.2503
 2283SOL     OW 7426   4.788   9.508   1.473  0.6181  0.2219  0.1677
 2283SOL    HW1 7427   4.852   9.574   1.449  0.6021  0.4344  0.7050
 2283SOL    HW2 7428   4.747   9.541   1.553 -0.5550  0.3632 -0.4689
 2284SOL     OW 7429   4.858   3.947   7.026  0.1379 -0.1386 -0.2030
 2284SOL    HW1 7430   4.846   3.998   7.106 -1.8529 -2.3469  1.0233
 2284SOL    HW2 7431   4.888   3.861   7.056  2.7084 -0.0467 -2.1417
 2285SOL     OW 7432   7.989   9.649   9.512 -0.2597 -0.3877  0.2483
 2285SOL    HW1 7433   8.032   9.593   9.448  0.5458 -1.0036  1.2888
 2285SOL    HW2 7434   7.977   9.593   9.589  1.1605  1.0116  1.5586
 2286SOL     OW 7435   1.545   2.183   4.166  0.0177  0.3585 -0.3242
 2286SOL    HW1 7436   1.557   2.275   4.143 -1.3469 -0.0973 -3.3067
 2286SOL    HW2 7437   1.457   2.179   4.203 -0.2415  0.1551 -0.9525
 2287SOL     OW 7438   6.484   3.312   1.223  0.3981 -0.2498  0.1095
 2287SOL    HW1 7439   6.520   3.391   1.182  0.1947  0.0505  0.5037
 2287SOL    HW2 7440   6.399   3.339   1.257 -0.0377 -0.8567 -0.4742
 2288SOL     OW 7441   9.251   7.554   8.715  0.1148  0.0763  0.0432
 2288SOL    HW1 7442   9.184   7.556   8.783 -0.5060  1.1436 -0.5663
 2288SOL    HW2 7443   9.203   7.540   8.634  0.9423 -2.1663 -0.1188
 2289SOL     OW 7444   8.315   0.006   2.375  0.2320  0.0578  0.2796
 2289SOL    HW1 7445   8.243  -0.011   2.314  2.0721 -1.9175 -1.5013
 2289SOL    HW2 7446   8.392   0.019   2.319  1.3581  1.9007  2.1198
 2290SOL     OW 7447   7.824   8.674   2.040  0.1187 -0.5512  0.5676
 2290SOL    HW1 7448   7.818   8.597   1.984  2.1973  0.1693 -0.7456
 2290SOL    HW2 7449   7.918   8.690   2.049 -0.2323  0.8935  2.1476
 2291SOL     OW 7450   1.727   1.083   1.064 -0.5982  0.1559  0.8623
 2291SOL    HW1 7451   1.641   1.050   1.036  0.1111 -0.8981 -0.1692
 2291SOL    HW2 7452   1.738   1.050   1.153 -0.0320 -2.2389 -0.0366
 2292SOL     OW 7453   5.055   1.297   2.430 -0.0247 -0.9409 -0.6066
 2292SOL    HW1 7454   5.039   1.390   2.411 -1.8236 -1.0694  0.1109
 2292SOL    HW2 7455   5.150   1.289   2.428  0.3520  1.4665  1.7212
 2293SOL     OW 7456   9.015   1.168   7.432  0.2044 -0.0374 -0.2990
 2293SOL    HW1 7457   8.980   1.089   7.391 -0.2342 -0.7017  1.2865
 2293SOL    HW2 7458   8.942   1.202   7.484  0.2869  1.6015 -1.1943
 2294SOL     OW 7459   5.679   5.674   3.835 -0.0634  0.1109 -0.2662
 2294SOL    HW1 7460   5.685   5.764   3.804 -0.2081 -0.3499 -1.7103
 2294SOL    HW2 7461   5.607   5.676   3.899  1.3969  1.4308  1.4427
 2295SOL     OW 7462   5.649   2.868   4.141 -0.0405 -0.0609 -0.1830
 2295SOL    HW1 7463   5.708   2.943   4.142  1.4009 -1.1285  0.7769
 2295SOL    HW2 7464   5.624   2.858   4.049 -0.1958  1.5208 -0.3342
 2296SOL     OW 7465   1.314   3.790   6.523 -0.6682 -0.3621  0.6790
 2296SOL    HW1 7466   1.392   3.805   6.577 -0.4530 -1.8252  0.8436
 2296SOL    HW2 7467   1.342   3.723   6.460 -1.6389 -0.5104  0.3919
 2297SOL     OW 7468   1.682   6.026   3.536  0.3254 -0.1173 -0.4391
 2297SOL    HW1 7469   1.627   6.024   3.615 -0.4675 -1.6871 -0.9774
 2297SOL    HW2 7470   1.761   5.978   3.560 -0.0466 -0.8582 -0.6756
 2298SOL     OW 7471   7.878   1.560   8.201  0.3055 -0.3757  0.2969
 2298SOL    HW1 7472   7.816   1.502   8.246  0.8163 -0.4842  0.8712
 2298SOL    HW2 7473   7.840   1.573   8.114 -1.1881  0.5814  1.0358
 2299SOL     OW 7474   5.748   1.007   6.261 -0.2272 -0.2699  0.0342
 2299SOL    HW1 7475   5.820   0.991   6.199  2.1532  0.1107  2.4904
 2299SOL    HW2 7476   5.738   0.925   6.308 -2.4700 -0.7638 -1.1876
 2300SOL     OW 7477   3.683   9.776   9.187  0.1716 -0.5732  0.6277
 2300SOL    HW1 7478   3.621   9.848   9.175  1.0014  0.4869  2.2271
 2300SOL    HW2 7479   3.695   9.740   9.100  0.4656  1.9091 -0.4471
 2301SOL     OW 7480   4.731   2.793   6.715 -0.0430  0.2110  0.0944
 2301SOL    HW1 7481   4.760   2.845   6.790 -1.6611  1.7982 -0.3227
 2301SOL    HW2 7482   4.811   2.776   6.665  0.8546  0.2816  1.4571
 2302SOL     OW 7483   4.857   8.428   2.495  0.7980  0.5480  0.9403
 2302SOL    HW1 7484   4.890   8.366   2.561 -0.3384 -1.7459 -0.4930
 2302SOL    HW2 7485   4.870   8.383   2.411 -1.9998  1.2963 -0.0106
 2303SOL     OW 7486   7.452   5.833   0.653 -0.3809 -0.0576 -0.0003
 2303SOL    HW1 7487   7.445   5.771   0.581 -0.0693  1.9115 -1.8575
 2303SOL    HW2 7488   7.541   5.822   0.686 -0.4797 -0.8855  0.0073
 2304SOL     OW 7489   4.582   2.922   1.804  0.0715 -0.1845 -0.1496
 2304SOL    HW1 7490   4.526   2.984   1.851 -0.0176 -0.5796  0.2778
 2304SOL    HW2 7491   4.594   2.960   1.717  0.9449  0.9847  0.4677
 2305SOL     OW 7492   4.706   1.138   0.194 -0.1765  0.6770 -0.5335
 2305SOL    HW1 7493   4.725   1.086   0.116  1.7283  0.7377 -0.1503
 2305SOL    HW2 7494   4.611   1.134   0.203 -0.2827 -0.6495 -1.9407
 2306SOL     OW 7495   6.701   6.806   6.420  0.6833  0.2730 -0.7215
 2306SOL    HW1 7496   6.774   6.756   6.458  0.3601  1.1569  1.2188
 2306SOL    HW2 7497   6.736   6.894   6.410  0.2271  0.4353 -0.8992
 2307SOL     OW 7498   5.809   4.261   6.665 -0.1149  0.2572  0.0744
 2307SOL    HW1 7499   5.770   4.174   6.657  1.0337 -0.3062  0.4606
 2307SOL    HW2 7500   5.825   4.272   6.759 -2.5144  1.9284  0.3860
 2308SOL     OW 7501   9.906   4.475   2.665  0.4236 -0.1806 -0.3159
 2308SOL    HW1 7502   9.811   4.483   2.672  0.3911  0.7541 -1.4432
 2308SOL    HW2 7503   9.940   4.516   2.745 -0.0953  1.2866 -0.8144
 2309SOL     OW 7504   7.303   0.910   6.835  0.5425  0.0247 -0.3950
 2309SOL    HW1 7505   7.314   0.856   6.757  0.6560 -0.2348 -0.2021
 2309SOL    HW2 7506   7.391   0.921   6.869  0.5016  0.2050 -0.3497
 2310SOL     OW 7507   6.523   7.524   3.345 -0.7174 -0.5920  0.0290
 2310SOL    HW1 7508   6.558   7.466   3.413  0.1758 -2.8324 -2.1952
 2310SOL    HW2 7509   6.440   7.555   3.380 -0.0180 -1.1620  2.3555
 2311SOL     OW 7510   2.128   9.152   4.641  0.1059  0.1702 -1.4227
 2311SOL    HW1 7511   2.122   9.146   4.545 -1.2052  1.5050 -1.4502
 2311SOL    HW2 7512   2.207   9.203   4.657  1.1641 -1.3004 -1.7082
 2312SOL     OW 7513   8.754   2.120   9.624 -0.3721  1.0007 -0.1850
 2312SOL    HW1 7514   8.677   2.082   9.581 -0.4476  0.6009  0.2962
 2312SOL    HW2 7515   8.752   2.213   9.598 -2.6798  1.7083  2.0963
 2313SOL     OW 7516   5.396   8.647   9.318  0.0690  0.9427 -0.1781
 2313SOL    HW1 7517   5.313   8.617   9.280 -1.5756  2.0127  2.3195
 2313SOL    HW2 7518   5.405   8.737   9.286  0.1692  0.8983 -0.2748
 2314SOL     OW 7519   3.111   4.756   6.494 -0.0073  0.1670 -0.5951
 2314SOL    HW1 7520   3.025   4.716   6.512  0.0723  1.4964  4.1663
 2314SOL    HW2 7521   3.093   4.822   6.427 -2.6216  0.0555 -0.1073
 2315SOL     OW 7522   3.955   0.500   0.855  0.8099 -0.6168 -0.0729
 2315SOL    HW1 7523   3.888   0.567   0.841 -0.3464 -2.0811 -2.1053
 2315SOL    HW2 7524   4.037   0.545   0.836  0.2042  0.6357  0.1803
 2316SOL     OW 7525   4.653   6.079   4.767  0.2118  0.5578 -0.0588
 2316SOL    HW1 7526   4.651   5.992   4.806 -2.4948  0.9046  0.7774
 2316SOL    HW2 7527   4.628   6.065   4.675 -0.6323  0.4657  0.1760
 2317SOL     OW 7528   5.581   0.297   5.686  0.7112  0.1114 -0.1411
 2317SOL    HW1 7529   5.660   0.277   5.635  1.2892 -0.2601  0.8624
 2317SOL    HW2 7530   5.573   0.393   5.681  0.3729  0.0328 -1.4552
 2318SOL     OW 7531   1.488   3.447   7.835  0.9903 -0.2606 -0.3129
 2318SOL    HW1 7532   1.561   3.391   7.810  0.5772 -0.8926 -0.1375
 2318SOL    HW2 7533   1.494   3.454   7.930  0.9229 -0.1752 -0.3145
 2319SOL     OW 7534   4.094   1.586   8.417 -0.0379 -0.5360  0.3077
 2319SOL    HW1 7535   4.010   1.627   8.395 -0.6244 -1.6965  0.2996
 2319SOL    HW2 7536   4.130   1.641   8.486  0.4874  1.5368 -1.4876
 2320SOL     OW 7537   0.110   1.193   0.553  0.0300 -0.3788 -0.9107
 2320SOL    HW1 7538   0.194   1.216   0.512  0.8921  0.6687  1.3182
 2320SOL    HW2 7539   0.123   1.209   0.646 -2.7458  0.0615 -0.5179
 2321SOL     OW 7540   3.321   3.797   3.133 -0.7454  0.3597 -0.2976
 2321SOL    HW1 7541   3.299   3.714   3.090 -0.8216  0.3001 -0.1442
 2321SOL    HW2 7542   3.387   3.773   3.198 -1.4860  0.2539  0.4306
 2322SOL     OW 7543   9.506   0.839   4.423  0.5414  0.4895  0.0030
 2322SOL    HW1 7544   9.502   0.909   4.358  1.0233 -0.1637 -0.7558
 2322SOL    HW2 7545   9.528   0.760   4.372  3.0240  0.3075  1.1802
 2323SOL     OW 7546   8.058   3.754   1.958 -0.4013 -0.1619 -0.2114
 2323SOL    HW1 7547   8.067   3.668   1.916 -0.6824 -0.6122  0.6293
 2323SOL    HW2 7548   8.121   3.752   2.030 -0.5522  0.2579 -0.0676
 2324SOL     OW 7549   1.420   3.674   2.304 -0.2626 -0.2959  0.7506
 2324SOL    HW1 7550   1.425   3.711   2.392  1.9359 -0.9007  0.9258
 2324SOL    HW2 7551   1.331   3.695   2.275 -0.3469  1.8086  2.2626
 2325SOL     OW 7552   6.606   7.151   5.274  0.1384  0.4112  0.7788
 2325SOL    HW1 7553   6.562   7.233   5.297  0.8930  1.0753 -0.0521
 2325SOL    HW2 7554   6.647   7.169   5.189  0.3595 -0.8178  0.6019
 2326SOL     OW 7555   7.268   8.949   5.642  0.0661  0.3611  0.0583
 2326SOL    HW1 7556   7.198   8.974   5.702 -0.2340 -1.2861  0.4516
 2326SOL    HW2 7557   7.248   8.996   5.561 -1.6935 -0.2923  0.0602
 2327SOL     OW 7558   3.039   3.474   0.092 -0.2295 -0.4471 -0.4571
 2327SOL    HW1 7559   3.130   3.467   0.061  1.2206  0.0367  3.2241
 2327SOL    HW2 7560   3.022   3.568   0.095 -0.6305 -0.5176 -0.5301
 2328SOL     OW 7561   8.721   2.208   2.764  0.3299 -0.1578  0.3778
 2328SOL    HW1 7562   8.709   2.159   2.845  0.3565 -2.1605 -0.7476
 2328SOL    HW2 7563   8.807   2.182   2.732 -0.4161 -0.8771 -1.1877
 2329SOL     OW 7564   1.647   4.152   5.371 -0.1260  0.2253 -0.0680
 2329SOL    HW1 7565   1.692   4.234   5.354 -0.5992  0.3027 -1.0094
 2329SOL    HW2 7566   1.578   4.148   5.304 -0.4296 -0.6936  0.2819
 2330SOL     OW 7567   2.432   9.241   4.961  0.1715  1.0694 -0.0771
 2330SOL    HW1 7568   2.412   9.242   5.055  1.1728 -2.1614  0.3032
 2330SOL    HW2 7569   2.484   9.162   4.949  0.7131  1.7833 -3.2828
 2331SOL     OW 7570   1.564   9.299   9.123  0.2213  0.2931 -0.3169
 2331SOL    HW1 7571   1.629   9.310   9.054 -1.3655  1.1617 -1.7564
 2331SOL    HW2 7572   1.594   9.223   9.173  2.1687  0.5201 -1.0802
 2332SOL     OW 7573   8.253   0.076   3.848 -0.2100  0.6967  0.2068
 2332SOL    HW1 7574   8.240  -0.019   3.853 -0.1669  0.6540 -0.4293
 2332SOL    HW2 7575   8.187   0.112   3.907 -0.8693  0.3083 -0.2680
 2333SOL     OW 7576   4.954   9.747   5.015  0.3119  0.0740 -0.2177
 2333SOL    HW1 7577   4.917   9.672   4.967 -0.9378 -0.1857  1.0672
 2333SOL    HW2 7578   4.984   9.709   5.098  2.2526  0.5449 -0.6632
 2334SOL     OW 7579   8.790   4.025   4.151 -0.2747 -0.4573  0.0387
 2334SOL    HW1 7580   8.835   4.105   4.181  1.4079 -1.2063 -0.3394
 2334SOL    HW2 7581   8.811   3.959   4.217 -2.8770 -0.2995  1.1342
 2335SOL     OW 7582   3.644   7.849   7.822 -0.4567 -0.8330 -0.5643
 2335SOL    HW1 7583   3.637   7.764   7.779  0.1252 -0.3464 -1.6745
 2335SOL    HW2 7584   3.564   7.895   7.797 -0.3276 -0.7126 -0.7590
 2336SOL     OW 7585   3.719   8.254   6.205 -0.0317  0.4120  0.7027
 2336SOL    HW1 7586   3.774   8.319   6.161  2.3873 -1.8594  0.0762
 2336SOL    HW2 7587   3.742   8.261   6.297  1.0627 -0.2197  0.4989
 2337SOL     OW 7588   6.073   6.673   0.061 -0.0499  0.3369  0.0779
 2337SOL    HW1 7589   6.112   6.710  -0.018  0.5690 -2.0509 -0.8400
 2337SOL    HW2 7590   6.023   6.597   0.030 -0.6826 -0.0357  1.8734
 2338SOL     OW 7591   9.619   3.067   4.526  0.4947  0.6598 -0.2468
 2338SOL    HW1 7592   9.634   3.013   4.603  2.1523 -0.4166 -1.2698
 2338SOL    HW2 7593   9.525   3.084   4.527  0.2856 -0.3501  1.3298
 2339SOL     OW 7594   6.785   9.829   0.198 -0.0815 -0.0761  0.6387
 2339SOL    HW1 7595   6.803   9.743   0.159  1.6639  0.0927  0.9971
 2339SOL    HW2 7596   6.868   9.856   0.236 -0.6905  1.6383  0.8347
 2340SOL     OW 7597   6.524   4.026   5.348  0.2940  0.1278 -0.0385
 2340SOL    HW1 7598   6.580   3.964   5.302 -0.0392 -1.2243  1.2888
 2340SOL    HW2 7599   6.446   4.033   5.293 -0.0452 -1.3577  0.2168
 2341SOL     OW 7600   5.185   1.249   9.617 -0.0149 -0.6652 -0.0496
 2341SOL    HW1 7601   5.198   1.191   9.542  3.0090  2.2539 -2.0540
 2341SOL    HW2 7602   5.265   1.238   9.669 -0.3128  0.1913  0.6095
 2342SOL     OW 7603   1.329   2.139   5.620 -0.4159  0.0215 -0.3957
 2342SOL    HW1 7604   1.356   2.053   5.651 -2.8259 -0.7676 -0.2987
 2342SOL    HW2 7605   1.288   2.180   5.696  1.2275  1.5566 -0.2690
 2343SOL     OW 7606   8.665   4.117   8.233  0.5405 -0.0341 -0.0112
 2343SOL    HW1 7607   8.592   4.121   8.296  1.1801 -2.0008  0.9113
 2343SOL    HW2 7608   8.626   4.083   8.153  0.0628  0.8713 -0.1809
 2344SOL     OW 7609   8.643   2.155   4.201  0.5230  0.0066 -0.2901
 2344SOL    HW1 7610   8.592   2.184   4.276 -1.1283  1.0246 -1.7061
 2344SOL    HW2 7611   8.717   2.108   4.238 -0.5648 -0.0785  1.9227
 2345SOL     OW 7612   3.093   6.535   1.402  0.3114 -0.5821  0.9902
 2345SOL    HW1 7613   3.179   6.494   1.395  1.0923  0.9414  1.1677
 2345SOL    HW2 7614   3.061   6.511   1.489  0.7638 -0.7832  1.1002
 2346SOL     OW 7615   5.475   8.359   1.948  0.3387  0.0046  0.1482
 2346SOL    HW1 7616   5.476   8.278   2.000 -1.8462 -0.2443 -0.1022
 2346SOL    HW2 7617   5.452   8.428   2.011 -0.8179 -0.0664 -0.1769
 2347SOL     OW 7618   9.624   5.798   6.971 -0.5703 -0.4046 -0.3916
 2347SOL    HW1 7619   9.693   5.739   6.943 -1.6009 -1.7920 -0.1171
 2347SOL    HW2 7620   9.611   5.778   7.064 -1.6351 -0.4956 -0.5425
 2348SOL     OW 7621   2.063   4.551   6.098 -0.5319 -0.5742 -0.1185
 2348SOL    HW1 7622   2.056   4.645   6.116 -1.4082 -0.2734 -1.8318
 2348SOL    HW2 7623   2.027   4.541   6.010 -0.7078 -2.5734  0.1451
 2349SOL     OW 7624   3.021   4.542   7.630 -0.0843  0.2274 -0.4533
 2349SOL    HW1 7625   3.039   4.541   7.536  0.7197 -0.6516 -0.3007
 2349SOL    HW2 7626   3.048   4.629   7.659 -1.1776  0.8322 -1.1819
 2350SOL     OW 7627   2.122   2.740   9.650  0.7419 -0.2554 -0.2679
 2350SOL    HW1 7628   2.180   2.802   9.694  3.1635 -0.8835 -2.3275
 2350SOL    HW2 7629   2.046   2.792   9.623  1.1652  1.0132  0.9110
 2351SOL     OW 7630   3.201   6.308   5.967 -0.2881  0.4970 -0.1030
 2351SOL    HW1 7631   3.108   6.319   5.989 -0.2045  0.2409  0.3974
 2351SOL    HW2 7632   3.245   6.378   6.015 -0.2247  0.6456 -0.3755
 2352SOL     OW 7633   0.817   2.930   7.600  0.0971  0.7123  0.0291
 2352SOL    HW1 7634   0.887   2.929   7.535  0.2229 -0.1416  0.1638
 2352SOL    HW2 7635   0.782   3.019   7.596  0.4902  0.8439 -0.7852
 2353SOL     OW 7636   7.903   2.796   9.115  0.2470  0.1134 -0.3107
 2353SOL    HW1 7637   7.965   2.760   9.179  0.7571  0.7711 -0.4211
 2353SOL    HW2 7638   7.819   2.758   9.139  0.4455  0.2845  0.6928
 2354SOL     OW 7639   6.599   1.741   3.314  0.5379 -0.4722  0.3113
 2354SOL    HW1 7640   6.548   1.801   3.258  0.4434 -1.2074 -0.4112
 2354SOL    HW2 7641   6.539   1.718   3.384  0.2373 -0.4795  0.0568
 2355SOL     OW 7642   1.531   3.881   6.706 -0.1838  0.1096 -0.5429
 2355SOL    HW1 7643   1.467   3.887   6.778  0.1157  0.1035 -0.2724
 2355SOL    HW2 7644   1.603   3.831   6.743 -0.3970 -0.6323 -1.1279
 2356SOL     OW 7645   7.378   8.279   3.631  0.0878 -0.0260 -0.0502
 2356SOL    HW1 7646   7.305   8.219   3.618  0.1936 -0.0752 -0.4276
 2356SOL    HW2 7647   7.454   8.222   3.640  0.2901  0.0640 -1.0874
 2357SOL     OW 7648   6.491   5.198   9.728  0.7144 -0.1787 -0.2415
 2357SOL    HW1 7649   6.446   5.113   9.730 -0.5612  0.4676  1.1834
 2357SOL    HW2 7650   6.427   5.259   9.766  1.2655  1.6012 -2.0504
 2358SOL     OW 7651   8.062   2.887   9.778 -0.4768 -0.3732  0.1683
 2358SOL    HW1 7652   8.068   2.889   9.874  1.2670 -0.5763  0.0984
 2358SOL    HW2 7653   8.008   2.810   9.759  0.3683 -1.1891  0.9709
 2359SOL     OW 7654   0.702   3.529   8.137 -0.1775  0.0707 -0.0751
 2359SOL    HW1 7655   0.793   3.558   8.144  0.1455 -1.2608  2.4953
 2359SOL    HW2 7656   0.706   3.454   8.078  0.0923  0.9382 -1.2050
 2360SOL     OW 7657   1.524   8.394   5.087 -0.3622 -0.4770  0.5876
 2360SOL    HW1 7658   1.534   8.377   5.181 -1.0953 -1.6044  0.4841
 2360SOL    HW2 7659   1.525   8.490   5.080 -1.8215 -0.3115  1.9467
 2361SOL     OW 7660   0.894   9.215   6.936  0.0892 -0.2241  0.0408
 2361SOL    HW1 7661   0.833   9.207   7.009  1.6043  0.3014  1.3986
 2361SOL    HW2 7662   0.840   9.248   6.864 -1.6676 -1.7881  0.5626
 2362SOL     OW 7663   2.724   5.198   8.410  0.5331 -0.2590 -0.0376
 2362SOL    HW1 7664   2.721   5.222   8.318 -1.1803 -1.1609 -0.2608
 2362SOL    HW2 7665   2.696   5.277   8.457 -0.0547 -0.2362 -0.4129
 2363SOL     OW 7666   6.832   4.951   2.530  0.4486  0.5965 -0.2153
 2363SOL    HW1 7667   6.779   4.996   2.464 -1.5055 -1.2587 -0.0239
 2363SOL    HW2 7668   6.890   4.895   2.479 -0.5718 -0.3134 -0.4094
 2364SOL     OW 7669   0.599   2.622   0.840  0.2294  0.0600 -0.1368
 2364SOL    HW1 7670   0.667   2.688   0.855  1.9786 -1.7574  0.2633
 2364SOL    HW2 7671   0.634   2.567   0.770 -2.0208  0.5917 -1.7797
 2365SOL     OW 7672   4.680   3.258   7.075 -0.5150 -0.5243  0.6509
 2365SOL    HW1 7673   4.600   3.304   7.102 -1.0958 -1.9167  1.3866
 2365SOL    HW2 7674   4.683   3.180   7.131  0.3911 -1.4243 -0.5957
 2366SOL     OW 7675   2.636   7.292   0.895 -0.6780  0.2532  0.3645
 2366SOL    HW1 7676   2.595   7.294   0.981 -0.2271 -0.7694  0.6174
 2366SOL    HW2 7677   2.703   7.224   0.902 -1.0484 -0.2717 -0.9791
 2367SOL     OW 7678   9.425   7.339   8.754 -0.2642 -0.5671  0.3107
 2367SOL    HW1 7679   9.436   7.319   8.661 -0.4107  2.3225 -0.4177
 2367SOL    HW2 7680   9.366   7.415   8.756  0.9351  0.4102  2.6607
 2368SOL     OW 7681   2.145   9.935   6.435 -0.3188 -0.2051 -0.4599
 2368SOL    HW1 7682   2.140   9.879   6.357 -0.3909  0.1737 -0.7312
 2368SOL    HW2 7683   2.236   9.931   6.462 -0.1584  0.1411 -0.9256
 2369SOL     OW 7684   6.656   6.499   2.918 -0.4436 -0.8744 -0.0388
 2369SOL    HW1 7685   6.607   6.463   2.844  1.5930 -1.1940 -1.2989
 2369SOL    HW2 7686   6.690   6.582   2.887 -1.4275  0.1047  1.3677
 2370SOL     OW 7687   3.986   8.994   7.593  0.2082  0.1997  0.0643
 2370SOL    HW1 7688   3.977   8.974   7.687 -0.8015  1.0752  0.1687
 2370SOL    HW2 7689   3.973   9.088   7.588 -2.1009 -0.1181 -1.2144
 2371SOL     OW 7690   0.932   3.676   8.176 -0.7149  0.1241 -0.1519
 2371SOL    HW1 7691   0.959   3.747   8.118 -2.5718  0.6804 -0.3987
 2371SOL    HW2 7692   0.924   3.718   8.262  2.0581 -0.7020  0.5926
 2372SOL     OW 7693   8.685   2.570   2.022  0.4478  0.3594  0.4008
 2372SOL    HW1 7694   8.772   2.536   2.001  0.9480  1.9476 -0.2993
 2372SOL    HW2 7695   8.702   2.639   2.087 -0.3968  0.0949  0.9176
 2373SOL     OW 7696   1.364   1.055   5.433 -0.1252  0.3900 -0.7997
 2373SOL    HW1 7697   1.439   1.069   5.375  1.0663  2.1322  0.9991
 2373SOL    HW2 7698   1.390   0.982   5.489  0.1108  0.7447 -0.4322
 2374SOL     OW 7699   8.032   0.161   7.158  0.3906  0.0899 -0.9415
 2374SOL    HW1 7700   8.103   0.150   7.221  0.5201  0.7395 -0.9660
 2374SOL    HW2 7701   8.076   0.164   7.073  0.2005 -0.9822 -1.0931
 2375SOL     OW 7702   8.328   2.219   0.401  0.0490 -0.1097 -0.1122
 2375SOL    HW1 7703   8.247   2.214   0.350  0.2238 -0.7042 -0.3385
 2375SOL    HW2 7704   8.364   2.306   0.382 -1.0379  0.5552  0.7690
 2376SOL     OW 7705   9.374   8.247   7.617  0.0883 -0.0432 -0.3578
 2376SOL    HW1 7706   9.296   8.208   7.657 -0.4879  1.1050 -0.3189
 2376SOL    HW2 7707   9.446   8.223   7.675 -0.3872 -0.3291  0.1148
 2377SOL     OW 7708   4.223   2.246   8.834 -0.5220  0.0565 -0.1964
 2377SOL    HW1 7709   4.150   2.308   8.840  0.1815  1.1965 -2.3979
 2377SOL    HW2 7710   4.295   2.297   8.800  0.6236 -1.6009 -0.3770
 2378SOL     OW 7711   7.681   0.719   8.465  0.4384  0.1964 -0.5576
 2378SOL    HW1 7712   7.773   0.744   8.461  0.1236  1.3317 -1.1989
 2378SOL    HW2 7713   7.662   0.712   8.558  1.2905 -0.5525 -0.4250
 2379SOL     OW 7714   9.495   9.662   6.741  0.5519  0.5744 -0.2294
 2379SOL    HW1 7715   9.562   9.595   6.752 -1.5053 -1.5791  0.0941
 2379SOL    HW2 7716   9.422   9.617   6.699 -0.4892  2.9704 -1.2220
 2380SOL     OW 7717   4.076   4.686   1.130  0.0789 -0.3272  0.7412
 2380SOL    HW1 7718   4.100   4.606   1.177 -1.4691  0.3757  2.9226
 2380SOL    HW2 7719   4.083   4.663   1.038  2.3961 -2.0914  1.2532
 2381SOL     OW 7720   9.677   2.925   2.385  0.1000 -0.3034 -0.1674
 2381SOL    HW1 7721   9.590   2.955   2.358  0.9117  1.2478 -1.2227
 2381SOL    HW2 7722   9.705   2.990   2.449  0.7919 -0.3885 -0.3857
 2382SOL     OW 7723   5.041   5.083   5.080 -0.1936  0.5803  0.4271
 2382SOL    HW1 7724   5.115   5.129   5.040  1.1826 -1.8909 -0.0558
 2382SOL    HW2 7725   5.049   5.102   5.174 -0.0328  1.7554  0.1969
 2383SOL     OW 7726   7.463   4.316   6.593 -0.2975  0.3223 -1.0356
 2383SOL    HW1 7727   7.479   4.265   6.514  1.2860  1.3502 -1.4227
 2383SOL    HW2 7728   7.524   4.280   6.658 -1.1906 -0.1408 -0.4235
 2384SOL     OW 7729   0.335   2.399   0.514 -0.5563 -0.0556  0.2408
 2384SOL    HW1 7730   0.334   2.304   0.510 -0.8819 -0.0505  0.2186
 2384SOL    HW2 7731   0.341   2.420   0.607 -2.1173 -0.0839  0.3630
 2385SOL     OW 7732   3.533   5.820   5.658 -0.6073  0.1349  0.6399
 2385SOL    HW1 7733   3.623   5.825   5.691 -0.6806 -1.3563  1.1403
 2385SOL    HW2 7734   3.479   5.827   5.737 -0.8285 -1.9739  0.7118
 2386SOL     OW 7735   3.726   3.111   0.944  0.2891 -0.1617 -0.2996
 2386SOL    HW1 7736   3.764   3.142   0.861 -0.0261  0.3105 -0.2739
 2386SOL    HW2 7737   3.683   3.029   0.921 -0.9501  0.6146 -0.9169
 2387SOL     OW 7738   2.953   2.895   4.241  0.4550 -0.3685 -0.5823
 2387SOL    HW1 7739   2.905   2.826   4.195 -1.2225  0.7029 -0.5033
 2387SOL    HW2 7740   2.930   2.976   4.195  1.2647  0.3244  0.1858
 2388SOL     OW 7741   0.488   9.713   7.717 -0.1035 -0.0505 -0.2458
 2388SOL    HW1 7742   0.564   9.659   7.738  1.0633  1.2153 -1.0494
 2388SOL    HW2 7743   0.490   9.721   7.622  0.9856  3.0278 -0.0652
 2389SOL     OW 7744   2.050   5.326   0.962  0.7317  0.2343 -0.3897
 2389SOL    HW1 7745   2.040   5.234   0.941  0.0459  0.0354  0.7240
 2389SOL    HW2 7746   1.961   5.361   0.964  0.6940  0.2024  2.1371
 2390SOL     OW 7747   2.383   5.591   0.176 -0.3915  0.3173  0.2959
 2390SOL    HW1 7748   2.347   5.544   0.251  1.7663 -0.5378  0.8683
 2390SOL    HW2 7749   2.354   5.681   0.189  0.3076  0.2990  2.4531
 2391SOL     OW 7750   6.170   4.369   4.406  0.9628 -0.3985 -0.2321
 2391SOL    HW1 7751   6.105   4.314   4.449  0.3463  0.4084 -0.1072
 2391SOL    HW2 7752   6.193   4.322   4.326 -1.0540  0.0709 -1.1419
 2392SOL     OW 7753   7.573   4.100   9.337 -0.3803  0.1421  0.5625
 2392SOL    HW1 7754   7.562   4.145   9.421  1.1964 -0.4075  1.1038
 2392SOL    HW2 7755   7.628   4.158   9.285 -0.7345  0.1396  0.1753
 2393SOL     OW 7756   6.719   8.865   5.329 -0.1301 -0.0260 -0.1321
 2393SOL    HW1 7757   6.672   8.781   5.329  1.4361 -0.9466  0.3579
 2393SOL    HW2 7758   6.779   8.859   5.255 -0.3970  0.9213 -0.4426
 2394SOL     OW 7759   5.523   9.579   5.325 -0.6011 -0.6053 -0.8742
 2394SOL    HW1 7760   5.542   9.506   5.266 -2.8929  0.0285 -2.5634
 2394SOL    HW2 7761   5.520   9.656   5.268 -0.0942  0.5311  0.5641
 2395SOL     OW 7762   5.261   4.413   7.768 -0.5622 -0.1021 -0.3873
 2395SOL    HW1 7763   5.182   4.399   7.716 -0.2978 -0.1303 -0.7822
 2395SOL    HW2 7764   5.228   4.450   7.851 -0.9199  0.6691 -0.8633
 2396SOL     OW 7765   8.941   4.206   8.922  0.3008 -0.1581  0.5451
 2396SOL    HW1 7766   8.909   4.271   8.860 -1.6809 -1.4069  0.1863
 2396SOL    HW2 7767   8.961   4.129   8.868 -0.5472 -0.9433  1.3263
 2397SOL     OW 7768   9.352   7.589   2.446 -0.2918  0.9868  0.8293
 2397SOL    HW1 7769   9.264   7.611   2.478 -0.9525  1.1733 -0.9672
 2397SOL    HW2 7770   9.359   7.638   2.363  1.4769  0.8952  0.9051
 2398SOL     OW 7771   1.503   2.255   9.931  0.4277  0.6942 -0.2667
 2398SOL    HW1 7772   1.434   2.188   9.926  0.8542  0.3092 -1.0513
 2398SOL    HW2 7773   1.489   2.296  10.016  1.3196 -1.6685  1.1203
 2399SOL     OW 7774   2.772   7.713   0.669 -0.1593  0.1898 -0.6983
 2399SOL    HW1 7775   2.685   7.735   0.634 -1.1436  1.1981  2.0799
 2399SOL    HW2 7776   2.754   7.648   0.737  1.2650  0.2966 -0.1918
 2400SOL     OW 7777   9.321   2.197   2.099  0.3714 -0.3276 -0.3321
 2400SOL    HW1 7778   9.362   2.258   2.038  2.3013 -1.5272 -0.3072
 2400SOL    HW2 7779   9.337   2.235   2.185  1.3039 -0.7028 -0.3343
 2401SOL     OW 7780   6.222   7.303   1.483  0.1251 -0.7647 -0.3645
 2401SOL    HW1 7781   6.312   7.274   1.467  0.2249 -0.4311 -0.4205
 2401SOL    HW2 7782   6.223   7.336   1.572  0.2012 -0.2246 -0.5625
 2402SOL     OW 7783   0.260   9.736   1.759 -0.8505 -0.3242 -0.1861
 2402SOL    HW1 7784   0.241   9.820   1.716  0.4067 -0.8623 -1.8867
 2402SOL    HW2 7785   0.188   9.679   1.733 -0.1206 -0.6334 -1.6137
 2403SOL     OW 7786   1.928   5.681   6.421  0.2259  0.1135  0.2195
 2403SOL    HW1 7787   1.900   5.729   6.498 -1.1710  0.6017 -0.5483
 2403SOL    HW2 7788   1.890   5.729   6.347 -0.0069 -1.3340 -0.6564
 2404SOL     OW 7789   6.154   7.793   7.795  0.3055  0.1358  0.2776
 2404SOL    HW1 7790   6.242   7.826   7.773  0.6970 -1.8243 -1.4811
 2404SOL    HW2 7791   6.107   7.869   7.827  1.7455  1.9558 -1.6315
 2405SOL     OW 7792   6.343   7.070   5.430 -0.1537  0.1009 -0.7272
 2405SOL    HW1 7793   6.285   7.033   5.496 -0.2360  1.8615  0.2214
 2405SOL    HW2 7794   6.396   6.995   5.401 -1.6294 -1.1522 -0.3101
 2406SOL     OW 7795   7.038   0.763   0.700 -0.4866 -0.0952 -0.6585
 2406SOL    HW1 7796   7.051   0.670   0.721  0.5645 -0.1965 -1.6333
 2406SOL    HW2 7797   7.050   0.767   0.605  0.2045  1.1495 -0.5327
 2407SOL     OW 7798   3.366   6.753   1.919 -0.0129  0.1166 -0.0032
 2407SOL    HW1 7799   3.427   6.705   1.863  1.5547  1.1943  0.7046
 2407SOL    HW2 7800   3.310   6.685   1.957  1.4916 -1.0676  0.2082
 2408SOL     OW 7801   9.553   8.112   8.178 -0.1256  0.4278 -0.0079
 2408SOL    HW1 7802   9.527   8.139   8.266  0.9772  0.3813  0.3488
 2408SOL    HW2 7803   9.621   8.174   8.152  0.5538 -0.3888 -0.2501
 2409SOL     OW 7804   6.908   0.680   0.151 -0.3465  0.0406  0.1593
 2409SOL    HW1 7805   6.853   0.748   0.190  1.4906  0.8942  1.4361
 2409SOL    HW2 7806   6.987   0.727   0.123 -0.1166 -1.1727 -1.3915
 2410SOL     OW 7807   2.192   8.873   5.209 -0.0007 -0.3347 -0.4610
 2410SOL    HW1 7808   2.138   8.876   5.289 -0.8332  2.2537 -1.0094
 2410SOL    HW2 7809   2.131   8.847   5.141  0.1347 -0.2140 -0.6283
 2411SOL     OW 7810   3.753   2.705   1.303  0.2026  0.6641 -0.3400
 2411SOL    HW1 7811   3.684   2.662   1.252  1.0537 -0.5551 -0.4961
 2411SOL    HW2 7812   3.709   2.780   1.343 -0.9779  0.4746 -1.2142
 2412SOL     OW 7813   5.444   3.540   8.461  0.6650  0.1888  0.5895
 2412SOL    HW1 7814   5.378   3.535   8.393 -0.3847  1.2118  1.5008
 2412SOL    HW2 7815   5.395   3.529   8.543  1.9329 -1.3933  1.2018
 2413SOL     OW 7816   6.870   7.450   1.159  0.0181  0.7124 -0.1947
 2413SOL    HW1 7817   6.957   7.467   1.122  0.0068  0.0027 -0.5665
 2413SOL    HW2 7818   6.827   7.395   1.094 -0.5307  0.6553  0.2144
 2414SOL     OW 7819   9.459   5.300   0.322 -0.5953 -0.1461  0.4672
 2414SOL    HW1 7820   9.486   5.211   0.345 -0.5423 -0.2755 -0.0711
 2414SOL    HW2 7821   9.541   5.349   0.317 -0.3763 -0.6080 -1.4586
 2415SOL     OW 7822   6.529   6.053   2.457 -0.6274 -0.0371 -0.2072
 2415SOL    HW1 7823   6.566   6.025   2.373 -0.7823 -2.1655  0.3741
 2415SOL    HW2 7824   6.591   6.118   2.491  1.0933 -1.4453 -0.5637
 2416SOL     OW 7825   6.318   1.810   0.284 -0.0413 -0.1498 -0.4229
 2416SOL    HW1 7826   6.274   1.895   0.289  2.1601  1.0191  0.7861
 2416SOL    HW2 7827   6.295   1.766   0.366  1.3162  0.6430  0.4100
 2417SOL     OW 7828   8.063   2.825   2.648  0.4310 -0.0901 -0.2128
 2417SOL    HW1 7829   8.083   2.918   2.643  1.1385 -0.2721 -1.0758
 2417SOL    HW2 7830   7.968   2.821   2.656  0.4645  0.7233  0.8020
 2418SOL     OW 7831   8.691   8.388   4.612  0.1985 -0.1006  0.1463
 2418SOL    HW1 7832   8.631   8.393   4.686 -0.9634  0.5171 -0.7956
 2418SOL    HW2 7833   8.658   8.315   4.559  0.5826 -0.0881 -0.1166
 2419SOL     OW 7834   0.294   8.520   2.730  0.8838 -0.5340  0.2168
 2419SOL    HW1 7835   0.305   8.497   2.638  0.4308  0.0581  0.0078
 2419SOL    HW2 7836   0.257   8.441   2.771  3.1131 -1.5880  0.3716
 2420SOL     OW 7837   1.003   6.002   9.437  0.8500 -0.1730 -0.3002
 2420SOL    HW1 7838   1.013   5.940   9.509  0.0234 -0.7009 -0.6247
 2420SOL    HW2 7839   0.995   6.087   9.481 -1.2150 -0.6432  0.3872
 2421SOL     OW 7840   2.536   8.920   1.958  0.0703  0.1116  0.4858
 2421SOL    HW1 7841   2.566   8.910   1.868 -0.6596  0.0072  0.2438
 2421SOL    HW2 7842   2.503   8.833   1.982  0.6620  0.0254  1.0091
 2422SOL     OW 7843   7.391   7.067   8.793  0.5457  0.2861 -1.1476
 2422SOL    HW1 7844   7.450   7.120   8.847  0.4004  1.6519 -2.2730
 2422SOL    HW2 7845   7.306   7.109   8.803 -0.1652 -1.3282  0.0007
 2423SOL     OW 7846   0.542   8.910   4.463 -0.3943 -0.0757 -0.2674
 2423SOL    HW1 7847   0.476   8.840   4.464  0.3050 -0.7967 -1.6657
 2423SOL    HW2 7848   0.612   8.878   4.520 -0.6014  0.0352  0.0527
 2424SOL     OW 7849   0.067   5.112   0.155  0.4106  0.3152 -0.1614
 2424SOL    HW1 7850   0.162   5.127   0.157  0.6795 -1.1117 -0.9555
 2424SOL    HW2 7851   0.057   5.023   0.122 -1.2125  0.3177  0.2193
 2425SOL     OW 7852   2.901   2.064   0.779 -0.2293  0.3499  0.2267
 2425SOL    HW1 7853   2.885   2.156   0.756  2.5705  0.7732 -0.3471
 2425SOL    HW2 7854   2.929   2.066   0.870  0.3113  0.1201  0.0667
 2426SOL     OW 7855   9.566   0.612   4.284 -0.0123 -0.2082 -0.3395
 2426SOL    HW1 7856   9.619   0.576   4.356  0.8032 -0.5709 -1.0988
 2426SOL    HW2 7857   9.570   0.545   4.216  0.5143  0.7923 -1.3168
 2427SOL     OW 7858   0.069   2.451   0.036 -0.1237  0.2013 -0.1714
 2427SOL    HW1 7859   0.110   2.531   0.002 -1.8037  1.5151  0.7446
 2427SOL    HW2 7860   0.131   2.419   0.101  0.8371  0.4088 -0.9484
 2428SOL     OW 7861   5.507   0.466   8.317  0.9683  0.0904 -0.0873
 2428SOL    HW1 7862   5.482   0.379   8.287  3.1608 -0.1607 -1.3908
 2428SOL    HW2 7863   5.600   0.473   8.295  1.1966  2.2141  1.3207
 2429SOL     OW 7864   7.033   2.029   0.876  0.0452 -0.0438 -0.1673
 2429SOL    HW1 7865   7.066   2.070   0.956 -1.5718 -1.6799  1.4312
 2429SOL    HW2 7866   7.100   1.966   0.851  0.4176  0.2629  0.0521
 2430SOL     OW 7867   4.590   5.307   8.915 -0.3684  0.2035  0.5143
 2430SOL    HW1 7868   4.676   5.333   8.882  0.3227 -0.8627  1.4144
 2430SOL    HW2 7869   4.538   5.387   8.911  0.1448  0.4920 -1.6127
 2431SOL     OW 7870   6.240   9.002   6.343  0.2961 -0.4353 -0.2659
 2431SOL    HW1 7871   6.154   8.969   6.367 -0.5173  0.4939 -1.7373
 2431SOL    HW2 7872   6.293   8.991   6.422 -0.9993 -1.5490  0.4887
 2432SOL     OW 7873   0.979   6.177   6.458 -0.1178  0.6653 -0.2383
 2432SOL    HW1 7874   1.005   6.217   6.375  0.2718  0.9375  0.0133
 2432SOL    HW2 7875   0.936   6.247   6.507  0.9858  0.9134  0.3968
 2433SOL     OW 7876   4.190   2.811   8.736 -0.0310  0.0731 -0.0821
 2433SOL    HW1 7877   4.186   2.760   8.818  0.5310 -0.2428 -0.2489
 2433SOL    HW2 7878   4.248   2.760   8.679 -1.0741 -0.1484 -0.9789
 2434SOL     OW 7879   1.550   6.679   3.001 -0.2566 -0.5331  0.2937
 2434SOL    HW1 7880   1.457   6.660   3.016 -0.3137 -0.8399 -0.4036
 2434SOL    HW2 7881   1.556   6.699   2.907  0.6114 -1.9314  0.0248
 2435SOL     OW 7882   9.060  -0.006   1.064 -0.4286  0.1038 -0.1994
 2435SOL    HW1 7883   9.149   0.019   1.088 -0.0617 -0.0168 -1.3892
 2435SOL    HW2 7884   9.004   0.044   1.124  0.4117  0.5755  0.2083
 2436SOL     OW 7885   8.551   9.737   8.371  0.5582  0.1150  0.2752
 2436SOL    HW1 7886   8.610   9.709   8.302  0.1547  1.1910 -0.5352
 2436SOL    HW2 7887   8.600   9.803   8.420  0.6547 -0.2640  0.6880
 2437SOL     OW 7888   1.696   9.718   5.921  0.6234 -0.0044  0.0045
 2437SOL    HW1 7889   1.782   9.720   5.877  0.3249 -0.5101 -0.6208
 2437SOL    HW2 7890   1.637   9.683   5.855  0.1933 -0.9657  0.8798
 2438SOL     OW 7891   2.478   2.343   2.305 -0.4195  0.9701 -0.2308
 2438SOL    HW1 7892   2.541   2.306   2.242 -0.3633  0.8110 -0.0817
 2438SOL    HW2 7893   2.497   2.437   2.305  0.3855  0.8252  0.4313
 2439SOL     OW 7894   9.690   5.494   5.141 -0.3374 -0.0417 -0.4344
 2439SOL    HW1 7895   9.646   5.441   5.074 -2.0527  1.6774 -0.7344
 2439SOL    HW2 7896   9.678   5.444   5.222  0.2042 -1.2562 -1.0605
 2440SOL     OW 7897   9.837   5.737   9.213 -0.3194 -0.0831 -0.3115
 2440SOL    HW1 7898   9.906   5.801   9.230  0.7559 -1.4666  0.7600
 2440SOL    HW2 7899   9.764   5.764   9.268 -0.0367  0.4861 -0.2138
 2441SOL     OW 7900   4.068   5.168   5.307  0.7423 -0.3983 -0.4840
 2441SOL    HW1 7901   4.160   5.165   5.281  0.1646 -0.7407 -2.6564
 2441SOL    HW2 7902   4.020   5.134   5.232 -1.2329  0.4785  0.2994
 2442SOL     OW 7903   6.118   1.075   0.367  0.5376 -0.0842  0.3241
 2442SOL    HW1 7904   6.074   1.061   0.283 -1.6293  0.7088  1.2436
 2442SOL    HW2 7905   6.203   1.031   0.358 -0.0470 -0.8833 -1.8972
 2443SOL     OW 7906   6.516   0.557   3.280  0.1034 -0.0312 -0.2547
 2443SOL    HW1 7907   6.529   0.473   3.236  0.0755  1.8020 -4.1433
 2443SOL    HW2 7908   6.422   0.574   3.272 -0.0519  0.0548  1.3213
 2444SOL     OW 7909   4.916   7.563   8.012  0.3226  0.4175  0.0729
 2444SOL    HW1 7910   4.821   7.558   8.000 -0.1652  2.4512  2.3059
 2444SOL    HW2 7911   4.940   7.478   8.048 -1.0807  0.6621  1.6954
 2445SOL     OW 7912   8.715   4.773   7.398  0.5005  0.0767  0.0742
 2445SOL    HW1 7913   8.631   4.731   7.419  0.0929 -1.0919 -3.3186
 2445SOL    HW2 7914   8.779   4.724   7.450 -0.6722 -0.3671  1.1637
 2446SOL     OW 7915   2.049   0.893   4.999 -0.0119 -0.1663 -0.3160
 2446SOL    HW1 7916   2.015   0.976   4.966  0.1679  0.0942  0.1519
 2446SOL    HW2 7917   2.138   0.888   4.964 -0.6833 -1.1040 -1.9955
 2447SOL     OW 7918   0.573   0.744   3.951 -0.3857 -0.1720 -0.3663
 2447SOL    HW1 7919   0.650   0.738   4.008 -0.7782 -2.0244  0.0207
 2447SOL    HW2 7920   0.503   0.774   4.009 -0.7694 -1.9906  0.1454
 2448SOL     OW 7921   8.880   7.889   1.043  0.0936 -0.4192  0.0373
 2448SOL    HW1 7922   8.828   7.840   0.979  0.4392 -0.9606  0.1658
 2448SOL    HW2 7923   8.883   7.832   1.120 -1.9706  1.0320  1.2935
 2449SOL     OW 7924   7.236   7.897   6.258  0.2307 -0.0433  0.2732
 2449SOL    HW1 7925   7.191   7.955   6.197  0.8303  1.0210  0.8230
 2449SOL    HW2 7926   7.293   7.843   6.202 -0.6378 -0.4110 -0.2796
 2450SOL     OW 7927   4.206   9.398   1.964 -0.3249  0.0883  0.1406
 2450SOL    HW1 7928   4.241   9.323   1.916  3.2476  1.6944 -0.0818
 2450SOL    HW2 7929   4.258   9.402   2.045  0.4070  2.8920 -0.3577
 2451SOL     OW 7930   6.427   4.218   5.826  0.2973  0.0087 -0.0622
 2451SOL    HW1 7931   6.355   4.282   5.829 -0.1570 -0.3252 -2.2086
 2451SOL    HW2 7932   6.411   4.168   5.746  0.8918 -2.5343  1.3069
 2452SOL     OW 7933   9.635   7.050   1.606  0.2811  0.1105  0.1220
 2452SOL    HW1 7934   9.581   7.064   1.528 -4.3818  0.8319  3.0585
 2452SOL    HW2 7935   9.659   7.138   1.634  1.0219 -0.0822  0.1071
 2453SOL     OW 7936   2.657   5.027   3.904  0.5610 -0.1317  0.1987
 2453SOL    HW1 7937   2.741   5.072   3.894  0.4702  0.1194  0.5489
 2453SOL    HW2 7938   2.658   4.997   3.995 -0.3841  1.1905  0.6660
 2454SOL     OW 7939   6.952   3.559   0.938 -0.6365 -0.1118 -0.3056
 2454SOL    HW1 7940   6.861   3.531   0.945 -0.8197  0.4766 -0.2514
 2454SOL    HW2 7941   7.002   3.491   0.983 -1.2918  0.8617  2.0182
 2455SOL     OW 7942   1.728   2.364   0.933  0.3316 -0.8356  0.3483
 2455SOL    HW1 7943   1.681   2.397   0.858  0.9499 -1.3421 -0.2813
 2455SOL    HW2 7944   1.697   2.416   1.007 -1.9601 -1.8245  0.1490
 2456SOL     OW 7945   5.302   1.621   6.748 -0.4848  0.1585 -0.0488
 2456SOL    HW1 7946   5.305   1.622   6.844  0.4371  0.9031 -0.0658
 2456SOL    HW2 7947   5.217   1.584   6.727 -0.5902 -0.2747  1.0594
 2457SOL     OW 7948   4.511   9.258   2.109 -0.3301  0.1980 -0.2407
 2457SOL    HW1 7949   4.509   9.252   2.204  1.8838  0.4631 -0.1263
 2457SOL    HW2 7950   4.459   9.184   2.079  1.6671 -1.9086  1.1992
 2458SOL     OW 7951   9.320   3.804   7.401  0.1262  0.4069 -0.0484
 2458SOL    HW1 7952   9.265   3.726   7.411 -1.3592  1.2230 -1.3833
 2458SOL    HW2 7953   9.347   3.826   7.490 -3.4998  1.1857  1.0231
 2459SOL     OW 7954   2.836   6.000   8.727 -0.1703 -0.5013 -0.2801
 2459SOL    HW1 7955   2.907   6.064   8.729  0.8519 -1.5612 -1.2868
 2459SOL    HW2 7956   2.789   6.018   8.645 -0.9984  0.1126  0.3191
 2460SOL     OW 7957   5.524   7.398   9.244 -0.3313 -0.7212 -0.1140
 2460SOL    HW1 7958   5.600   7.411   9.187  1.0264 -1.6682  1.4062
 2460SOL    HW2 7959   5.513   7.303   9.247 -1.6587 -0.5957 -0.3661
 2461SOL     OW 7960   6.998   8.568   5.877  0.0827 -0.0260  0.5474
 2461SOL    HW1 7961   6.948   8.547   5.798  0.1091  1.3424  0.1362
 2461SOL    HW2 7962   7.089   8.571   5.848  0.1985 -0.4343  0.8465
 2462SOL     OW 7963   0.020   9.897   0.858 -0.0660  0.2898 -0.2721
 2462SOL    HW1 7964   0.049   9.816   0.902  0.5356  1.5270  1.7300
 2462SOL    HW2 7965  -0.042   9.867   0.792  1.3994 -1.9549 -0.7470
 2463SOL     OW 7966   9.909   9.221   3.240 -0.1995 -0.1052 -0.0394
 2463SOL    HW1 7967   9.870   9.286   3.298 -1.7447 -1.1080  0.1303
 2463SOL    HW2 7968   9.845   9.150   3.238  0.6387 -0.8768 -1.5589
 2464SOL     OW 7969   4.937   3.347   6.932 -0.0298  0.1318  0.4233
 2464SOL    HW1 7970   4.855   3.322   6.975  0.7520 -0.7958  1.4208
 2464SOL    HW2 7971   4.918   3.338   6.838 -1.3492  0.8821  0.5879
 2465SOL     OW 7972   1.447   2.610   9.779  0.1355  0.2413 -0.5051
 2465SOL    HW1 7973   1.489   2.525   9.775 -0.7031 -0.2262  0.2345
 2465SOL    HW2 7974   1.446   2.641   9.688  0.7678 -0.3691 -0.7265
 2466SOL     OW 7975   2.052   6.894  -0.002 -0.1860  0.0985 -0.7742
 2466SOL    HW1 7976   2.010   6.822   0.045  1.5517 -1.0589 -0.8971
 2466SOL    HW2 7977   2.101   6.941   0.066  2.1909 -1.4752 -1.2862
 2467SOL     OW 7978   0.565   1.879   0.856  0.2868  0.3393 -0.4433
 2467SOL    HW1 7979   0.543   1.788   0.874 -0.5667  0.3737 -1.2732
 2467SOL    HW2 7980   0.594   1.913   0.941 -1.0894 -0.2131  0.2884
 2468SOL     OW 7981   9.279   3.166   2.543  0.1932 -0.0136 -0.0643
 2468SOL    HW1 7982   9.200   3.221   2.546  0.7611  0.8263 -0.1994
 2468SOL    HW2 7983   9.258   3.091   2.599 -0.7076  0.1916 -0.1113
 2469SOL     OW 7984   4.121   6.752   5.607  0.0877  0.7352  0.6734
 2469SOL    HW1 7985   4.167   6.707   5.537  1.9163  0.3226  2.0683
 2469SOL    HW2 7986   4.031   6.761   5.575  0.6088 -0.4039 -1.2407
 2470SOL     OW 7987   5.998   3.245   9.547  0.1225  0.3853 -0.3356
 2470SOL    HW1 7988   5.904   3.236   9.535 -0.0927 -0.3713  1.6827
 2470SOL    HW2 7989   6.023   3.313   9.483 -2.0394  1.7760  0.1851
 2471SOL     OW 7990   0.797   4.920   3.070  0.6834 -1.2036 -0.3145
 2471SOL    HW1 7991   0.884   4.906   3.034  0.3020  2.0591 -2.9558
 2471SOL    HW2 7992   0.798   5.009   3.104 -1.1630 -1.7046  1.2677
 2472SOL     OW 7993   2.275   1.695   1.340 -0.0946  0.3637  0.4299
 2472SOL    HW1 7994   2.215   1.659   1.274 -0.0794 -0.0099  0.6155
 2472SOL    HW2 7995   2.236   1.779   1.363  0.0991  0.6630 -0.3190
 2473SOL     OW 7996   4.972   4.397   8.957 -0.2525  0.3139  0.5091
 2473SOL    HW1 7997   4.981   4.454   8.880  0.5608  0.7117  0.8883
 2473SOL    HW2 7998   5.042   4.424   9.016 -0.0009 -0.9072  0.8110
 2474SOL     OW 7999   0.675   0.650   9.494  0.1588  0.0598 -0.5229
 2474SOL    HW1 8000   0.643   0.720   9.438  0.5625 -0.8054 -1.8978
 2474SOL    HW2 8001   0.621   0.574   9.470 -0.1776 -0.1574  0.8317
 2475SOL     OW 8002   3.910   4.149   6.890 -0.1234 -0.3866  0.1505
 2475SOL    HW1 8003   3.950   4.199   6.818  0.6833 -0.0346  0.8261
 2475SOL    HW2 8004   3.973   4.156   6.962 -1.7977  0.9740  1.5826
 2476SOL     OW 8005   9.295   4.309   4.438 -0.1545  0.1107 -0.0536
 2476SOL    HW1 8006   9.306   4.393   4.394 -1.5743  0.0129 -0.6697
 2476SOL    HW2 8007   9.254   4.252   4.373 -0.7681 -0.5453  0.8685
 2477SOL     OW 8008   0.126   1.511   0.903 -0.3904  0.2744  0.5017
 2477SOL    HW1 8009   0.146   1.510   0.997  1.8361 -0.8242  0.0847
 2477SOL    HW2 8010   0.139   1.603   0.877  1.3444  0.1550  0.8506
 2478SOL     OW 8011   2.897   2.894   0.279 -0.2508 -0.4155 -0.3292
 2478SOL    HW1 8012   2.927   2.985   0.276  0.4679 -0.6591 -0.9780
 2478SOL    HW2 8013   2.858   2.879   0.193 -1.5309 -0.3579  0.2183
 2479SOL     OW 8014   4.177   2.101   2.521  0.5479  0.1540 -0.6229
 2479SOL    HW1 8015   4.108   2.116   2.457 -1.0152 -1.2317  0.6621
 2479SOL    HW2 8016   4.131   2.088   2.604  2.4129  0.2205  0.4886
 2480SOL     OW 8017   4.394   9.603   8.475  0.7118 -0.0895  0.6914
 2480SOL    HW1 8018   4.358   9.597   8.387  0.6942 -1.0468  0.7510
 2480SOL    HW2 8019   4.337   9.548   8.528  1.4554 -0.5345  1.0491
 2481SOL     OW 8020   1.044   2.305   7.163 -0.1603  0.8856 -0.2184
 2481SOL    HW1 8021   0.986   2.246   7.211 -0.0347  1.4445  0.6267
 2481SOL    HW2 8022   0.999   2.390   7.164 -0.3356  0.8251 -1.4140
 2482SOL     OW 8023   3.314   7.239   5.410  0.3996  0.2334 -0.0063
 2482SOL    HW1 8024   3.306   7.317   5.465 -1.2562  0.3115 -0.3246
 2482SOL    HW2 8025   3.398   7.251   5.365  1.1088  0.8584  1.4024
 2483SOL     OW 8026   1.561   5.098   8.106 -0.4119  0.0023 -0.7266
 2483SOL    HW1 8027   1.475   5.134   8.129 -0.5938 -1.5481  1.2535
 2483SOL    HW2 8028   1.598   5.070   8.189  2.3405  1.2097 -1.4566
 2484SOL     OW 8029   5.561   5.173   3.658 -0.2640 -0.2640 -0.1870
 2484SOL    HW1 8030   5.552   5.195   3.751 -0.0947 -2.1819  0.3213
 2484SOL    HW2 8031   5.473   5.147   3.631  0.2727 -3.1245  0.4418
 2485SOL     OW 8032   7.108   5.886   7.030 -0.4524 -0.4819 -0.0266
 2485SOL    HW1 8033   7.187   5.929   6.996 -0.0837 -0.3396  0.9589
 2485SOL    HW2 8034   7.141   5.807   7.072 -0.3640  1.0777  3.1583
 2486SOL     OW 8035   4.946   4.699   9.946  0.6661  0.0457  0.1876
 2486SOL    HW1 8036   4.979   4.654  10.023  1.2876  0.6393  0.2781
 2486SOL    HW2 8037   4.903   4.631   9.894  1.0315 -0.5200  0.6233
 2487SOL     OW 8038   6.540   5.300   4.473 -0.2639 -0.3302  0.4416
 2487SOL    HW1 8039   6.485   5.234   4.517 -1.0374  0.4842  0.7152
 2487SOL    HW2 8040   6.541   5.374   4.533 -0.6455  0.4801 -0.5383
 2488SOL     OW 8041   4.526   8.504   6.386  1.2157  0.0949  0.4563
 2488SOL    HW1 8042   4.435   8.487   6.412 -0.7179  1.7013 -4.1242
 2488SOL    HW2 8043   4.550   8.429   6.332  1.7093  0.7300 -0.2247
 2489SOL     OW 8044   8.846   3.440   6.532 -0.1164  0.2771  0.1251
 2489SOL    HW1 8045   8.823   3.347   6.530 -0.3978  0.3457  0.0605
 2489SOL    HW2 8046   8.799   3.475   6.608 -0.1116  0.3925  0.0755
 2490SOL     OW 8047   7.444   8.423   3.258 -0.3204 -0.2937  0.1507
 2490SOL    HW1 8048   7.460   8.511   3.224 -0.1238 -0.9240 -1.4964
 2490SOL    HW2 8049   7.349   8.420   3.272 -0.1423  0.6621  1.7096
 2491SOL     OW 8050   7.610   5.525   9.096  0.4126 -0.0970  0.2335
 2491SOL    HW1 8051   7.595   5.480   9.013 -1.5861 -0.7090  0.8590
 2491SOL    HW2 8052   7.579   5.615   9.080  0.4625 -0.0865  0.1933
 2492SOL     OW 8053   7.591   0.070   3.461  0.8960 -0.1329  0.0074
 2492SOL    HW1 8054   7.672   0.086   3.412 -0.4795 -0.3499 -2.4990
 2492SOL    HW2 8055   7.564  -0.018   3.434  0.3596 -0.5294  1.6961
 2493SOL     OW 8056   1.225   0.274   4.914 -0.2643  0.1766  0.2144
 2493SOL    HW1 8057   1.257   0.214   4.981 -0.3237  0.0145  0.0962
 2493SOL    HW2 8058   1.242   0.230   4.831  0.0172  0.4785  0.1112
 2494SOL     OW 8059   0.024   8.987   5.978  0.6909 -0.1397  0.2068
 2494SOL    HW1 8060   0.118   8.996   5.991  0.9037 -0.7576 -0.7589
 2494SOL    HW2 8061   0.015   8.969   5.884 -0.2387 -1.7850  0.5710
 2495SOL     OW 8062   1.355   6.106   4.378 -0.4737  0.1934 -0.2164
 2495SOL    HW1 8063   1.299   6.113   4.300 -2.0929 -2.1130  0.6212
 2495SOL    HW2 8064   1.337   6.186   4.427 -2.5065 -0.1421 -0.3399
 2496SOL     OW 8065   3.336   6.186   3.780 -0.4085  0.4386  0.1211
 2496SOL    HW1 8066   3.268   6.178   3.713 -2.0254 -0.7399  1.7915
 2496SOL    HW2 8067   3.417   6.161   3.736 -1.1944  0.9483 -1.6927
 2497SOL     OW 8068   9.600   5.430   2.797  0.4415 -0.3361  0.1903
 2497SOL    HW1 8069   9.689   5.434   2.831  0.0085 -0.4099  1.3679
 2497SOL    HW2 8070   9.569   5.521   2.802 -0.4016 -0.6868  2.1992
 2498SOL     OW 8071   2.966   6.610   2.177 -0.0807 -0.6974  0.5338
 2498SOL    HW1 8072   2.879   6.585   2.146 -0.1356 -0.2653  0.3246
 2498SOL    HW2 8073   3.007   6.528   2.204 -0.6446 -0.8784  0.8697
 2499SOL     OW 8074   8.427   2.521   2.700 -0.7520 -0.4126 -0.3385
 2499SOL    HW1 8075   8.421   2.433   2.663 -0.2349 -0.3181 -0.6534
 2499SOL    HW2 8076   8.440   2.578   2.625  1.0570 -0.2906  0.0166
 2500SOL     OW 8077   0.946   3.578   9.527  0.4535 -0.0374 -0.2985
 2500SOL    HW1 8078   0.882   3.511   9.502 -2.1108  1.5404  1.5766
 2500SOL    HW2 8079   0.985   3.544   9.608  0.6947 -0.2185 -0.4919
 2501SOL     OW 8080   4.549   4.260   1.929 -0.5908 -0.6131  0.2913
 2501SOL    HW1 8081   4.518   4.337   1.977 -2.9277 -0.2143 -1.6964
 2501SOL    HW2 8082   4.470   4.212   1.906  0.4212 -1.1541 -2.4494
 2502SOL     OW 8083   4.301   6.022   3.622 -0.2239  0.0118  0.3230
 2502SOL    HW1 8084   4.275   5.997   3.711  0.2013  1.1537  0.7812
 2502SOL    HW2 8085   4.357   6.098   3.633  0.6489 -0.4214 -0.8764
 2503SOL     OW 8086   7.970   3.489   7.419  0.0078 -0.1558  0.0668
 2503SOL    HW1 8087   7.876   3.472   7.428  0.2323 -1.6905 -0.2333
 2503SOL    HW2 8088   8.011   3.405   7.440  1.3584  0.6876  0.8921
 2504SOL     OW 8089   2.925   8.651   6.463 -0.0393 -0.7540 -0.3903
 2504SOL    HW1 8090   2.955   8.584   6.403  3.1011 -0.3026  0.5073
 2504SOL    HW2 8091   2.858   8.607   6.516  0.6853 -2.6495 -0.9554
 2505SOL     OW 8092   7.931   5.262   2.968  0.1131 -0.0630 -0.1285
 2505SOL    HW1 8093   7.995   5.330   2.989 -1.0676  0.8553  0.6472
 2505SOL    HW2 8094   7.976   5.180   2.986  0.8424  0.5828  1.0719
 2506SOL     OW 8095   1.523   8.990   6.000 -1.0020 -0.3963  0.5999
 2506SOL    HW1 8096   1.501   8.908   5.955 -1.6368  0.9393 -1.6897
 2506SOL    HW2 8097   1.509   8.971   6.093 -1.5117 -2.7498  0.1066
 2507SOL     OW 8098   5.751   3.526   7.230 -0.3728 -0.0784 -0.5970
 2507SOL    HW1 8099   5.747   3.558   7.140  4.1002  2.3437 -0.2246
 2507SOL    HW2 8100   5.802   3.445   7.224 -1.3910 -0.7711 -0.2936
 2508SOL     OW 8101   6.284   8.943   3.942 -0.3720 -0.0483  0.2763
 2508SOL    HW1 8102   6.318   8.946   4.031 -1.5295 -0.1375  0.7315
 2508SOL    HW2 8103   6.312   8.858   3.908  1.5270  0.6499 -0.0704
 2509SOL     OW 8104   9.120   2.303   3.292 -0.0648 -0.3334 -0.0362
 2509SOL    HW1 8105   9.039   2.292   3.342 -0.3236 -1.2182 -0.6166
 2509SOL    HW2 8106   9.190   2.288   3.355 -0.3291  1.0948  0.6189
 2510SOL     OW 8107   3.922   1.782   2.813  0.3035 -0.1846 -0.3686
 2510SOL    HW1 8108   3.906   1.704   2.760  0.9808  0.3403 -1.3843
 2510SOL    HW2 8109   3.922   1.750   2.903  0.8888 -1.4204 -0.7839
 2511SOL     OW 8110   7.998   4.221   2.918  0.6807 -0.4757 -0.1471
 2511SOL    HW1 8111   8.073   4.277   2.937 -1.5159  2.5396  0.3581
 2511SOL    HW2 8112   7.993   4.220   2.822 -1.6140  4.0784 -0.3625
 2512SOL     OW 8113   8.653   9.063   9.924  0.1852  0.6364  0.3467
 2512SOL    HW1 8114   8.652   9.121  10.001 -1.9609 -1.0195  1.6699
 2512SOL    HW2 8115   8.573   9.012   9.931  1.1083 -1.2779 -1.7358
 2513SOL     OW 8116   7.954   9.690   6.079  0.4473  0.1268 -0.7640
 2513SOL    HW1 8117   8.047   9.711   6.064  0.7331  0.1548  0.8290
 2513SOL    HW2 8118   7.918   9.770   6.118  0.5660 -0.8596  1.5804
 2514SOL     OW 8119   2.220   7.348   0.894 -0.4373  0.2841 -1.1422
 2514SOL    HW1 8120   2.132   7.333   0.860  0.2295 -0.5839 -2.6037
 2514SOL    HW2 8121   2.253   7.261   0.915  0.4995  0.4802 -1.7502
 2515SOL     OW 8122   7.560   4.328   0.731  0.0652 -0.1909 -0.7896
 2515SOL    HW1 8123   7.504   4.258   0.698 -0.5182 -0.2012  0.1924
 2515SOL    HW2 8124   7.525   4.407   0.690 -0.9871 -0.1359  0.1705
 2516SOL     OW 8125   4.086   9.762   3.515  0.2407 -0.7556  0.1961
 2516SOL    HW1 8126   4.129   9.792   3.595 -0.7364  1.0272  0.1048
 2516SOL    HW2 8127   3.995   9.790   3.525  0.5316  1.5556 -2.4618
 2517SOL     OW 8128   6.539   2.134   6.677  0.2056 -0.5232  0.5734
 2517SOL    HW1 8129   6.619   2.111   6.723  0.4670  0.5718  0.6885
 2517SOL    HW2 8130   6.494   2.195   6.735 -0.0964 -0.1456 -0.0450
 2518SOL     OW 8131   9.837   5.509   7.745  0.4021 -0.2318  0.3927
 2518SOL    HW1 8132   9.804   5.544   7.828  0.0732 -0.6496  0.4406
 2518SOL    HW2 8133   9.820   5.415   7.750  1.0007 -0.3594  0.1354
 2519SOL     OW 8134   4.962   4.529   8.726  0.5770  0.2672  0.2022
 2519SOL    HW1 8135   4.889   4.518   8.665  0.9100 -1.8006  0.0843
 2519SOL    HW2 8136   4.986   4.621   8.720 -1.9840  1.0053  0.2351
 2520SOL     OW 8137   6.780   0.858   7.407 -1.0135 -0.0253  0.0419
 2520SOL    HW1 8138   6.839   0.819   7.471 -0.9400  0.0881  0.0452
 2520SOL    HW2 8139   6.814   0.947   7.395 -1.5701  0.2539  0.5240
 2521SOL     OW 8140   1.761   1.911   9.130 -0.1170  0.3670 -0.4341
 2521SOL    HW1 8141   1.797   1.831   9.091  0.3883  0.6213 -0.4907
 2521SOL    HW2 8142   1.836   1.969   9.140 -0.1888  0.2164  1.1656
 2522SOL     OW 8143   5.788   7.842   3.641 -0.0496  0.1467 -0.0591
 2522SOL    HW1 8144   5.711   7.840   3.585  0.8867 -0.2804 -1.3614
 2522SOL    HW2 8145   5.852   7.788   3.596  0.4502 -0.9765  1.8653
 2523SOL     OW 8146   8.518   4.884   2.848 -0.2218  0.1053  0.3575
 2523SOL    HW1 8147   8.437   4.853   2.808 -0.2103 -0.0619  0.4632
 2523SOL    HW2 8148   8.520   4.842   2.935  0.8519 -1.3216 -0.3175
 2524SOL     OW 8149   6.276   7.879   9.816  0.5689  0.2779 -0.9930
 2524SOL    HW1 8150   6.353   7.866   9.870 -0.3430  0.2533  0.3425
 2524SOL    HW2 8151   6.269   7.974   9.806  0.1549  0.3491 -0.1503
 2525SOL     OW 8152   2.969   0.696   3.790 -0.3227  0.0786  0.1683
 2525SOL    HW1 8153   3.046   0.745   3.763 -1.7606  1.6095 -1.3881
 2525SOL    HW2 8154   2.961   0.712   3.884  0.4695  1.0279  0.0842
 2526SOL     OW 8155   1.666   3.715   9.883  0.5650  0.3565  0.1184
 2526SOL    HW1 8156   1.724   3.722   9.958  1.1650 -0.9394 -0.2037
 2526SOL    HW2 8157   1.668   3.802   9.843  1.0340  0.7669  1.0052
 2527SOL     OW 8158   4.557   3.156   8.196  0.1828 -0.3448 -0.6954
 2527SOL    HW1 8159   4.618   3.215   8.240 -0.5898  1.5067 -1.9652
 2527SOL    HW2 8160   4.607   3.118   8.124  0.8875 -1.8736  0.5421
 2528SOL     OW 8161   4.783   9.921   7.047  0.4625 -0.0877  0.2218
 2528SOL    HW1 8162   4.772   9.893   7.138  0.4831  0.5193  0.4113
 2528SOL    HW2 8163   4.834  10.001   7.052 -1.0208  0.9360 -0.1943
 2529SOL     OW 8164   6.558   8.468   3.630  0.3872  0.2817 -0.0023
 2529SOL    HW1 8165   6.465   8.475   3.652  0.2476 -0.7186 -0.2526
 2529SOL    HW2 8166   6.596   8.549   3.664 -0.5434  0.6333  0.2415
 2530SOL     OW 8167   4.709   2.256   6.697 -0.0909 -0.0977 -0.1284
 2530SOL    HW1 8168   4.724   2.334   6.643  1.5633  1.0535  1.8417
 2530SOL    HW2 8169   4.792   2.209   6.694  0.2733  0.3346  1.8559
 2531SOL     OW 8170   0.039   5.279   4.453 -0.3403 -0.3745  0.1560
 2531SOL    HW1 8171   0.004   5.335   4.523 -0.4740 -0.7270  0.3740
 2531SOL    HW2 8172   0.124   5.317   4.432 -0.6032  0.1499  0.0222
 2532SOL     OW 8173   8.719   6.105   5.339 -1.0567 -0.6460 -0.1948
 2532SOL    HW1 8174   8.758   6.193   5.340  1.2529 -1.5908  0.5648
 2532SOL    HW2 8175   8.670   6.100   5.421 -1.0515 -0.1093 -0.1546
 2533SOL     OW 8176   9.376   5.972   3.908 -0.2167 -0.2672 -0.9246
 2533SOL    HW1 8177   9.442   5.923   3.859 -0.7803 -1.5792 -0.4053
 2533SOL    HW2 8178   9.416   5.988   3.994 -1.8759 -4.6316  0.9584
 2534SOL     OW 8179   0.977   9.888   3.391 -0.1412 -0.0901  0.0949
 2534SOL    HW1 8180   1.018   9.874   3.476 -1.3297 -1.9267  0.4161
 2534SOL    HW2 8181   0.975   9.801   3.351  0.0258  0.6653 -1.6627
 2535SOL     OW 8182   8.332   7.942   1.198  0.4623  0.2444  0.1868
 2535SOL    HW1 8183   8.317   7.976   1.110 -0.3211  3.1260  1.3150
 2535SOL    HW2 8184   8.245   7.925   1.233  0.7317 -0.2100  0.6545
 2536SOL     OW 8185   1.687   7.672   3.634 -0.0205 -0.3460 -0.1417
 2536SOL    HW1 8186   1.730   7.710   3.557  0.3372 -2.2133 -0.9170
 2536SOL    HW2 8187   1.618   7.734   3.656  1.2936  1.3473 -0.5667
 2537SOL     OW 8188   6.285   4.352   0.544  0.2676  0.6032  0.2851
 2537SOL    HW1 8189   6.245   4.375   0.628  1.1214  3.2749  0.0554
 2537SOL    HW2 8190   6.376   4.333   0.565  0.3047  0.5121  0.0504
 2538SOL     OW 8191   6.424   2.679   8.763  0.2238  0.3716  0.2863
 2538SOL    HW1 8192   6.338   2.675   8.804  0.0259  2.9934  0.2380
 2538SOL    HW2 8193   6.407   2.672   8.669  0.1777 -0.0137  0.3192
 2539SOL     OW 8194   7.447   4.427   2.450  0.1103 -0.3184  0.9622
 2539SOL    HW1 8195   7.449   4.336   2.422 -1.1648  0.4582 -2.0440
 2539SOL    HW2 8196   7.519   4.469   2.403 -2.1141  1.0444 -1.5381
 2540SOL     OW 8197   9.272   5.299   9.695  0.3083  0.4187 -0.6442
 2540SOL    HW1 8198   9.222   5.365   9.648  1.2203  1.1912 -0.5565
 2540SOL    HW2 8199   9.210   5.228   9.710 -0.9723  1.6673  0.1565
 2541SOL     OW 8200   1.510   4.347   9.283 -0.0792 -0.3471 -0.4035
 2541SOL    HW1 8201   1.483   4.316   9.370  0.3177  0.8280  0.1524
 2541SOL    HW2 8202   1.503   4.269   9.228 -0.0194 -1.2065  0.7446
 2542SOL     OW 8203   5.297   0.849   4.333  0.3704  0.1134 -0.5270
 2542SOL    HW1 8204   5.353   0.922   4.306  0.0205  0.5463 -0.1067
 2542SOL    HW2 8205   5.227   0.846   4.268  0.8144 -0.3630 -0.9952
 2543SOL     OW 8206   8.047   5.408   6.844  0.2844  1.1715 -0.0457
 2543SOL    HW1 8207   8.088   5.379   6.762  0.4971  1.2779  0.0227
 2543SOL    HW2 8208   8.006   5.491   6.822  0.4320  1.2515 -0.0164
 2544SOL     OW 8209   5.843   7.206   6.904 -0.1442  0.0875  0.3616
 2544SOL    HW1 8210   5.892   7.230   6.825  1.1778  0.0149  1.1229
 2544SOL    HW2 8211   5.835   7.111   6.900  2.0649 -0.2260  1.4311
 2545SOL     OW 8212   1.139   8.459   2.063  0.1134 -0.2681 -0.2256
 2545SOL    HW1 8213   1.130   8.534   2.004  0.4433 -1.8502 -2.4074
 2545SOL    HW2 8214   1.229   8.465   2.096  1.0106 -0.9801 -2.3611
 2546SOL     OW 8215   8.010   8.256   4.762  0.0013  0.4407 -0.5070
 2546SOL    HW1 8216   8.030   8.273   4.669 -1.1714 -1.3476 -1.1315
 2546SOL    HW2 8217   8.001   8.161   4.768 -0.4594  0.5620  1.3505
 2547SOL     OW 8218   3.240   4.816   2.125 -0.1552 -0.0656 -0.8180
 2547SOL    HW1 8219   3.246   4.722   2.138  1.2895  0.2010  0.6495
 2547SOL    HW2 8220   3.286   4.854   2.199  0.1587  1.7930 -1.9068
 2548SOL     OW 8221   2.859   5.816   9.159 -0.4415 -0.2479  0.5164
 2548SOL    HW1 8222   2.820   5.865   9.087 -0.5520 -1.3861 -0.2236
 2548SOL    HW2 8223   2.951   5.840   9.157 -0.3488 -0.6164 -0.3206
 2549SOL     OW 8224   4.364   9.843   9.002  0.6160 -0.6119 -0.0628
 2549SOL    HW1 8225   4.351   9.821   8.909 -1.4142 -2.5114  0.5776
 2549SOL    HW2 8226   4.303   9.915   9.018  0.7166 -0.5134 -0.1225
 2550SOL     OW 8227   1.350   2.936   2.526  0.1726 -0.2697  0.0659
 2550SOL    HW1 8228   1.392   3.016   2.558  0.5357 -0.7479  0.8207
 2550SOL    HW2 8229   1.276   2.967   2.474  1.4045  0.5907 -1.2240
 2551SOL     OW 8230   7.730   8.678   1.459  0.3996  0.1728 -0.3954
 2551SOL    HW1 8231   7.694   8.756   1.502  0.7863  0.1240  0.0255
 2551SOL    HW2 8232   7.674   8.665   1.382  1.0905  1.6028 -1.1846
 2552SOL     OW 8233   9.981   2.781   1.495 -0.8929 -0.0100  0.5302
 2552SOL    HW1 8234   9.953   2.812   1.409 -1.1985 -2.2484 -0.2561
 2552SOL    HW2 8235   9.923   2.708   1.514  0.9577 -1.3728  1.3123
 2553SOL     OW 8236   7.813   5.105   1.778  0.2089 -0.1099 -0.4536
 2553SOL    HW1 8237   7.749   5.175   1.768  0.9376  0.9017  1.3789
 2553SOL    HW2 8238   7.834   5.078   1.689  0.6223  2.7191 -1.3081
 2554SOL     OW 8239   1.230   1.242   6.330  0.0621 -0.3472  0.5584
 2554SOL    HW1 8240   1.250   1.174   6.394 -1.3449 -2.0661 -0.7224
 2554SOL    HW2 8241   1.135   1.242   6.323  0.1233  0.5641 -0.7208
 2555SOL     OW 8242   7.008   4.502   4.068 -0.1742 -0.4227 -0.4171
 2555SOL    HW1 8243   6.952   4.550   4.007 -1.1449 -0.2374  0.5812
 2555SOL    HW2 8244   6.964   4.418   4.080 -1.1166  0.2753  1.5145
 2556SOL     OW 8245   2.770   2.065   2.426  0.3445 -0.3020 -0.2226
 2556SOL    HW1 8246   2.793   1.973   2.436  1.4686 -0.0982 -0.7623
 2556SOL    HW2 8247   2.703   2.067   2.358 -2.6244 -1.0673  2.4357
 2557SOL     OW 8248   2.038   8.315   5.838 -0.7403 -0.1984  0.2688
 2557SOL    HW1 8249   1.955   8.361   5.849 -0.4905  0.6647 -1.1840
 2557SOL    HW2 8250   2.105   8.384   5.842 -0.1214 -0.8131  0.8787
 2558SOL     OW 8251   0.531   6.623   9.932 -0.4011  0.1988  0.2710
 2558SOL    HW1 8252   0.599   6.678   9.971 -0.8909  1.2621 -0.3337
 2558SOL    HW2 8253   0.578   6.547   9.896  0.5834  1.2843 -0.8125
 2559SOL     OW 8254   5.703   6.388   6.386 -0.3481 -0.2933 -0.0255
 2559SOL    HW1 8255   5.621   6.359   6.346 -1.0734  2.5239 -0.7564
 2559SOL    HW2 8256   5.720   6.323   6.454 -3.1888 -0.9785  0.1498
 2560SOL     OW 8257   7.465   4.884   5.221  0.3927  0.1365 -0.4867
 2560SOL    HW1 8258   7.494   4.798   5.190 -1.1792 -0.2711 -0.9117
 2560SOL    HW2 8259   7.416   4.920   5.148  1.6767  1.7601 -0.5929
 2561SOL     OW 8260   2.772   2.953   8.262  0.1545 -0.1571 -0.4522
 2561SOL    HW1 8261   2.824   3.031   8.281  0.3421 -0.2173 -0.7116
 2561SOL    HW2 8262   2.696   2.986   8.213 -0.2027 -0.0336  0.1760
 2562SOL     OW 8263   9.198   9.138   3.366 -0.4579 -0.2021  0.2840
 2562SOL    HW1 8264   9.160   9.128   3.279 -0.0766  0.6787  0.0020
 2562SOL    HW2 8265   9.276   9.083   3.365 -0.3254 -0.0144 -0.0175
 2563SOL     OW 8266   1.527   8.638   2.534  0.4418 -0.6540 -0.1923
 2563SOL    HW1 8267   1.437   8.637   2.569  0.7838 -1.3664  0.7070
 2563SOL    HW2 8268   1.518   8.677   2.447 -0.4001  1.4947  0.7956
 2564SOL     OW 8269   9.014   7.815   7.719  0.0338 -0.0499 -0.2669
 2564SOL    HW1 8270   9.050   7.866   7.646 -2.3737  0.2939 -1.3001
 2564SOL    HW2 8271   8.939   7.769   7.681 -1.7604  0.7144  2.1518
 2565SOL     OW 8272   6.104   1.425   9.136 -0.7140 -0.5060 -0.3981
 2565SOL    HW1 8273   6.046   1.458   9.204  0.0262 -0.4798  0.2390
 2565SOL    HW2 8274   6.170   1.493   9.125 -0.6171 -0.6716 -0.8844
 2566SOL     OW 8275   8.957   8.679   4.105 -0.5592  0.2989 -0.0517
 2566SOL    HW1 8276   8.999   8.749   4.055 -2.6531  0.9089 -1.0803
 2566SOL    HW2 8277   8.908   8.628   4.040 -1.0986 -0.6006  1.0138
 2567SOL     OW 8278   4.571   6.718   7.041 -0.6165 -0.4718  0.1873
 2567SOL    HW1 8279   4.573   6.747   7.133 -1.2522 -0.7341  0.2852
 2567SOL    HW2 8280   4.481   6.735   7.013 -0.8520 -1.8360  0.0757
 2568SOL     OW 8281   3.162   5.904   1.953  0.2405  0.4026  0.1777
 2568SOL    HW1 8282   3.158   5.986   2.003  3.8811  0.9540 -0.1590
 2568SOL    HW2 8283   3.204   5.842   2.012 -0.7074 -0.6864 -0.2577
 2569SOL     OW 8284   4.317   5.651   2.237 -0.1837  0.4814 -0.1562
 2569SOL    HW1 8285   4.231   5.632   2.274 -0.3542  1.3276 -0.0988
 2569SOL    HW2 8286   4.373   5.581   2.270 -1.3685 -1.5601 -2.2118
 2570SOL     OW 8287   2.080   4.081   2.017 -0.0194 -0.0068 -0.3482
 2570SOL    HW1 8288   2.074   3.986   2.018  0.2495 -0.0220  0.9093
 2570SOL    HW2 8289   2.142   4.101   1.947 -0.4699 -0.7153 -0.9658
 2571SOL     OW 8290   6.393   3.562   6.462 -0.4045 -0.1958  0.5310
 2571SOL    HW1 8291   6.466   3.509   6.495  0.0643 -0.6884 -1.2338
 2571SOL    HW2 8292   6.405   3.565   6.368 -1.0213  2.1864  0.4512
 2572SOL     OW 8293   5.607   4.754   5.597 -0.2729  0.3658  0.1253
 2572SOL    HW1 8294   5.625   4.695   5.671  2.6535 -1.0848 -1.5470
 2572SOL    HW2 8295   5.662   4.831   5.614 -0.9924  0.8370  0.3308
 2573SOL     OW 8296   8.686   8.296   2.966  0.4860 -0.4509  0.1364
 2573SOL    HW1 8297   8.635   8.361   3.014 -0.5970 -0.9343 -0.3111
 2573SOL    HW2 8298   8.648   8.295   2.878  0.5722 -1.5678  0.0917
 2574SOL     OW 8299   0.118   7.929   9.865 -0.0748  0.3899 -0.0991
 2574SOL    HW1 8300   0.076   7.946   9.949 -0.2734 -1.7046  0.2595
 2574SOL    HW2 8301   0.133   7.835   9.863  1.1438  0.5619 -1.8576
 2575SOL     OW 8302   2.685   0.024   4.307  0.6166  0.2358 -0.0485
 2575SOL    HW1 8303   2.603  -0.024   4.310  1.4406 -1.2769 -0.5353
 2575SOL    HW2 8304   2.707   0.041   4.398  0.4106 -0.5297  0.1522
 2576SOL     OW 8305   4.272   6.463   9.973 -0.2030  0.0558 -0.3044
 2576SOL    HW1 8306   4.271   6.523   9.898 -2.3329  1.6181  0.8641
 2576SOL    HW2 8307   4.303   6.516  10.046  1.0035 -1.2134  0.1581
 2577SOL     OW 8308   6.166   1.684   7.413 -0.3455 -0.4436  0.4595
 2577SOL    HW1 8309   6.086   1.694   7.361  0.3522  0.4608 -0.5170
 2577SOL    HW2 8310   6.228   1.641   7.353 -0.0142 -0.8788  1.1051
 2578SOL     OW 8311   5.420   5.517   9.629 -0.0059 -0.0488  0.3603
 2578SOL    HW1 8312   5.391   5.460   9.558  0.1309  0.3907 -0.0553
 2578SOL    HW2 8313   5.370   5.489   9.705  0.5260 -1.1504  0.3212
 2579SOL     OW 8314   1.054   6.258   8.238  0.1183  0.5538 -0.4054
 2579SOL    HW1 8315   1.030   6.305   8.318  0.0267 -1.0037  0.5228
 2579SOL    HW2 8316   0.979   6.272   8.179 -1.9489 -1.8942  1.4231
 2580SOL     OW 8317   2.074   7.808   0.039  0.1815  0.2216  0.5432
 2580SOL    HW1 8318   2.126   7.728   0.028 -0.7443 -0.5281  1.4368
 2580SOL    HW2 8319   2.098   7.862  -0.037  0.6621 -0.9900 -0.2087
 2581SOL     OW 8320   4.283   2.472   4.609 -0.6153  0.4134 -0.5902
 2581SOL    HW1 8321   4.200   2.493   4.564 -0.9292  0.5420  0.0411
 2581SOL    HW2 8322   4.256   2.426   4.688  0.0600 -2.7187 -2.0344
 2582SOL     OW 8323   8.251   8.780   9.690 -0.6380 -0.1823  0.1597
 2582SOL    HW1 8324   8.324   8.725   9.664 -1.5535 -1.5936  0.4459
 2582SOL    HW2 8325   8.225   8.824   9.609  0.9024  0.8450  0.1896
 2583SOL     OW 8326  10.004   6.294   1.859  0.0246 -0.4270 -0.0989
 2583SOL    HW1 8327  10.012   6.224   1.794 -1.1418 -0.6255 -0.0599
 2583SOL    HW2 8328   9.914   6.326   1.848  0.9586  2.0777 -1.1175
 2584SOL     OW 8329   6.906   9.527   2.170  0.1682  0.2517  0.5610
 2584SOL    HW1 8330   6.848   9.532   2.093 -0.9649  2.0076  1.4579
 2584SOL    HW2 8331   6.992   9.506   2.134 -0.9070 -2.1384 -0.8587
 2585SOL     OW 8332   8.821   6.950   6.881  0.1595  0.2074 -0.1788
 2585SOL    HW1 8333   8.846   6.864   6.847 -0.6422 -0.2009  0.2325
 2585SOL    HW2 8334   8.897   7.006   6.863  0.5729 -0.5064 -0.7228
 2586SOL     OW 8335   5.041   7.834   5.884  0.1176 -0.7096 -0.7382
 2586SOL    HW1 8336   5.069   7.904   5.824 -1.4128  0.9484  0.3645
 2586SOL    HW2 8337   5.085   7.855   5.966 -2.4022  0.6626  0.3831
 2587SOL     OW 8338   3.645   4.788   1.393 -0.9653  0.4586 -0.4575
 2587SOL    HW1 8339   3.599   4.872   1.396  1.6383  2.0606 -1.4084
 2587SOL    HW2 8340   3.658   4.771   1.300  1.9409  1.1547 -0.2969
 2588SOL     OW 8341   6.566   9.124   2.244  0.0225  0.0722  0.0503
 2588SOL    HW1 8342   6.646   9.175   2.256 -0.5256  0.9653 -0.0387
 2588SOL    HW2 8343   6.496   9.189   2.237 -0.7312 -0.6967  0.2123
 2589SOL     OW 8344   4.360   4.932   1.858 -0.4254 -0.1625  0.1848
 2589SOL    HW1 8345   4.326   4.854   1.815  1.8047 -1.6002  0.8589
 2589SOL    HW2 8346   4.341   5.004   1.798 -1.5927 -1.3685 -0.9387
 2590SOL     OW 8347   5.791   0.527   4.765 -0.0905  0.0299  0.5213
 2590SOL    HW1 8348   5.799   0.493   4.854 -1.5186  0.0319  0.6752
 2590SOL    HW2 8349   5.813   0.453   4.709  0.4457 -0.0798  0.8653
 2591SOL     OW 8350   4.789   7.727   9.455 -0.3876 -0.1575  0.2033
 2591SOL    HW1 8351   4.746   7.700   9.374 -2.2858  0.7809  0.8381
 2591SOL    HW2 8352   4.781   7.652   9.514  1.3124 -0.9731 -0.5474
 2592SOL     OW 8353   3.374   7.831   9.919 -0.2175 -0.0583 -0.3646
 2592SOL    HW1 8354   3.300   7.833   9.979  1.2923 -0.9998  1.6644
 2592SOL    HW2 8355   3.348   7.887   9.846 -2.8411 -0.2756  0.3151
 2593SOL     OW 8356   4.508   0.669   0.065 -0.0521  0.3655 -0.0025
 2593SOL    HW1 8357   4.577   0.706   0.009 -0.6995  0.8259 -0.5054
 2593SOL    HW2 8358   4.454   0.618   0.005 -0.7306  0.8368  0.2005
 2594SOL     OW 8359   9.773   1.079   8.597  0.2086  0.4431  0.5913
 2594SOL    HW1 8360   9.786   1.065   8.503 -1.3517 -0.4374  0.4829
 2594SOL    HW2 8361   9.694   1.029   8.618  1.0873 -0.1987  2.5780
 2595SOL     OW 8362   3.339   0.307   3.004  0.5817  0.4987 -0.4711
 2595SOL    HW1 8363   3.319   0.225   3.050 -0.1352  1.3877  0.8811
 2595SOL    HW2 8364   3.401   0.282   2.936  0.7226 -1.0958  0.1994
 2596SOL     OW 8365   5.243   4.537   7.199 -0.5762 -0.3418 -0.0148
 2596SOL    HW1 8366   5.203   4.573   7.120 -2.4162 -2.0100  0.0770
 2596SOL    HW2 8367   5.182   4.470   7.228  2.0402 -2.7227  0.4675
 2597SOL     OW 8368   4.093   5.321   2.217 -0.0907  0.8015 -0.3104
 2597SOL    HW1 8369   4.141   5.276   2.287 -0.2921  0.1152 -0.6079
 2597SOL    HW2 8370   4.065   5.251   2.159 -3.5346  0.8654  1.0581
 2598SOL     OW 8371   6.928   9.840   0.681 -0.1621 -0.0298 -0.2696
 2598SOL    HW1 8372   6.867   9.813   0.612 -0.8005 -0.2279  0.3555
 2598SOL    HW2 8373   6.980   9.910   0.641 -0.8222  0.1628 -0.8116
 2599SOL     OW 8374   6.880   9.721   3.051 -0.0746 -0.3099  0.0453
 2599SOL    HW1 8375   6.967   9.756   3.031 -0.2637 -0.2627 -0.7288
 2599SOL    HW2 8376   6.886   9.628   3.029  0.0002 -0.4673  0.7200
 2600SOL     OW 8377   6.137   2.096   0.379 -0.4284 -0.0377  0.1798
 2600SOL    HW1 8378   6.083   2.095   0.458  1.7271  0.6909  1.7487
 2600SOL    HW2 8379   6.215   2.145   0.404  0.8963 -0.8893 -2.0329
 2601SOL     OW 8380   9.314   7.917   5.422 -0.1010 -0.0214 -0.2894
 2601SOL    HW1 8381   9.397   7.949   5.386 -1.6850  2.2036 -2.2795
 2601SOL    HW2 8382   9.270   7.876   5.347 -1.6217  0.6607  0.1873
 2602SOL     OW 8383   2.074   8.245   1.849 -0.0187  0.5380 -0.1819
 2602SOL    HW1 8384   2.108   8.274   1.933 -1.2288  0.6764  0.2812
 2602SOL    HW2 8385   2.128   8.170   1.826  1.7006  1.7507 -0.3198
 2603SOL     OW 8386   8.612   7.470   7.676 -0.0816  0.1978 -0.6816
 2603SOL    HW1 8387   8.535   7.477   7.733  0.9846 -0.9155  0.9845
 2603SOL    HW2 8388   8.597   7.389   7.627  0.1157 -0.1344 -0.1999
 2604SOL     OW 8389   4.104   1.076   3.571  0.2802 -0.0015  0.4601
 2604SOL    HW1 8390   4.062   1.159   3.595 -0.2999 -0.4251  0.9343
 2604SOL    HW2 8391   4.040   1.009   3.595  0.7378 -0.5854  0.0592
 2605SOL     OW 8392   7.262   9.654   2.449 -0.1118  0.0755 -0.3110
 2605SOL    HW1 8393   7.176   9.621   2.473 -0.6040  1.1255 -0.5495
 2605SOL    HW2 8394   7.284   9.716   2.519  1.1747 -1.3430  0.5906
 2606SOL     OW 8395   8.027   1.605   7.125  0.2308  0.6076 -0.1009
 2606SOL    HW1 8396   8.059   1.523   7.161 -1.2609 -1.4359 -3.0155
 2606SOL    HW2 8397   8.093   1.629   7.059 -0.7020  0.1920 -1.2100
 2607SOL     OW 8398   0.015   3.257   2.952 -0.2797 -0.0691  0.2993
 2607SOL    HW1 8399   0.022   3.324   2.884 -0.8431 -1.0867 -0.7794
 2607SOL    HW2 8400   0.063   3.182   2.917  1.0482  0.0040  1.8406
 2608SOL     OW 8401   8.237   4.493   2.301  0.1275  0.3861  0.2412
 2608SOL    HW1 8402   8.193   4.536   2.227  3.3293  3.5443 -0.0671
 2608SOL    HW2 8403   8.306   4.440   2.260 -2.3678 -3.7763  0.7752
 2609SOL     OW 8404   3.549   4.438   9.569 -0.3797 -0.1966 -0.2177
 2609SOL    HW1 8405   3.616   4.468   9.508 -1.3067  0.0750 -1.1273
 2609SOL    HW2 8406   3.588   4.360   9.610  0.6213  0.1590 -0.4583
 2610SOL     OW 8407   8.463   4.850   3.248 -0.0409  0.3914 -0.1694
 2610SOL    HW1 8408   8.410   4.855   3.328 -1.9254  0.2547 -1.3442
 2610SOL    HW2 8409   8.433   4.769   3.205  2.5065 -0.7309  0.0001
 2611SOL     OW 8410   1.440   5.650   7.714 -0.6717  0.0833  0.0027
 2611SOL    HW1 8411   1.535   5.640   7.703 -0.8329 -1.7315 -0.0142
 2611SOL    HW2 8412   1.426   5.645   7.809 -0.8642 -0.9217 -0.0739
 2612SOL     OW 8413   5.102   2.339   3.613  0.3188 -0.1520  0.0086
 2612SOL    HW1 8414   5.114   2.378   3.700 -0.3381 -0.9086  0.4450
 2612SOL    HW2 8415   5.076   2.249   3.630 -0.8477 -0.0199 -0.9589
 2613SOL     OW 8416   6.367   2.602   1.068 -0.4482  0.1618 -0.0928
 2613SOL    HW1 8417   6.276   2.577   1.052 -0.3599 -0.3445  0.1724
 2613SOL    HW2 8418   6.384   2.672   1.006 -1.1317  0.5096  0.0994
 2614SOL     OW 8419   8.848   7.831   4.162  0.1023 -0.0177 -0.2731
 2614SOL    HW1 8420   8.920   7.799   4.216  0.6351  0.5765 -0.6192
 2614SOL    HW2 8421   8.823   7.914   4.202  0.7699  0.6300 -1.1470
 2615SOL     OW 8422   7.731   5.019   6.360 -0.2518  0.5269 -0.0004
 2615SOL    HW1 8423   7.779   5.034   6.278  1.1280  1.1828  0.8994
 2615SOL    HW2 8424   7.695   4.931   6.350  1.9069 -0.3820 -0.3692
 2616SOL     OW 8425   3.449   6.887   4.655  0.4468  0.1102 -0.8086
 2616SOL    HW1 8426   3.447   6.923   4.566  0.9747 -1.4708 -1.4907
 2616SOL    HW2 8427   3.376   6.826   4.658 -0.9486  1.7483  0.6115
 2617SOL     OW 8428   1.737   4.917   0.586 -0.1605  0.0507 -0.0695
 2617SOL    HW1 8429   1.664   4.941   0.529  0.4681 -0.1870 -1.0037
 2617SOL    HW2 8430   1.815   4.937   0.534  0.4353  0.0667  0.8132
 2618SOL     OW 8431   2.364   6.499   3.912 -0.0126  0.5041  0.3919
 2618SOL    HW1 8432   2.353   6.417   3.961  1.2449  0.6387  0.9466
 2618SOL    HW2 8433   2.406   6.472   3.831  0.0626  0.5508  0.4152
 2619SOL     OW 8434   9.408   1.488   2.474 -0.5233  0.4402  0.0649
 2619SOL    HW1 8435   9.342   1.420   2.493  0.4719 -0.9142 -1.1462
 2619SOL    HW2 8436   9.487   1.439   2.450  0.6701  2.0386  0.5729
 2620SOL     OW 8437   8.019   2.336   3.223 -0.3027  0.9729  0.2448
 2620SOL    HW1 8438   8.041   2.362   3.312 -0.8693  0.6064  0.5018
 2620SOL    HW2 8439   8.073   2.391   3.167 -0.2728  1.5263  0.8088
 2621SOL     OW 8440   5.408   8.770   8.515 -0.3402  0.2827 -0.2831
 2621SOL    HW1 8441   5.324   8.804   8.544 -1.8287 -1.5763 -2.0800
 2621SOL    HW2 8442   5.424   8.694   8.571  0.7526  1.2746  0.7965
 2622SOL     OW 8443   2.844   0.933   0.455 -0.3908 -0.0503  0.3534
 2622SOL    HW1 8444   2.862   0.856   0.401  1.6420  0.5638  0.0752
 2622SOL    HW2 8445   2.749   0.934   0.464 -0.6573 -1.1825 -1.7136
 2623SOL     OW 8446   0.596   6.471   4.299 -0.5436  0.1966 -0.2356
 2623SOL    HW1 8447   0.636   6.506   4.378 -0.7638 -2.0496  0.9487
 2623SOL    HW2 8448   0.655   6.498   4.228  1.6894 -0.8176  1.1431
 2624SOL     OW 8449   9.454   2.554   8.078 -0.6589  0.4040 -0.0425
 2624SOL    HW1 8450   9.373   2.505   8.095  0.5173 -1.7635 -0.2553
 2624SOL    HW2 8451   9.505   2.544   8.159  0.2781 -0.1697 -0.6832
 2625SOL     OW 8452   8.417   1.892   6.249 -0.5305  0.2079  0.3688
 2625SOL    HW1 8453   8.331   1.904   6.209 -0.3573 -1.9516 -0.8029
 2625SOL    HW2 8454   8.457   1.979   6.247 -1.3503  0.6014 -2.2588
 2626SOL     OW 8455   6.755   9.923   5.463  0.4020 -0.3727  0.0280
 2626SOL    HW1 8456   6.796   9.979   5.528 -1.6816  2.5648 -1.0014
 2626SOL    HW2 8457   6.661   9.931   5.478 -0.0869 -1.0433 -2.1850
 2627SOL     OW 8458   1.123   5.749   7.045  0.0084 -0.2432  0.3491
 2627SOL    HW1 8459   1.183   5.675   7.035 -0.4920 -0.4948 -0.8717
 2627SOL    HW2 8460   1.162   5.801   7.116  0.3683 -1.6521  1.2228
 2628SOL     OW 8461   8.628   4.535   2.237 -0.8896  0.8512  0.2206
 2628SOL    HW1 8462   8.714   4.561   2.207 -0.0470  0.4030  2.1024
 2628SOL    HW2 8463   8.598   4.607   2.293 -0.7483  0.0596  1.3516
 2629SOL     OW 8464   0.681   5.266   8.202 -0.1375  0.0662  0.8787
 2629SOL    HW1 8465   0.676   5.177   8.168  0.8932 -0.2017  1.3790
 2629SOL    HW2 8466   0.715   5.255   8.291  0.7890  1.0113  0.6508
 2630SOL     OW 8467   8.044   2.610   6.095  0.2538 -0.1940  0.0980
 2630SOL    HW1 8468   8.114   2.548   6.114  1.0047  0.8554  0.8897
 2630SOL    HW2 8469   8.003   2.577   6.015  0.3003 -1.9614  0.7667
 2631SOL     OW 8470   1.845   5.700   8.328 -0.0777  0.0467 -0.0776
 2631SOL    HW1 8471   1.878   5.659   8.408 -1.7122 -1.3301 -0.0576
 2631SOL    HW2 8472   1.800   5.778   8.359 -0.3517 -0.2587  0.3039
 2632SOL     OW 8473   5.048   6.424   0.878 -0.5439 -0.6790  0.6469
 2632SOL    HW1 8474   4.956   6.401   0.862 -0.2710 -1.8306  0.6261
 2632SOL    HW2 8475   5.072   6.373   0.955  0.1463 -0.5536  0.5153
 2633SOL     OW 8476   5.691   8.847   3.466 -0.3768  0.0643 -0.6251
 2633SOL    HW1 8477   5.620   8.786   3.489  0.9598 -1.2686  0.1037
 2633SOL    HW2 8478   5.683   8.857   3.371  0.9263 -3.4184 -1.2617
 2634SOL     OW 8479   2.245   5.147   6.929  0.0026 -0.2825 -0.0125
 2634SOL    HW1 8480   2.207   5.159   6.842  0.3257  3.3283  0.1694
 2634SOL    HW2 8481   2.176   5.103   6.979 -0.6857 -1.2639 -1.7336
 2635SOL     OW 8482   9.150   3.559   2.850 -0.0772  0.6845  0.2034
 2635SOL    HW1 8483   9.217   3.520   2.794 -1.4182 -0.9342 -0.3638
 2635SOL    HW2 8484   9.151   3.504   2.929 -2.8779 -1.5183 -1.1291
 2636SOL     OW 8485   8.867   0.886   3.957 -0.1942 -0.0575 -0.2597
 2636SOL    HW1 8486   8.931   0.923   3.896  0.8139 -0.0233  0.7935
 2636SOL    HW2 8487   8.870   0.792   3.942  0.7064 -0.1356  0.3291
 2637SOL     OW 8488   2.168   3.098   9.805 -0.1176 -0.0014  0.1037
 2637SOL    HW1 8489   2.196   3.170   9.749  1.4087 -0.8465 -0.2847
 2637SOL    HW2 8490   2.132   3.033   9.745  0.0587 -0.2501  0.2631
 2638SOL     OW 8491   1.340   2.864   3.894 -0.4213 -0.4720 -0.0425
 2638SOL    HW1 8492   1.258   2.877   3.941 -0.2988  0.5246 -0.0863
 2638SOL    HW2 8493   1.404   2.843   3.962 -0.4766 -0.1351  0.1119
 2639SOL     OW 8494   7.264   3.910   2.136 -0.3700  0.0068  0.5167
 2639SOL    HW1 8495   7.299   3.836   2.186  0.7761  1.9568  2.8240
 2639SOL    HW2 8496   7.239   3.974   2.202 -2.1426  1.3736 -1.3567
 2640SOL     OW 8497   2.571   4.523   5.181  0.0360  0.1540 -0.4250
 2640SOL    HW1 8498   2.568   4.547   5.089 -1.7640  0.1139 -0.4198
 2640SOL    HW2 8499   2.634   4.451   5.186 -0.0625 -0.0272 -1.6658
 2641SOL     OW 8500   3.876   4.571   9.592  0.4830 -0.2466 -0.5281
 2641SOL    HW1 8501   3.831   4.487   9.594  0.6104 -0.4611 -3.2086
 2641SOL    HW2 8502   3.903   4.582   9.500  1.9769  1.9255  0.0899
 2642SOL     OW 8503   3.797   6.215   9.163  0.1261 -0.1177 -0.3053
 2642SOL    HW1 8504   3.829   6.166   9.087  1.9549 -2.7677  1.9550
 2642SOL    HW2 8505   3.716   6.172   9.187 -0.3845  0.6387 -0.6291
 2643SOL     OW 8506   0.551   5.868   5.060  0.1264  0.3741 -0.0815
 2643SOL    HW1 8507   0.636   5.823   5.057 -0.7979 -1.5400  0.7343
 2643SOL    HW2 8508   0.558   5.935   4.992  2.1481  0.0310 -0.2957
 2644SOL     OW 8509   5.292   9.933   0.523  0.1982 -0.9202 -0.0832
 2644SOL    HW1 8510   5.277   9.981   0.441 -0.6519 -0.7476  0.1641
 2644SOL    HW2 8511   5.320  10.000   0.585  0.5318 -1.0013 -0.1425
 2645SOL     OW 8512   2.819   7.945   3.897  0.6547 -0.1465 -0.1028
 2645SOL    HW1 8513   2.815   8.020   3.837  3.2638  0.1317 -0.0422
 2645SOL    HW2 8514   2.840   7.983   3.982  0.5852 -0.8477  0.2351
 2646SOL     OW 8515   0.853   2.063   5.314 -0.6710 -0.0339  0.2883
 2646SOL    HW1 8516   0.922   2.081   5.251 -0.9894 -1.9888 -0.7006
 2646SOL    HW2 8517   0.773   2.059   5.261 -1.6527  2.3332  1.4177
 2647SOL     OW 8518   9.563   4.678   3.765 -0.3248 -0.1902  0.4438
 2647SOL    HW1 8519   9.484   4.689   3.819  0.2942  2.4918  0.9887
 2647SOL    HW2 8520   9.569   4.760   3.716  1.6843 -0.6808 -0.2051
 2648SOL     OW 8521   3.245   0.283   3.607 -0.3236  0.2764 -0.1417
 2648SOL    HW1 8522   3.172   0.328   3.649  1.6629  2.5736  1.1135
 2648SOL    HW2 8523   3.281   0.347   3.546  0.0432 -1.1751 -1.5174
 2649SOL     OW 8524   7.203   8.718   8.597  0.1836  1.2035 -0.5635
 2649SOL    HW1 8525   7.291   8.700   8.631  1.1035 -0.0483 -3.2154
 2649SOL    HW2 8526   7.199   8.813   8.590  1.0121  1.3234  0.3949
 2650SOL     OW 8527   7.209   4.342   2.219 -0.8045  0.0232  0.3503
 2650SOL    HW1 8528   7.297   4.347   2.180 -1.1496  1.3551 -0.3070
 2650SOL    HW2 8529   7.150   4.346   2.144 -1.4518 -1.0063  0.7773
 2651SOL     OW 8530   5.287   6.082   6.432 -0.5828  0.4156 -0.1446
 2651SOL    HW1 8531   5.236   6.059   6.510 -0.9007 -1.8628 -0.9489
 2651SOL    HW2 8532   5.371   6.038   6.445 -0.3190  0.7412 -0.7188
 2652SOL     OW 8533   8.891   4.250   3.380  0.1219  0.3954  0.0288
 2652SOL    HW1 8534   8.881   4.333   3.426 -0.6549  1.1271 -1.3932
 2652SOL    HW2 8535   8.838   4.260   3.300  1.3733 -0.8212 -1.0061
 2653SOL     OW 8536   1.293   4.470   5.799 -0.2662  0.2696  0.3758
 2653SOL    HW1 8537   1.382   4.500   5.816  0.1253 -1.0369  0.7636
 2653SOL    HW2 8538   1.290   4.382   5.838 -0.4689 -1.3562 -2.9086
 2654SOL     OW 8539   2.783   4.338   4.921  0.2628  0.0818 -0.4639
 2654SOL    HW1 8540   2.752   4.286   4.847 -0.4515 -0.7822  0.4144
 2654SOL    HW2 8541   2.838   4.405   4.882  0.9369 -1.1301 -1.6736
 2655SOL     OW 8542   6.901   9.650   4.076  0.2487  0.2999  0.2837
 2655SOL    HW1 8543   6.954   9.610   4.145 -0.8608  1.3058  1.7891
 2655SOL    HW2 8544   6.811   9.621   4.095  0.0519 -0.2630 -1.3945
 2656SOL     OW 8545   8.594   3.497   6.008  0.5282 -0.3322  0.0582
 2656SOL    HW1 8546   8.598   3.576   6.062  0.6285  1.1893 -2.0040
 2656SOL    HW2 8547   8.501   3.482   5.993  0.5340 -0.0061 -0.3276
 2657SOL     OW 8548   0.482   6.688   7.290  0.3297  0.1348 -0.2915
 2657SOL    HW1 8549   0.563   6.727   7.257  0.8515 -0.6183  0.0514
 2657SOL    HW2 8550   0.469   6.728   7.376  0.1284  0.5343 -0.5060
 2658SOL     OW 8551   9.591   0.070   7.983  0.2946 -0.4021  0.3388
 2658SOL    HW1 8552   9.600   0.102   7.893  1.1438 -2.2782 -0.2951
 2658SOL    HW2 8553   9.500   0.091   8.006  0.6647  2.0289 -0.1239
 2659SOL     OW 8554   7.034   0.274   3.482 -0.1765 -0.5181 -0.1074
 2659SOL    HW1 8555   7.103   0.209   3.500  1.2514  1.0532  0.3628
 2659SOL    HW2 8556   7.071   0.357   3.513 -1.9310  0.5404 -0.7221
 2660SOL     OW 8557   5.668   4.053   8.911  0.3422  0.0015  0.0529
 2660SOL    HW1 8558   5.641   4.133   8.866  0.2703 -0.6337 -1.0770
 2660SOL    HW2 8559   5.689   4.081   9.000 -1.4125  0.9921  0.2059
 2661SOL     OW 8560   1.720   8.453   1.687 -0.0906  0.1058 -0.2903
 2661SOL    HW1 8561   1.709   8.452   1.782 -1.7493  1.5211 -0.4262
 2661SOL    HW2 8562   1.648   8.400   1.654  0.6665 -0.6458 -0.7687
 2662SOL     OW 8563   8.730   9.813   0.062 -0.6540 -0.2823 -0.3012
 2662SOL    HW1 8564   8.762   9.896   0.097 -1.8472 -0.2955  0.8877
 2662SOL    HW2 8565   8.809   9.760   0.049 -0.0780  0.1297  1.3613
 2663SOL     OW 8566   6.987   5.521   4.424  0.0805  0.3133 -0.2729
 2663SOL    HW1 8567   6.989   5.543   4.517 -0.8093  1.0769 -0.4197
 2663SOL    HW2 8568   6.915   5.573   4.389  1.0375  0.7717 -1.5946
 2664SOL     OW 8569   0.983   4.427   7.441 -0.2516  0.0555  0.4313
 2664SOL    HW1 8570   0.912   4.378   7.483 -2.0981  1.6817 -0.6179
 2664SOL    HW2 8571   0.978   4.403   7.348  1.0532 -0.3273  0.4365
 2665SOL     OW 8572   5.591   9.993   7.142 -0.0209 -0.2125 -0.3649
 2665SOL    HW1 8573   5.644   9.996   7.063 -0.3866  1.0342 -0.5918
 2665SOL    HW2 8574   5.590   9.901   7.168  2.2076 -0.2828 -0.3670
 2666SOL     OW 8575   3.322   3.298   0.840 -0.2607 -0.2040 -0.3227
 2666SOL    HW1 8576   3.294   3.353   0.767 -0.6782 -0.0492 -0.0501
 2666SOL    HW2 8577   3.244   3.248   0.863  0.4221 -1.8684 -1.3931
 2667SOL     OW 8578   8.499   1.634   2.254  0.0391  0.1422 -0.5867
 2667SOL    HW1 8579   8.460   1.715   2.287  2.1241  0.3619  1.5774
 2667SOL    HW2 8580   8.503   1.576   2.330  1.2215 -0.9176 -1.4151
 2668SOL     OW 8581   9.126   8.296   3.671  0.0035  0.0802 -0.0892
 2668SOL    HW1 8582   9.212   8.334   3.686  0.0262 -0.3918  1.1214
 2668SOL    HW2 8583   9.125   8.217   3.725 -1.2435  0.1673  0.0545
 2669SOL     OW 8584   5.347   2.634   5.708  0.0143 -0.6194 -0.5628
 2669SOL    HW1 8585   5.367   2.689   5.631  0.5146 -0.7673 -0.5388
 2669SOL    HW2 8586   5.330   2.547   5.671  0.6376 -0.7822 -0.4767
 2670SOL     OW 8587   7.996   2.885   3.390  0.0066 -0.0014 -0.0649
 2670SOL    HW1 8588   7.956   2.842   3.314 -1.3284  0.5100  0.3076
 2670SOL    HW2 8589   7.945   2.966   3.400  1.9572  1.3037 -0.2980
 2671SOL     OW 8590   8.612   9.815   0.961 -0.2735  0.6229 -0.5612
 2671SOL    HW1 8591   8.613   9.848   1.051  1.6196 -0.3486 -0.1738
 2671SOL    HW2 8592   8.524   9.780   0.949 -0.3846  0.2542  1.1008
 2672SOL     OW 8593   7.263   4.390   7.338 -0.5879  0.8326 -0.6300
 2672SOL    HW1 8594   7.237   4.442   7.414 -1.4833  1.2744 -1.2266
 2672SOL    HW2 8595   7.333   4.440   7.296  2.0776 -0.7967  1.5021
 2673SOL     OW 8596   8.207   8.177   1.900 -0.4218 -0.1322 -0.0495
 2673SOL    HW1 8597   8.257   8.103   1.867 -0.3666 -0.1678  0.1091
 2673SOL    HW2 8598   8.141   8.195   1.833  0.1187  0.2287 -0.4946
 2674SOL     OW 8599   0.891   5.545   0.325 -0.1706  0.1944 -0.3287
 2674SOL    HW1 8600   0.942   5.538   0.405  2.7336 -2.0969 -2.2128
 2674SOL    HW2 8601   0.844   5.462   0.318  1.7791 -0.8391 -2.2596
 2675SOL     OW 8602   7.721   4.290   9.805 -0.2559 -0.0444 -0.5837
 2675SOL    HW1 8603   7.626   4.299   9.791 -0.1976  1.1750 -0.3503
 2675SOL    HW2 8604   7.728   4.250   9.892 -0.5601 -0.1633 -0.6103
 2676SOL     OW 8605   6.075   0.068   8.256  0.3688 -0.1155 -0.7996
 2676SOL    HW1 8606   6.105   0.053   8.346  1.5329  1.7485 -0.8436
 2676SOL    HW2 8607   6.124   0.004   8.204 -0.2999 -1.1951 -0.1611
 2677SOL     OW 8608   7.553   1.477   4.496 -0.0932  0.0607 -0.6387
 2677SOL    HW1 8609   7.525   1.506   4.583  1.5042  1.7150 -0.6269
 2677SOL    HW2 8610   7.505   1.395   4.482 -1.7165  0.6482  1.0521
 2678SOL     OW 8611   0.210   6.318   5.636 -0.3599  0.4716 -0.3733
 2678SOL    HW1 8612   0.153   6.243   5.649  0.5874 -0.2595 -0.3354
 2678SOL    HW2 8613   0.263   6.322   5.716  0.5825  0.2892 -0.9693
 2679SOL     OW 8614   7.079   2.272   1.054  0.5835  0.8111 -0.1583
 2679SOL    HW1 8615   6.991   2.235   1.048  0.7600  0.6545 -3.7296
 2679SOL    HW2 8616   7.065   2.367   1.063  0.0572  0.7668 -0.4905
 2680SOL     OW 8617   9.485   3.633   2.692  0.6123 -0.3225 -0.1950
 2680SOL    HW1 8618   9.514   3.654   2.603 -1.6867 -1.3849 -1.2763
 2680SOL    HW2 8619   9.462   3.718   2.730 -0.1611  0.0029 -1.3260
 2681SOL     OW 8620   1.875   7.087   3.727  0.3779  0.4943 -0.5206
 2681SOL    HW1 8621   1.816   7.085   3.652 -0.6036  0.0605  0.2312
 2681SOL    HW2 8622   1.831   7.033   3.793  0.0551  2.7072  1.1884
 2682SOL     OW 8623   3.331   6.447   8.741 -0.0291  0.2732  0.5675
 2682SOL    HW1 8624   3.395   6.470   8.675 -0.2022 -1.1002 -0.1135
 2682SOL    HW2 8625   3.251   6.493   8.715 -0.2853 -0.7568 -0.5940
 2683SOL     OW 8626   8.711   4.240   5.615 -0.1079 -0.0608  0.0214
 2683SOL    HW1 8627   8.622   4.274   5.609 -0.7672 -1.2452  1.9968
 2683SOL    HW2 8628   8.766   4.307   5.574 -2.0229 -0.0604 -2.7684
 2684SOL     OW 8629   4.340   6.536   3.017 -0.1599 -0.1387  0.8001
 2684SOL    HW1 8630   4.262   6.531   3.072 -0.3954  0.2381  0.5099
 2684SOL    HW2 8631   4.319   6.483   2.940  0.0396 -0.3968  0.9243
 2685SOL     OW 8632   9.313   2.796   4.445  0.0588 -0.1452  0.0114
 2685SOL    HW1 8633   9.316   2.701   4.439 -0.9987 -0.1323 -1.2951
 2685SOL    HW2 8634   9.390   2.826   4.397 -0.3595 -0.3394 -0.8038
 2686SOL     OW 8635   8.303   2.313   7.076  0.6277  0.6982 -0.5539
 2686SOL    HW1 8636   8.286   2.234   7.127  1.4189  0.2420 -0.9787
 2686SOL    HW2 8637   8.237   2.375   7.105 -0.4763 -0.3578 -0.7354
 2687SOL     OW 8638   1.576   8.867   7.303 -0.2597 -0.1773  0.3511
 2687SOL    HW1 8639   1.631   8.790   7.285 -1.6560 -1.0339 -0.4785
 2687SOL    HW2 8640   1.492   8.845   7.263 -0.2681  2.4513 -1.3122
 2688SOL     OW 8641   3.472   0.677   4.306 -0.2268  0.1106 -0.5159
 2688SOL    HW1 8642   3.535   0.737   4.266  1.7971 -0.0644  2.1219
 2688SOL    HW2 8643   3.510   0.590   4.294  0.1341  0.0097  1.1532
 2689SOL     OW 8644   6.629   1.945   1.714 -0.0902  0.2996  0.3149
 2689SOL    HW1 8645   6.615   1.915   1.624 -0.3066 -0.4308  0.5869
 2689SOL    HW2 8646   6.553   2.000   1.734 -1.4377 -1.7032  0.9593
 2690SOL     OW 8647   9.632   1.145   0.354  0.5094  0.1031  0.2669
 2690SOL    HW1 8648   9.542   1.142   0.387  0.1574 -1.7238 -0.6700
 2690SOL    HW2 8649   9.683   1.182   0.426 -0.4701 -2.0899  2.2359
 2691SOL     OW 8650   9.505   0.238   2.573  0.0653  0.1664 -0.2557
 2691SOL    HW1 8651   9.595   0.268   2.562  0.1804 -0.3629 -0.8421
 2691SOL    HW2 8652   9.479   0.270   2.659  0.7974  0.3578 -0.0982
 2692SOL     OW 8653   4.706   2.660   7.548  0.3420 -0.1818 -0.0016
 2692SOL    HW1 8654   4.667   2.706   7.473  0.8340 -0.1511 -0.2447
 2692SOL    HW2 8655   4.651   2.685   7.622 -0.1145 -0.1608 -0.3418
 2693SOL     OW 8656   8.284   2.104   3.143 -0.6195  0.3167  0.2352
 2693SOL    HW1 8657   8.333   2.126   3.222 -0.0172  0.9986 -0.3204
 2693SOL    HW2 8658   8.264   2.188   3.102  1.0957 -0.0697 -1.5537
 2694SOL     OW 8659   0.288   8.858   6.681 -0.1097 -0.4577  0.1450
 2694SOL    HW1 8660   0.216   8.848   6.744  0.8122 -0.2736  1.2718
 2694SOL    HW2 8661   0.277   8.785   6.621 -0.6014 -1.0757  0.9595
 2695SOL     OW 8662   2.612   4.639   4.945  0.2690 -0.4078 -0.2141
 2695SOL    HW1 8663   2.580   4.673   4.862  0.6138  1.8977  0.5239
 2695SOL    HW2 8664   2.707   4.647   4.939  0.2575  0.6006  0.6981
 2696SOL     OW 8665   4.270   8.341   0.718  0.5091 -0.1424 -0.5984
 2696SOL    HW1 8666   4.361   8.314   0.728  0.4058 -0.0125  0.8668
 2696SOL    HW2 8667   4.270   8.433   0.741  0.0285 -0.1015 -0.7574
 2697SOL     OW 8668   0.052   1.689   3.530 -0.3192 -0.7629 -0.3489
 2697SOL    HW1 8669   0.068   1.670   3.622 -0.4696 -0.7807 -0.3273
 2697SOL    HW2 8670   0.135   1.668   3.487  0.2543  0.7228 -0.0030
 2698SOL     OW 8671   1.498   2.962   8.404 -0.5428  0.5225  0.1272
 2698SOL    HW1 8672   1.508   3.049   8.364  2.2016  0.0869 -0.3391
 2698SOL    HW2 8673   1.564   2.959   8.473  0.3245 -1.5850 -0.6944
 2699SOL     OW 8674   8.854   8.116   3.651 -0.3612 -0.1669 -0.0165
 2699SOL    HW1 8675   8.915   8.174   3.605 -0.9964  0.8556  0.3956
 2699SOL    HW2 8676   8.892   8.107   3.739  1.2222 -2.6760 -0.8538
 2700SOL     OW 8677   5.576   3.105   8.224 -0.0673 -0.3692 -0.4136
 2700SOL    HW1 8678   5.518   3.113   8.148 -0.3689  1.3709 -0.0397
 2700SOL    HW2 8679   5.660   3.078   8.187 -0.1279  0.7382 -1.4280
 2701SOL     OW 8680   6.373   5.159   4.179  0.6469 -0.2921  0.4070
 2701SOL    HW1 8681   6.466   5.180   4.170  0.7905 -1.1021 -0.0193
 2701SOL    HW2 8682   6.371   5.071   4.215  0.0355 -0.1662  0.7015
 2702SOL     OW 8683   3.617   9.698   8.410 -0.1220  0.0946  0.0020
 2702SOL    HW1 8684   3.554   9.768   8.393  1.5454  1.0554 -3.0328
 2702SOL    HW2 8685   3.691   9.742   8.452 -0.5804 -0.6308  1.6253
 2703SOL     OW 8686   8.936   1.958   1.362  0.4695 -0.0043 -0.1632
 2703SOL    HW1 8687   8.842   1.977   1.362  0.7501  1.5693 -0.6141
 2703SOL    HW2 8688   8.964   1.981   1.273  1.1430 -1.3304 -0.3203
 2704SOL     OW 8689   5.788   7.817   8.376  0.3808  0.1658 -0.3181
 2704SOL    HW1 8690   5.748   7.748   8.428 -0.3449  0.8471  0.0592
 2704SOL    HW2 8691   5.857   7.774   8.326  0.8024 -0.5833  0.8808
 2705SOL     OW 8692   4.618   4.571   6.998 -0.0758 -0.5185  0.1393
 2705SOL    HW1 8693   4.676   4.496   6.986 -2.3274 -2.8845  2.7836
 2705SOL    HW2 8694   4.541   4.551   6.945 -0.6316 -0.0130  0.7400
 2706SOL     OW 8695   7.860   7.700  -0.013 -0.2345  0.7832 -0.0061
 2706SOL    HW1 8696   7.830   7.631   0.046  1.0174 -0.5960 -0.8991
 2706SOL    HW2 8697   7.914   7.757   0.041  0.9402 -0.4927  0.2141
 2707SOL     OW 8698   2.257   3.551   2.122 -0.0135  0.0037 -0.8216
 2707SOL    HW1 8699   2.215   3.560   2.208 -0.2635  1.8154 -1.1036
 2707SOL    HW2 8700   2.347   3.580   2.137  0.0160  0.0562 -1.1106
 2708SOL     OW 8701   6.509   4.039   6.669 -0.5323  0.5406 -0.0161
 2708SOL    HW1 8702   6.446   3.967   6.668  0.1021 -0.0252  0.2898
 2708SOL    HW2 8703   6.542   4.042   6.759  1.2038 -0.3607 -0.5755
 2709SOL     OW 8704   8.193   9.965   6.738  0.5310 -0.5989  0.3619
 2709SOL    HW1 8705   8.180   9.871   6.720 -1.1206 -0.2689 -0.3390
 2709SOL    HW2 8706   8.219  10.001   6.654  0.1139 -0.2621  0.3758
 2710SOL     OW 8707   2.124   0.372   2.324  0.5107  0.0977 -0.3205
 2710SOL    HW1 8708   2.088   0.284   2.313  0.8535 -0.3256  1.5333
 2710SOL    HW2 8709   2.053   0.423   2.361  1.0207 -0.0700  0.9370
 2711SOL     OW 8710   9.178   1.234   6.244 -0.1898  0.8227  0.7249
 2711SOL    HW1 8711   9.273   1.238   6.257 -0.1828  0.0426  0.9736
 2711SOL    HW2 8712   9.142   1.243   6.332 -0.3194  0.5428  0.7021
 2712SOL     OW 8713   7.577   9.845   2.350 -0.6131  0.7631 -0.4388
 2712SOL    HW1 8714   7.607   9.919   2.296  0.9535 -0.2147 -0.9428
 2712SOL    HW2 8715   7.571   9.772   2.289 -2.0354  0.4048  0.0874
 2713SOL     OW 8716   5.622   3.916   4.066  0.1736 -0.7286  0.5816
 2713SOL    HW1 8717   5.631   3.931   3.972  2.6023 -1.2392  0.6704
 2713SOL    HW2 8718   5.576   3.993   4.099 -2.2630 -1.3081 -1.2061
 2714SOL     OW 8719   9.042   5.261   1.327  0.0920 -0.1833 -0.3347
 2714SOL    HW1 8720   9.001   5.345   1.309  1.1063  0.1996 -0.9387
 2714SOL    HW2 8721   9.116   5.282   1.384  0.1237 -0.7124 -0.1730
 2715SOL     OW 8722   3.232   0.164   5.584 -0.4385 -0.0462  0.0026
 2715SOL    HW1 8723   3.164   0.230   5.602  0.2478  0.1991  2.0330
 2715SOL    HW2 8724   3.232   0.154   5.489 -2.5340  0.7697 -0.1314
 2716SOL     OW 8725   9.573   6.793   2.336 -0.1433 -0.2362 -0.3650
 2716SOL    HW1 8726   9.482   6.762   2.337 -0.1211 -0.2922  0.5872
 2716SOL    HW2 8727   9.581   6.839   2.252 -0.9853 -0.4169 -0.5574
 2717SOL     OW 8728   5.838   0.060   8.872 -0.4349  0.1029 -0.1868
 2717SOL    HW1 8729   5.800   0.052   8.959  0.8499  2.4299  0.6922
 2717SOL    HW2 8730   5.796   0.137   8.834  1.7670  1.4965  0.0120
 2718SOL     OW 8731   6.180   5.001   3.351 -0.3111 -0.1519  0.6596
 2718SOL    HW1 8732   6.193   4.906   3.347 -1.6770 -0.3775  1.1859
 2718SOL    HW2 8733   6.099   5.012   3.400  1.2241  1.3823  3.0882
 2719SOL     OW 8734   8.977   0.709   7.269  0.2105  0.5209  0.0948
 2719SOL    HW1 8735   8.981   0.655   7.347 -0.3664 -1.4616 -1.1733
 2719SOL    HW2 8736   9.061   0.696   7.225 -0.0740  0.3381 -0.4084
 2720SOL     OW 8737   2.028   2.410   6.737  0.0312  0.2676 -0.4646
 2720SOL    HW1 8738   2.050   2.430   6.647 -0.8335 -1.7989 -1.1904
 2720SOL    HW2 8739   1.961   2.341   6.731  0.7852 -0.7521  1.7405
 2721SOL     OW 8740   7.583   6.511   2.073 -0.2891  0.4879 -0.6926
 2721SOL    HW1 8741   7.556   6.600   2.096 -4.2040 -0.6697  0.0041
 2721SOL    HW2 8742   7.546   6.496   1.986  0.8254 -0.2791 -1.0522
 2722SOL     OW 8743   4.509   0.289   9.425 -0.4169  0.2707 -0.0833
 2722SOL    HW1 8744   4.489   0.292   9.332  0.2150  0.5553 -0.2091
 2722SOL    HW2 8745   4.530   0.197   9.442  1.0912  0.4946 -0.5745
 2723SOL     OW 8746   9.090   4.726   3.093 -0.2124  0.8450  0.0328
 2723SOL    HW1 8747   9.033   4.775   3.153 -0.5823  0.8105 -0.2908
 2723SOL    HW2 8748   9.105   4.785   3.020  1.0773  1.2828  0.6155
 2724SOL     OW 8749   7.939   3.166   7.806  0.0612  0.2776 -0.1501
 2724SOL    HW1 8750   7.996   3.242   7.809  0.6190 -0.1626  1.9580
 2724SOL    HW2 8751   7.858   3.198   7.766  1.2579  1.2375 -1.9318
 2725SOL     OW 8752   1.174   4.234   3.416  0.0552  0.2238 -0.2183
 2725SOL    HW1 8753   1.210   4.316   3.384  1.8621 -0.3132  0.3084
 2725SOL    HW2 8754   1.244   4.196   3.470 -1.2850 -0.9380  0.7951
 2726SOL     OW 8755   5.236   0.381   4.557 -0.3054 -0.1876  0.9144
 2726SOL    HW1 8756   5.255   0.474   4.543 -2.0298  0.3148  1.6091
 2726SOL    HW2 8757   5.277   0.337   4.483  2.0638  0.8993  1.4821
 2727SOL     OW 8758   6.917   8.072   4.589  0.6350 -0.8674  0.3848
 2727SOL    HW1 8759   6.838   8.018   4.583 -0.3835  0.4897  1.0592
 2727SOL    HW2 8760   6.890   8.158   4.557  2.3788 -0.8577 -1.2421
 2728SOL     OW 8761   6.630   7.990   2.158  0.1142  0.6397 -0.9494
 2728SOL    HW1 8762   6.595   7.934   2.088 -0.5963 -0.1511 -0.0041
 2728SOL    HW2 8763   6.677   8.059   2.112 -1.7671  1.1293 -2.2795
 2729SOL     OW 8764   5.282   4.617   7.445  0.3540  0.8552 -0.3340
 2729SOL    HW1 8765   5.319   4.536   7.479  1.0243  1.1835 -0.2709
 2729SOL    HW2 8766   5.261   4.598   7.354  0.8493  0.7154 -0.4215
 2730SOL     OW 8767   3.122   5.772   8.035  0.3751 -1.0321  0.0438
 2730SOL    HW1 8768   3.152   5.708   8.099  1.0269  0.0813  0.8872
 2730SOL    HW2 8769   3.028   5.779   8.051  0.3053 -1.7356 -0.0262
 2731SOL     OW 8770   1.773   2.798   9.863  0.0300 -0.1909 -0.2290
 2731SOL    HW1 8771   1.837   2.728   9.857  2.1788  1.5351  0.7891
 2731SOL    HW2 8772   1.790   2.853   9.786 -0.3286  0.1782 -0.0474
 2732SOL     OW 8773   0.991   5.063   3.553  0.2491  0.4007 -0.0759
 2732SOL    HW1 8774   0.912   5.114   3.568  0.7075  0.8109  1.0401
 2732SOL    HW2 8775   0.977   4.981   3.601  0.7380  0.7239  0.6315
 2733SOL     OW 8776   9.322   5.765   2.371  0.3527  0.3783  0.1516
 2733SOL    HW1 8777   9.251   5.803   2.423  0.6275  0.2735  0.6082
 2733SOL    HW2 8778   9.374   5.839   2.343 -0.5015  0.5490 -1.0423
 2734SOL     OW 8779   5.974   7.965   1.350  0.0323 -0.2258  0.3883
 2734SOL    HW1 8780   6.038   7.998   1.414 -0.9499  0.3217  1.1033
 2734SOL    HW2 8781   6.028   7.939   1.275  1.0995  0.2315  0.9635
 2735SOL     OW 8782   8.241   4.907   2.280 -0.6133 -0.3338 -0.6285
 2735SOL    HW1 8783   8.236   4.996   2.246 -1.0808 -0.5583 -1.1648
 2735SOL    HW2 8784   8.159   4.866   2.252 -0.7827 -0.6851  0.3381
 2736SOL     OW 8785   3.597   0.689   8.977 -0.3909 -0.2235 -0.5879
 2736SOL    HW1 8786   3.602   0.595   8.993 -0.7323 -0.1592 -0.0737
 2736SOL    HW2 8787   3.503   0.709   8.980 -0.2796  0.2432 -0.0029
 2737SOL     OW 8788   1.135   2.201   2.591 -0.1052  0.5777 -0.0094
 2737SOL    HW1 8789   1.088   2.275   2.554 -1.7109 -0.2550  0.2746
 2737SOL    HW2 8790   1.190   2.239   2.660 -0.4823  1.5599 -0.2367
 2738SOL     OW 8791   5.327   4.078   0.248  0.4584 -0.0084  0.0366
 2738SOL    HW1 8792   5.239   4.115   0.255  0.4369 -0.2705  1.7295
 2738SOL    HW2 8793   5.381   4.149   0.215  0.2607  1.3527  2.4061
 2739SOL     OW 8794   2.663   0.338   3.464 -0.3584  0.5482 -0.6677
 2739SOL    HW1 8795   2.662   0.371   3.554 -1.8183 -0.7068 -0.1706
 2739SOL    HW2 8796   2.619   0.407   3.413 -1.9548  0.1320  0.0776
 2740SOL     OW 8797   5.724   8.212   9.449  0.3052  0.1097 -0.1298
 2740SOL    HW1 8798   5.730   8.187   9.357  1.1705  0.4621 -0.1822
 2740SOL    HW2 8799   5.650   8.272   9.454 -0.9710 -1.4083 -0.2381
 2741SOL     OW 8800   8.329   5.028   0.207 -0.5586 -0.3836  0.6730
 2741SOL    HW1 8801   8.261   4.970   0.241 -0.5756  0.4699  2.1955
 2741SOL    HW2 8802   8.310   5.035   0.114 -3.3849  0.8070  1.2178
 2742SOL     OW 8803   6.215   6.749   3.613 -0.3882 -0.7517 -0.1841
 2742SOL    HW1 8804   6.196   6.686   3.544  1.2584 -3.1874  1.4119
 2742SOL    HW2 8805   6.303   6.780   3.593 -0.6599  0.0312 -0.2003
 2743SOL     OW 8806   2.256   1.684   6.105 -0.4179 -0.8766 -0.8025
 2743SOL    HW1 8807   2.321   1.717   6.042 -0.6196 -0.2705 -0.7019
 2743SOL    HW2 8808   2.173   1.687   6.058 -0.8560  1.2003  0.0010
 2744SOL     OW 8809   5.523   2.253   5.044 -0.4559  0.3530 -0.9021
 2744SOL    HW1 8810   5.580   2.307   5.099 -1.2772  0.1880  0.1316
 2744SOL    HW2 8811   5.509   2.305   4.965  0.7726  0.5789 -0.9912
 2745SOL     OW 8812   6.702   3.985   1.772  0.0125  0.4008  0.0583
 2745SOL    HW1 8813   6.691   3.934   1.692 -1.2429  0.2639  0.3065
 2745SOL    HW2 8814   6.686   3.923   1.843 -0.0748  0.7966  0.3922
 2746SOL     OW 8815   7.783   6.752   3.581 -0.6275  0.4431 -0.0806
 2746SOL    HW1 8816   7.753   6.755   3.672 -1.9629  1.4343 -0.5237
 2746SOL    HW2 8817   7.741   6.673   3.545  2.5802 -1.9625  0.9743
 2747SOL     OW 8818   6.371   2.241   9.076  0.4390 -0.2857 -0.1209
 2747SOL    HW1 8819   6.350   2.215   9.166 -1.1813 -0.5568 -0.5439
 2747SOL    HW2 8820   6.293   2.289   9.046  2.3418  3.0821 -0.1848
 2748SOL     OW 8821   3.866   6.423   9.719 -0.4256 -0.2746 -0.2848
 2748SOL    HW1 8822   3.812   6.357   9.762 -2.0034  0.3275 -1.2630
 2748SOL    HW2 8823   3.851   6.409   9.626  2.9757 -1.6062 -0.7791
 2749SOL     OW 8824   0.645   3.944   1.643 -0.0482 -0.1154 -0.8371
 2749SOL    HW1 8825   0.656   3.951   1.738 -0.3253 -0.5577 -0.7711
 2749SOL    HW2 8826   0.705   4.009   1.607 -0.7894  0.8805 -0.3186
 2750SOL     OW 8827   9.492   5.595   0.579 -0.0816  0.3527  0.7341
 2750SOL    HW1 8828   9.549   5.578   0.653 -0.2035  0.2268  0.7990
 2750SOL    HW2 8829   9.549   5.584   0.502 -0.4875 -1.8403  0.6948
 2751SOL     OW 8830   1.848   2.687   0.864 -0.1095  0.2766  0.3289
 2751SOL    HW1 8831   1.922   2.627   0.875 -0.4599 -0.0062  1.2333
 2751SOL    HW2 8832   1.889   2.772   0.847  0.4323  0.1068  0.7478
 2752SOL     OW 8833   9.322   4.527   5.395 -0.2243 -0.4027 -0.1609
 2752SOL    HW1 8834   9.348   4.435   5.402  0.3588 -0.2783 -0.6044
 2752SOL    HW2 8835   9.348   4.552   5.306  0.9294  0.5876  0.4249
 2753SOL     OW 8836   2.717   4.509   3.732 -0.5193 -0.5484  0.0653
 2753SOL    HW1 8837   2.732   4.594   3.773  0.5875 -0.0127 -1.3626
 2753SOL    HW2 8838   2.657   4.527   3.660 -1.7709 -1.3247  0.8838
 2754SOL     OW 8839   4.782   0.032   8.201 -0.0647  0.1535  0.2152
 2754SOL    HW1 8840   4.762   0.117   8.161  0.8223 -0.4819 -1.7513
 2754SOL    HW2 8841   4.861   0.003   8.155  0.5184 -1.0799  1.8958
 2755SOL     OW 8842   9.329   2.329   9.793  0.0735  0.1359 -0.3281
 2755SOL    HW1 8843   9.302   2.286   9.712 -1.6778  1.8095 -0.6905
 2755SOL    HW2 8844   9.329   2.259   9.858 -0.8578 -0.7841 -1.2737
 2756SOL     OW 8845   5.149   1.502   8.553  0.3893  0.0901 -0.4527
 2756SOL    HW1 8846   5.203   1.561   8.500 -0.5326  1.4974  0.1204
 2756SOL    HW2 8847   5.060   1.519   8.525 -0.1614  1.1132  1.7358
 2757SOL     OW 8848   1.287   4.788   5.488  0.3474 -0.0304 -0.5055
 2757SOL    HW1 8849   1.253   4.871   5.520 -0.4346 -0.3231 -0.5496
 2757SOL    HW2 8850   1.368   4.774   5.538 -0.1936  0.1291  0.4311
 2758SOL     OW 8851   6.445   5.955   3.383  0.5139  0.1241 -0.0390
 2758SOL    HW1 8852   6.464   5.885   3.321  1.3675 -0.1673  0.5238
 2758SOL    HW2 8853   6.398   5.911   3.454  0.0163  0.3513 -0.2270
 2759SOL     OW 8854   0.066   9.602   0.146  0.2308  0.0127 -0.2185
 2759SOL    HW1 8855  -0.012   9.596   0.092 -0.0744 -1.2968  0.3390
 2759SOL    HW2 8856   0.105   9.686   0.122 -0.3821 -0.1188 -1.7778
 2760SOL     OW 8857   9.786   2.719   5.088  0.0960  0.7832  0.2121
 2760SOL    HW1 8858   9.785   2.738   5.181 -0.1088 -0.6670  0.5414
 2760SOL    HW2 8859   9.714   2.656   5.075  0.1491  0.9214 -0.9064
 2761SOL     OW 8860   3.190   2.637   7.079 -0.5367 -0.2741  0.1649
 2761SOL    HW1 8861   3.214   2.729   7.066 -0.7751 -0.3031 -0.5343
 2761SOL    HW2 8862   3.096   2.634   7.064 -0.3293 -0.8588 -1.2430
 2762SOL     OW 8863   6.442   9.724   1.388  0.2518 -0.3969  0.4090
 2762SOL    HW1 8864   6.511   9.664   1.419  1.2289  0.0861 -0.7454
 2762SOL    HW2 8865   6.363   9.693   1.432  1.1182 -1.2233  1.4738
 2763SOL     OW 8866   9.191   2.799   6.629  0.6860  0.1751 -0.2390
 2763SOL    HW1 8867   9.256   2.742   6.590  0.0895 -0.6611 -0.0308
 2763SOL    HW2 8868   9.214   2.887   6.597  0.7871 -0.3508 -1.6584
 2764SOL     OW 8869   4.740   5.687   5.150  0.3223  0.4305  0.4585
 2764SOL    HW1 8870   4.782   5.611   5.111 -0.4085  0.0351  0.4081
 2764SOL    HW2 8871   4.646   5.674   5.132  0.2897  2.0720 -0.8306
 2765SOL     OW 8872   2.887   8.650   8.744  0.1377  0.5063  0.1001
 2765SOL    HW1 8873   2.978   8.647   8.771  0.1188 -0.1784  0.0967
 2765SOL    HW2 8874   2.869   8.744   8.731  0.8745  0.6346 -0.0421
 2766SOL     OW 8875   1.579   1.495   2.271 -0.1569 -0.2484 -0.0114
 2766SOL    HW1 8876   1.638   1.420   2.277  0.6217  0.2877 -0.8415
 2766SOL    HW2 8877   1.635   1.571   2.284 -1.1641  0.1843  2.3832
 2767SOL     OW 8878   2.339   9.657   6.729  0.2584  0.7427 -0.1166
 2767SOL    HW1 8879   2.364   9.733   6.676  0.9049  0.5268 -0.1377
 2767SOL    HW2 8880   2.381   9.672   6.814  0.7155  0.2329 -0.2432
 2768SOL     OW 8881   9.781   5.493   3.450 -0.5229 -0.1533  0.3220
 2768SOL    HW1 8882   9.767   5.444   3.368  0.6256  0.5438 -0.3221
 2768SOL    HW2 8883   9.752   5.433   3.519  0.5674 -1.6613 -0.4469
 2769SOL     OW 8884   5.027   0.564   9.265 -0.5245  0.3723  0.0935
 2769SOL    HW1 8885   5.008   0.488   9.210  0.2086  0.7209 -0.6642
 2769SOL    HW2 8886   5.122   0.560   9.279 -0.2472  1.8774 -1.0896
 2770SOL     OW 8887   0.475   9.289   6.837 -0.7443  0.0376 -0.5431
 2770SOL    HW1 8888   0.380   9.286   6.826 -0.6990 -0.0829 -0.9044
 2770SOL    HW2 8889   0.488   9.310   6.930 -1.1080 -1.3776 -0.1600
 2771SOL     OW 8890   5.636   3.044   1.470 -0.3852 -0.0668 -0.6351
 2771SOL    HW1 8891   5.731   3.033   1.461 -0.1598  1.1630  0.0550
 2771SOL    HW2 8892   5.624   3.081   1.557 -1.5613 -0.7714 -0.4838
 2772SOL     OW 8893   3.262   7.078   1.196 -0.2418  0.0732 -0.0350
 2772SOL    HW1 8894   3.309   7.161   1.208  0.2298 -0.2968  0.8039
 2772SOL    HW2 8895   3.171   7.103   1.186 -0.4184  0.6165  2.2840
 2773SOL     OW 8896   6.057   5.706   1.283 -0.1892 -0.1923  0.0848
 2773SOL    HW1 8897   5.985   5.750   1.327  2.1562  0.7677  3.4034
 2773SOL    HW2 8898   6.058   5.618   1.321  0.4965 -0.0997  0.3064
 2774SOL     OW 8899   2.707   1.346   2.804  0.7627 -0.0606 -0.9024
 2774SOL    HW1 8900   2.742   1.434   2.788  1.0897  0.0474  0.2945
 2774SOL    HW2 8901   2.689   1.345   2.898 -3.3099  0.1893 -1.5298
 2775SOL     OW 8902   8.889   9.382   6.942 -0.0149 -0.2758 -0.1058
 2775SOL    HW1 8903   8.914   9.290   6.936  1.1204  0.0700 -1.0425
 2775SOL    HW2 8904   8.946   9.427   6.879  1.2725  1.4276  2.1146
 2776SOL     OW 8905   8.617   9.455   0.913  0.3319  0.3059  1.0401
 2776SOL    HW1 8906   8.606   9.481   1.004 -0.4329  0.7845  0.8183
 2776SOL    HW2 8907   8.558   9.380   0.903  0.9057 -0.1626  1.1046
 2777SOL     OW 8908   6.998   7.341   1.778 -0.0763 -0.4086 -0.2653
 2777SOL    HW1 8909   7.017   7.432   1.755  0.0106 -0.1066  0.9367
 2777SOL    HW2 8910   7.083   7.298   1.777 -0.1301 -0.5211 -0.9433
 2778SOL     OW 8911   7.029   3.090   7.051  0.3227  0.1464  0.3583
 2778SOL    HW1 8912   7.066   3.150   7.116 -0.8675  1.8243 -0.4246
 2778SOL    HW2 8913   7.025   3.142   6.970  0.5885 -1.4753 -0.7432
 2779SOL     OW 8914   9.719   0.195   5.728  0.2109 -0.2589 -0.0658
 2779SOL    HW1 8915   9.699   0.247   5.806 -1.7929 -1.4576  0.2997
 2779SOL    HW2 8916   9.636   0.153   5.705  0.7282  0.0447 -2.8742
 2780SOL     OW 8917   4.923   7.221   5.945  0.4293  0.5486 -0.0306
 2780SOL    HW1 8918   4.940   7.309   5.913  0.1721  0.8741  0.6918
 2780SOL    HW2 8919   4.849   7.231   6.006 -0.7802 -0.4318 -1.2556
 2781SOL     OW 8920   0.028   7.850   1.507  0.0235  0.3607  0.1661
 2781SOL    HW1 8921   0.098   7.905   1.468  0.0621  0.4526  0.3644
 2781SOL    HW2 8922   0.075   7.789   1.563  0.0072 -0.0928 -0.3033
 2782SOL     OW 8923   4.557   3.971   1.583 -0.1367 -0.4572 -0.6520
 2782SOL    HW1 8924   4.577   3.980   1.489  0.1347  0.3744 -0.5203
 2782SOL    HW2 8925   4.602   4.045   1.624 -0.1892 -0.8671  0.1481
 2783SOL     OW 8926   3.125   8.288   5.023 -0.0831  0.2256  0.6532
 2783SOL    HW1 8927   3.123   8.383   5.009  0.2307  0.2354  0.6698
 2783SOL    HW2 8928   3.178   8.254   4.950 -0.0613  0.0790  0.7362
 2784SOL     OW 8929   4.966   9.793   6.915  0.0956 -0.0224  0.2170
 2784SOL    HW1 8930   4.939   9.702   6.899  1.2371 -0.7827  2.2169
 2784SOL    HW2 8931   4.885   9.838   6.938 -1.0055  0.2809 -3.5399
 2785SOL     OW 8932   4.662   7.389   6.203 -0.0776  0.1151 -0.3296
 2785SOL    HW1 8933   4.615   7.472   6.199 -2.7123 -1.2797 -1.1553
 2785SOL    HW2 8934   4.652   7.351   6.116  2.0811 -0.6120 -0.3236
 2786SOL     OW 8935   3.687   2.594   7.517 -0.0572  0.0192  0.1699
 2786SOL    HW1 8936   3.713   2.510   7.481 -2.8814 -1.0957  0.4959
 2786SOL    HW2 8937   3.744   2.607   7.593  2.2913 -0.1787 -1.4594
 2787SOL     OW 8938   8.558   1.237   7.498 -0.5578 -0.4788  0.2055
 2787SOL    HW1 8939   8.603   1.180   7.436 -0.7319  0.5611 -0.8990
 2787SOL    HW2 8940   8.628   1.275   7.551 -0.3587 -0.8439  0.2087
 2788SOL     OW 8941   1.734   3.987   2.969 -0.1751 -1.3474  0.0282
 2788SOL    HW1 8942   1.817   3.953   2.935  1.0524 -1.1901  2.5966
 2788SOL    HW2 8943   1.734   4.079   2.945 -0.1359 -1.5763 -0.8899
 2789SOL     OW 8944   9.499   2.394   9.274 -0.2132  0.5793  0.1498
 2789SOL    HW1 8945   9.582   2.432   9.247 -0.7309  1.6681  0.0401
 2789SOL    HW2 8946   9.465   2.352   9.195  0.7350 -0.8438  0.4703
 2790SOL     OW 8947   1.456   2.548   1.887  0.1414 -0.1825 -0.2176
 2790SOL    HW1 8948   1.472   2.630   1.838  1.9456 -1.0345 -1.1604
 2790SOL    HW2 8949   1.541   2.526   1.925 -0.5272 -1.1833  0.7509
 2791SOL     OW 8950   9.201   3.841   7.752 -0.4711  0.6893  0.3234
 2791SOL    HW1 8951   9.129   3.788   7.717 -0.5156  1.6272 -1.0865
 2791SOL    HW2 8952   9.185   3.844   7.846 -1.0498 -0.9108  0.3134
 2792SOL     OW 8953   9.237   5.522   2.593 -0.0901 -0.2233  0.3263
 2792SOL    HW1 8954   9.314   5.491   2.546  1.4844  2.4850  0.8809
 2792SOL    HW2 8955   9.168   5.527   2.526  1.6389  2.0234 -1.4636
 2793SOL     OW 8956   6.691   0.511   4.986  0.4189  0.5198  0.4770
 2793SOL    HW1 8957   6.720   0.583   5.043  1.6416  0.1911  0.2939
 2793SOL    HW2 8958   6.772   0.470   4.956 -0.2384 -0.1031 -0.4992
 2794SOL     OW 8959   2.652   2.148   4.403 -0.6201 -0.4808  0.6296
 2794SOL    HW1 8960   2.705   2.192   4.469 -1.3383 -1.4416  1.8899
 2794SOL    HW2 8961   2.664   2.054   4.421 -1.5946 -0.7349  0.0156
 2795SOL     OW 8962   6.942   6.576   2.992 -0.1648  0.1795  0.0190
 2795SOL    HW1 8963   6.888   6.497   2.998  0.0600 -0.2031 -2.2156
 2795SOL    HW2 8964   7.032   6.545   2.999 -0.0901  0.2573 -0.5268
 2796SOL     OW 8965   2.248   8.625   7.216 -0.2307  0.4664  0.1164
 2796SOL    HW1 8966   2.218   8.536   7.197 -1.5491  0.4489  1.9900
 2796SOL    HW2 8967   2.180   8.682   7.182 -0.2145  0.6644  0.4096
 2797SOL     OW 8968   6.020   5.983   2.076  0.4808  0.1190  0.0260
 2797SOL    HW1 8969   6.039   5.996   2.169 -0.6243 -0.3603  0.3410
 2797SOL    HW2 8970   6.070   5.905   2.052  0.1959 -0.2004  0.4314
 2798SOL     OW 8971   9.287   0.872   5.970 -0.1228 -0.3547  0.3612
 2798SOL    HW1 8972   9.376   0.877   6.004  0.2002 -1.8142 -0.1485
 2798SOL    HW2 8973   9.246   0.954   5.995  0.5601 -0.6960  2.8692
 2799SOL     OW 8974   0.115   2.800   6.877 -0.1688  0.0745  0.2469
 2799SOL    HW1 8975   0.064   2.844   6.809 -0.0159  0.0688  0.1291
 2799SOL    HW2 8976   0.188   2.859   6.895 -0.6094  0.4244  0.9339
 2800SOL     OW 8977   3.891   6.812   5.506  0.3406 -0.4645  0.0638
 2800SOL    HW1 8978   3.894   6.857   5.421  2.1566 -1.0786 -0.2423
 2800SOL    HW2 8979   3.799   6.817   5.532 -0.2529 -0.1902 -1.8969
 2801SOL     OW 8980   9.303   3.658   9.234 -0.2162 -0.2513 -0.1691
 2801SOL    HW1 8981   9.306   3.712   9.155  1.1835 -0.6343 -0.4084
 2801SOL    HW2 8982   9.273   3.717   9.302  0.2219  0.5504 -0.6524
 2802SOL     OW 8983   9.060   5.369   1.760  0.3010 -0.6347  0.1562
 2802SOL    HW1 8984   9.103   5.284   1.751 -2.0288 -1.7950 -0.7384
 2802SOL    HW2 8985   9.108   5.426   1.700  0.6276 -1.8492 -0.7812
 2803SOL     OW 8986   3.295   1.709   4.994  0.1199 -0.4567 -0.3942
 2803SOL    HW1 8987   3.213   1.660   5.002  0.4200 -0.8122  0.6082
 2803SOL    HW2 8988   3.268   1.800   4.982 -0.4462 -0.2299  2.1247
 2804SOL     OW 8989   8.116   8.669   3.446  0.7442  0.2698  0.4628
 2804SOL    HW1 8990   8.148   8.759   3.437 -1.5763  1.2646  1.3440
 2804SOL    HW2 8991   8.070   8.668   3.530 -1.3731 -1.0042 -0.6072
 2805SOL     OW 8992   3.625   1.196   4.900  0.3708 -0.3816  0.2034
 2805SOL    HW1 8993   3.653   1.196   4.808 -0.0949 -0.1948  0.0546
 2805SOL    HW2 8994   3.666   1.274   4.937  0.6953 -0.5501  0.1936
 2806SOL     OW 8995   9.185   7.721   6.144 -0.0851  0.6880 -0.0169
 2806SOL    HW1 8996   9.209   7.692   6.055 -1.5230  1.0184 -0.5396
 2806SOL    HW2 8997   9.169   7.814   6.134 -2.3272  0.3557  0.1006
 2807SOL     OW 8998   3.603   0.950   6.490 -0.2787  0.2259 -0.3175
 2807SOL    HW1 8999   3.683   0.899   6.481  0.4309  1.2702 -0.1750
 2807SOL    HW2 9000   3.633   1.041   6.489 -1.3286  0.6129  1.1805
 2808SOL     OW 9001   5.537   0.849   2.079  0.0842 -0.3224  0.6151
 2808SOL    HW1 9002   5.597   0.784   2.116 -0.1276 -0.6221  0.4344
 2808SOL    HW2 9003   5.558   0.850   1.986 -0.8611 -1.1583  0.3742
 2809SOL     OW 9004   5.298   2.854   7.504 -0.7910  0.5357  0.3075
 2809SOL    HW1 9005   5.313   2.883   7.415 -0.8556  1.2111  0.5149
 2809SOL    HW2 9006   5.260   2.929   7.549 -0.6402  0.2508  0.9375
 2810SOL     OW 9007   1.075   7.785   3.080  0.5611 -0.3022 -0.1520
 2810SOL    HW1 9008   1.018   7.841   3.028 -1.4176 -0.3920  1.7740
 2810SOL    HW2 9009   1.158   7.833   3.085  0.2551  0.4862 -1.8978
 2811SOL     OW 9010   8.580   3.776   5.227  0.1492  0.1859  0.7685
 2811SOL    HW1 9011   8.654   3.767   5.286 -0.6847  0.3157  1.8576
 2811SOL    HW2 9012   8.590   3.863   5.189  0.9795 -0.1062  0.3031
 2812SOL     OW 9013   8.129   6.090   1.936 -0.0484  0.1237 -0.3401
 2812SOL    HW1 9014   8.044   6.130   1.918  0.0412  0.2075 -0.5774
 2812SOL    HW2 9015   8.161   6.062   1.851 -0.7113 -1.6972 -0.0361
 2813SOL     OW 9016   9.924   8.250   6.160  0.1356  0.1104  0.1281
 2813SOL    HW1 9017   9.996   8.191   6.181 -1.3540 -1.5896  0.6317
 2813SOL    HW2 9018   9.884   8.270   6.245 -0.2655  0.6974 -0.1937
 2814SOL     OW 9019   3.955   0.908   3.817  0.1851 -0.0881 -0.5557
 2814SOL    HW1 9020   3.935   0.881   3.727  0.5391 -1.2132 -0.3127
 2814SOL    HW2 9021   3.963   0.825   3.866  0.4677  0.4906  0.4088
 2815SOL     OW 9022   5.948   8.764   1.259 -0.5198 -0.4958 -0.1619
 2815SOL    HW1 9023   6.027   8.817   1.248 -0.0104 -1.1058  0.5070
 2815SOL    HW2 9024   5.948   8.706   1.183 -0.6669 -0.0769 -0.4879
 2816SOL     OW 9025   0.622   0.495   3.872 -0.0760 -0.1159 -0.0677
 2816SOL    HW1 9026   0.712   0.463   3.874 -0.5248 -1.4543 -0.0963
 2816SOL    HW2 9027   0.623   0.575   3.925  0.9911 -0.4740  0.4703
 2817SOL     OW 9028   9.986   7.045   6.258 -0.1590 -0.2437 -0.0238
 2817SOL    HW1 9029   9.912   7.006   6.305 -1.1949 -0.0404 -1.4321
 2817SOL    HW2 9030  10.043   7.078   6.327 -1.4467 -0.2895  1.1060
 2818SOL     OW 9031   8.385   1.616   8.004 -0.2205 -0.3506  0.0196
 2818SOL    HW1 9032   8.336   1.653   8.077 -0.5620 -0.0525 -0.3590
 2818SOL    HW2 9033   8.353   1.526   7.997 -2.2924  0.4198 -1.5504
 2819SOL     OW 9034   0.288   3.496   2.285 -0.0582  0.0478 -0.1284
 2819SOL    HW1 9035   0.296   3.591   2.297  0.0876 -0.0016  0.1763
 2819SOL    HW2 9036   0.197   3.483   2.260 -0.1105  0.2567 -0.0524
 2820SOL     OW 9037   9.053   7.073   5.226  0.7062 -0.1941 -0.0013
 2820SOL    HW1 9038   9.023   7.074   5.317 -1.9112 -0.4072 -0.7766
 2820SOL    HW2 9039   9.140   7.112   5.229  0.1934  0.9652  2.4258
 2821SOL     OW 9040   9.455   0.656   9.463 -0.0521 -0.4641  0.3891
 2821SOL    HW1 9041   9.419   0.707   9.536 -2.6631  2.0247 -2.3231
 2821SOL    HW2 9042   9.389   0.589   9.447 -0.2978 -0.0100 -0.5765
 2822SOL     OW 9043   7.886   7.850   3.680 -0.4632  0.1753  0.2800
 2822SOL    HW1 9044   7.971   7.883   3.707  0.1950 -1.2788  0.0887
 2822SOL    HW2 9045   7.863   7.903   3.603 -0.1100  1.0827  0.7804
 2823SOL     OW 9046   4.117   5.814   2.437  0.7538 -0.2376  0.6799
 2823SOL    HW1 9047   4.155   5.899   2.412  2.5859 -0.4780  2.3268
 2823SOL    HW2 9048   4.192   5.763   2.468 -0.3543 -2.3751  0.0447
 2824SOL     OW 9049   6.123   1.359   1.881 -0.4695 -0.3783  0.6021
 2824SOL    HW1 9050   6.188   1.337   1.948 -1.3786 -1.3071  1.2118
 2824SOL    HW2 9051   6.095   1.448   1.903  0.1102 -0.2165  0.7155
 2825SOL     OW 9052   8.527   8.853   7.840 -0.0999  0.0124  0.0128
 2825SOL    HW1 9053   8.571   8.776   7.876  0.8497  0.5386  0.0158
 2825SOL    HW2 9054   8.599   8.910   7.812 -0.8112  0.2172 -1.4477
 2826SOL     OW 9055   9.291   2.588   2.155  0.0491 -0.4979  0.0023
 2826SOL    HW1 9056   9.313   2.620   2.243  1.1038 -1.3683  0.0857
 2826SOL    HW2 9057   9.257   2.665   2.109  1.6792  0.5684  0.4596
 2827SOL     OW 9058   8.305   7.631   0.008 -0.3630 -0.2757 -0.2299
 2827SOL    HW1 9059   8.281   7.647   0.099  0.6957  2.0795 -0.2997
 2827SOL    HW2 9060   8.316   7.536   0.002 -0.1050 -0.4428  2.1872
 2828SOL     OW 9061   7.437   5.487   1.463 -0.2746  0.8366 -0.0445
 2828SOL    HW1 9062   7.419   5.554   1.397 -1.2990  1.4580  0.8270
 2828SOL    HW2 9063   7.512   5.520   1.511 -0.2420  0.9399 -0.1656
 2829SOL     OW 9064   3.715   3.867   2.862 -0.0914  0.0167 -0.0064
 2829SOL    HW1 9065   3.742   3.894   2.949  1.7291  1.4766 -0.9721
 2829SOL    HW2 9066   3.744   3.776   2.854 -0.9272 -0.3640  1.1420
 2830SOL     OW 9067   8.454   4.921   8.432 -0.2524 -0.1420 -0.6187
 2830SOL    HW1 9068   8.408   4.952   8.511 -0.9506 -1.6616 -0.4035
 2830SOL    HW2 9069   8.411   4.967   8.361 -1.4229 -0.7450 -0.3222
 2831SOL     OW 9070   1.774   2.021   4.175  0.5335 -0.3210  0.9529
 2831SOL    HW1 9071   1.773   2.004   4.269 -1.2620  1.6850  1.3546
 2831SOL    HW2 9072   1.693   2.068   4.157 -0.6374 -3.0914 -2.1229
 2832SOL     OW 9073   5.367   8.664   8.256  0.1959  0.4284 -0.2666
 2832SOL    HW1 9074   5.320   8.581   8.262 -0.1079  0.5467 -0.9622
 2832SOL    HW2 9075   5.388   8.687   8.347  2.7678 -1.8174 -0.1572
 2833SOL     OW 9076   0.989   0.753   3.709 -0.0582 -0.4687 -0.5171
 2833SOL    HW1 9077   1.026   0.836   3.738 -0.5002 -0.7278  0.8201
 2833SOL    HW2 9078   0.899   0.775   3.684 -0.5772 -0.7488  1.0224
 2834SOL     OW 9079   4.830   7.115   1.948  0.4503 -0.4098 -0.0004
 2834SOL    HW1 9080   4.739   7.100   1.973  0.0611 -0.2817 -1.2744
 2834SOL    HW2 9081   4.867   7.166   2.020 -0.8379  0.6250 -0.0356
 2835SOL     OW 9082   6.538   2.318   2.299  0.5868  0.0994 -0.0584
 2835SOL    HW1 9083   6.442   2.311   2.298  0.4993  0.7627  1.6808
 2835SOL    HW2 9084   6.565   2.280   2.215 -1.1596 -0.5769 -0.3605
 2836SOL     OW 9085   4.526   1.696   2.566  0.0282 -0.3237  0.2794
 2836SOL    HW1 9086   4.547   1.747   2.645 -0.5408  0.7841 -0.2639
 2836SOL    HW2 9087   4.441   1.729   2.539  0.8493  0.3542 -1.6294
 2837SOL     OW 9088   1.494   7.596   7.114 -0.0865 -0.5409 -0.5484
 2837SOL    HW1 9089   1.459   7.642   7.037  0.7101  0.5762 -0.2678
 2837SOL    HW2 9090   1.582   7.632   7.124 -0.4213 -0.1650  1.2930
 2838SOL     OW 9091   5.275   4.882   2.007 -0.0523  0.2286  0.0373
 2838SOL    HW1 9092   5.282   4.787   1.999  1.6529  0.3385 -0.1280
 2838SOL    HW2 9093   5.241   4.911   1.922  1.4799 -0.0805 -0.7216
 2839SOL     OW 9094   3.211   8.048   8.822 -0.3315  0.4043 -0.5472
 2839SOL    HW1 9095   3.164   8.129   8.841 -1.8655 -0.1480 -1.7892
 2839SOL    HW2 9096   3.296   8.059   8.864 -1.5441  1.4347  1.8301
 2840SOL     OW 9097   9.332   3.953   5.778  0.2861 -0.2879  0.1692
 2840SOL    HW1 9098   9.398   4.004   5.730 -0.9135 -0.1659 -1.4215
 2840SOL    HW2 9099   9.326   3.870   5.730  0.2513 -0.8432  1.1110
 2841SOL     OW 9100   1.865   3.986   5.867 -0.4062  0.1166 -0.4619
 2841SOL    HW1 9101   1.877   4.059   5.928 -0.9794 -1.3387  1.4657
 2841SOL    HW2 9102   1.770   3.975   5.862 -0.3026 -1.3639  0.3843
 2842SOL     OW 9103   2.034   9.197   8.965  0.3633 -0.2569 -0.3303
 2842SOL    HW1 9104   2.124   9.166   8.950  1.0621  0.8969  1.1593
 2842SOL    HW2 9105   2.033   9.285   8.928  0.2098  0.1583  0.6167
 2843SOL     OW 9106   0.214   7.647   6.323 -0.2181 -0.1707 -0.3323
 2843SOL    HW1 9107   0.166   7.588   6.265  1.2831 -0.6439 -1.1468
 2843SOL    HW2 9108   0.209   7.606   6.409 -1.2194 -0.2240 -0.4068
 2844SOL     OW 9109   3.793   1.142   4.653 -0.2477  0.3248 -0.0852
 2844SOL    HW1 9110   3.851   1.068   4.636 -1.4136 -0.1842 -2.2435
 2844SOL    HW2 9111   3.817   1.207   4.587 -0.1334  1.3688  0.9426
 2845SOL     OW 9112   5.480   6.275   9.457  0.6501  0.2532  0.7776
 2845SOL    HW1 9113   5.397   6.322   9.457  0.2176 -0.4902  0.3187
 2845SOL    HW2 9114   5.525   6.305   9.536 -0.7906 -0.5999  1.9680
 2846SOL     OW 9115   8.058   9.326   1.836  0.3123  0.4104  0.5726
 2846SOL    HW1 9116   8.036   9.243   1.877 -0.3758  0.5991  0.5998
 2846SOL    HW2 9117   8.119   9.368   1.897  0.0446  0.2740  0.9367
 2847SOL     OW 9118   7.654   2.013   1.915  0.6643  1.0498  0.5011
 2847SOL    HW1 9119   7.573   2.044   1.873  2.6427  1.8504 -3.0972
 2847SOL    HW2 9120   7.651   2.051   2.003 -2.8568  0.9655  0.5554
 2848SOL     OW 9121   4.476   0.588   3.839  0.1138 -0.0529  0.1677
 2848SOL    HW1 9122   4.549   0.638   3.874  1.1039 -1.5011  0.2675
 2848SOL    HW2 9123   4.488   0.590   3.744  0.4856 -0.5472  0.1977
 2849SOL     OW 9124   2.700   6.852   0.966 -0.0576 -0.0790  0.0480
 2849SOL    HW1 9125   2.740   6.933   0.933 -1.0131  0.3022 -0.2067
 2849SOL    HW2 9126   2.724   6.785   0.902 -2.0376  0.6839 -1.6098
 2850SOL     OW 9127   4.382   6.697   0.133  0.2087  0.3306  0.2714
 2850SOL    HW1 9128   4.436   6.743   0.069  0.9034 -1.1170 -0.2344
 2850SOL    HW2 9129   4.309   6.756   0.151  1.3314  1.8315  0.0661
 2851SOL     OW 9130   4.086   8.333   9.386 -0.0395  0.1199  0.2002
 2851SOL    HW1 9131   4.111   8.413   9.430  1.0984 -0.6819  1.0555
 2851SOL    HW2 9132   4.006   8.356   9.339 -0.4863  1.3763  1.5118
 2852SOL     OW 9133   4.418   4.721   9.740  0.0548 -0.3213 -0.3685
 2852SOL    HW1 9134   4.342   4.663   9.736 -0.0585 -0.2040  0.0068
 2852SOL    HW2 9135   4.407   4.780   9.665 -0.0624 -0.5000 -0.4934
 2853SOL     OW 9136   7.312   7.803   1.696 -0.6256 -0.5345  0.1660
 2853SOL    HW1 9137   7.389   7.799   1.752  0.0574 -0.7139 -0.7666
 2853SOL    HW2 9138   7.285   7.711   1.687 -0.9611 -0.4723  0.4923
 2854SOL     OW 9139   4.899   0.601   6.906  0.6876  0.1111  0.5454
 2854SOL    HW1 9140   4.981   0.642   6.932  1.0936  0.8182 -1.6584
 2854SOL    HW2 9141   4.836   0.630   6.972  1.7236  1.3725  1.0313
 2855SOL     OW 9142   3.245   1.493   8.938  0.3001  0.5631  0.5367
 2855SOL    HW1 9143   3.291   1.550   8.875 -2.0318  1.9143 -0.0529
 2855SOL    HW2 9144   3.224   1.414   8.888  2.9764 -0.6561  1.1719
 2856SOL     OW 9145   8.000   4.473   9.562 -0.2140 -0.1043 -0.0795
 2856SOL    HW1 9146   7.963   4.393   9.599 -0.6067  1.3051  2.8627
 2856SOL    HW2 9147   7.927   4.512   9.513 -0.3254 -0.9928 -0.6560
 2857SOL     OW 9148   3.834   1.005   2.418  0.2232  0.2044  0.3759
 2857SOL    HW1 9149   3.822   1.022   2.512  0.9016 -0.0578  0.5176
 2857SOL    HW2 9150   3.885   0.924   2.416 -0.2530 -0.0849 -0.2329
 2858SOL     OW 9151   4.253   0.755   0.669  0.6892  0.1829 -0.1196
 2858SOL    HW1 9152   4.192   0.827   0.687  0.9260  0.6781 -1.2130
 2858SOL    HW2 9153   4.235   0.730   0.579  1.2257 -0.5429 -0.0359
 2859SOL     OW 9154   1.968   5.800   2.666  0.0240 -0.2086 -0.7917
 2859SOL    HW1 9155   2.017   5.878   2.693 -0.6583  0.5692 -1.7710
 2859SOL    HW2 9156   1.882   5.832   2.640  0.3172 -1.0275 -2.9633
 2860SOL     OW 9157   3.480   1.605   7.192 -0.0415  0.4541 -0.4023
 2860SOL    HW1 9158   3.471   1.695   7.223 -0.6222  0.2610 -0.0030
 2860SOL    HW2 9159   3.436   1.606   7.107  0.3151  0.6387 -0.5914
 2861SOL     OW 9160   6.901   9.474   2.971 -0.3371  0.3749  0.1010
 2861SOL    HW1 9161   6.926   9.388   3.006  0.1609 -0.3007 -1.8394
 2861SOL    HW2 9162   6.845   9.454   2.896  0.5440  1.7247 -0.9564
 2862SOL     OW 9163   4.515   1.018   6.046  0.1673 -0.2477 -0.1525
 2862SOL    HW1 9164   4.479   1.017   5.958 -0.7385  0.8561  0.2007
 2862SOL    HW2 9165   4.523   1.110   6.069  3.1878 -0.3740 -0.1720
 2863SOL     OW 9166   4.269   1.053   2.254  0.0581  0.1731 -0.2159
 2863SOL    HW1 9167   4.325   0.978   2.273  2.0371  1.7817  0.7188
 2863SOL    HW2 9168   4.285   1.072   2.161  0.9310  0.4770 -0.0118
 2864SOL     OW 9169   9.051   6.664   8.089  0.1703 -0.0619  0.2439
 2864SOL    HW1 9170   9.004   6.650   8.171 -0.6580 -2.8890 -0.5976
 2864SOL    HW2 9171   9.143   6.653   8.112  0.0810  0.7449  1.0516
 2865SOL     OW 9172   0.525   2.132   6.319  0.0182  0.6025 -1.3975
 2865SOL    HW1 9173   0.439   2.110   6.355  0.3322  1.7030  0.1225
 2865SOL    HW2 9174   0.570   2.048   6.310  0.3830  0.2692  2.0917
 2866SOL     OW 9175   1.598   3.949   1.797  0.2683 -0.0386  0.8146
 2866SOL    HW1 9176   1.590   4.020   1.734  0.0339 -0.5114  0.2952
 2866SOL    HW2 9177   1.568   3.986   1.880  2.0207  1.0321  1.0087
 2867SOL     OW 9178   1.308   0.904   1.778 -0.1673 -0.1050 -0.1216
 2867SOL    HW1 9179   1.234   0.888   1.837 -1.6898  0.3545 -1.8161
 2867SOL    HW2 9180   1.331   0.818   1.743 -0.0883 -0.2103  0.1878
 2868SOL     OW 9181   9.768   0.603   5.841 -0.1363 -0.3609  0.0875
 2868SOL    HW1 9182   9.689   0.636   5.800  0.4263  0.2997 -0.4972
 2868SOL    HW2 9183   9.789   0.523   5.793 -0.6277 -0.7151  0.4602
 2869SOL     OW 9184   5.855   4.334   0.828 -0.3094 -0.0203 -0.3886
 2869SOL    HW1 9185   5.851   4.242   0.854 -2.5049  0.2038  0.2853
 2869SOL    HW2 9186   5.804   4.380   0.894 -0.0457  1.5652 -1.2359
 2870SOL     OW 9187   9.069   4.423   9.924 -0.2061 -0.0187 -0.2612
 2870SOL    HW1 9188   9.108   4.490   9.980 -0.5502  0.5857 -0.7349
 2870SOL    HW2 9189   9.131   4.350   9.927 -0.2766 -0.0525  1.0058
 2871SOL     OW 9190   1.283   2.260   4.244  0.0292 -0.3157  0.2737
 2871SOL    HW1 9191   1.273   2.322   4.172 -0.3180  0.6251  1.1093
 2871SOL    HW2 9192   1.212   2.197   4.232  0.3207 -0.5154 -0.5191
 2872SOL     OW 9193   2.443   1.982   5.429 -0.1290  0.4894 -0.2909
 2872SOL    HW1 9194   2.420   1.899   5.473  1.8989 -0.0242 -0.0745
 2872SOL    HW2 9195   2.518   1.959   5.373 -0.0759  2.0089 -0.8797
 2873SOL     OW 9196   3.878   6.500   1.263 -0.7469 -0.2884 -0.1062
 2873SOL    HW1 9197   3.899   6.442   1.336  0.9641 -0.0475 -0.3682
 2873SOL    HW2 9198   3.842   6.442   1.196 -0.5860 -0.8011  0.2460
 2874SOL     OW 9199   7.287   1.493   5.996  0.2981  0.7829  0.4998
 2874SOL    HW1 9200   7.309   1.481   5.904 -0.7965  0.9319  0.2014
 2874SOL    HW2 9201   7.209   1.548   5.995  0.5214  1.1512  1.5391
 2875SOL     OW 9202   0.327   2.486   3.929 -0.1804 -0.9105  0.2137
 2875SOL    HW1 9203   0.313   2.477   3.835  2.0752 -0.3259 -0.2383
 2875SOL    HW2 9204   0.399   2.426   3.949  0.0003 -0.3409  1.3821
 2876SOL     OW 9205   6.009   0.684   4.893 -0.0312  0.0939 -0.1269
 2876SOL    HW1 9206   5.928   0.679   4.841  0.4376  0.7118 -0.9401
 2876SOL    HW2 9207   6.062   0.611   4.859  0.0433  0.1379 -0.1039
 2877SOL     OW 9208   9.832   0.948   4.892  0.2930 -0.4819 -0.1073
 2877SOL    HW1 9209   9.836   1.041   4.869 -2.4670 -0.2111  0.0913
 2877SOL    HW2 9210   9.788   0.947   4.978 -1.4255 -1.9807 -0.9362
 2878SOL     OW 9211   3.468   3.215   0.371  0.0113 -0.0148  0.0661
 2878SOL    HW1 9212   3.494   3.282   0.434  1.3752  0.1269 -0.6207
 2878SOL    HW2 9213   3.372   3.214   0.376  0.0180  1.2028  0.8878
 2879SOL     OW 9214   6.797   8.205   4.266 -0.6256 -0.3980 -0.4072
 2879SOL    HW1 9215   6.826   8.115   4.252  0.9452  0.2234 -1.4668
 2879SOL    HW2 9216   6.855   8.258   4.211  2.0721  1.7804  3.9385
 2880SOL     OW 9217   3.686   6.713   3.419 -0.0958  0.3780 -0.1789
 2880SOL    HW1 9218   3.735   6.776   3.366  0.8247 -0.9261 -0.9595
 2880SOL    HW2 9219   3.734   6.631   3.407 -1.2991 -0.4843  0.7356
 2881SOL     OW 9220   1.433   9.406   7.111  0.0551 -0.2435 -0.1651
 2881SOL    HW1 9221   1.482   9.386   7.191  0.1415 -0.7763 -0.3494
 2881SOL    HW2 9222   1.488   9.469   7.064 -0.1952  0.4127  0.3908
 2882SOL     OW 9223   1.296   7.236   4.276 -0.2851  0.0166  0.4089
 2882SOL    HW1 9224   1.370   7.269   4.326 -1.4091 -1.9887  3.7335
 2882SOL    HW2 9225   1.334   7.176   4.212  0.9881 -2.3183  3.1806
 2883SOL     OW 9226   7.968   7.033   2.042  0.1786  0.4257  0.0957
 2883SOL    HW1 9227   7.925   6.948   2.052 -0.9379  0.7143 -1.7552
 2883SOL    HW2 9228   7.901   7.097   2.067  0.3259  0.7967 -0.4300
 2884SOL     OW 9229   4.015   7.546   7.192  0.3457 -0.4733 -0.1172
 2884SOL    HW1 9230   4.040   7.601   7.118 -0.0886  0.8362  0.6621
 2884SOL    HW2 9231   4.057   7.588   7.267  2.0400 -2.6157  0.2379
 2885SOL     OW 9232   5.236   6.396   9.457  0.1987  0.4306  0.8532
 2885SOL    HW1 9233   5.191   6.391   9.373  0.4775  0.2605  0.7150
 2885SOL    HW2 9234   5.182   6.456   9.509 -0.7879 -0.5751  1.0490
 2886SOL     OW 9235   6.335   9.567   6.146  0.6861  0.4686  0.7959
 2886SOL    HW1 9236   6.398   9.624   6.104  0.9081 -0.1681  0.2464
 2886SOL    HW2 9237   6.251   9.613   6.137  0.7159  0.3313 -0.3947
 2887SOL     OW 9238   5.260   6.851   4.476  0.7979 -0.1253 -0.5092
 2887SOL    HW1 9239   5.275   6.795   4.400  1.3679 -0.1185 -0.4052
 2887SOL    HW2 9240   5.207   6.923   4.443 -0.8509 -1.2393 -0.4376
 2888SOL     OW 9241   3.280   3.364   5.978 -0.3473  0.5561  0.6565
 2888SOL    HW1 9242   3.358   3.378   5.924  1.7885 -1.1378  3.0671
 2888SOL    HW2 9243   3.210   3.351   5.915  1.7771 -0.2428 -1.7225
 2889SOL     OW 9244   6.746   8.452   2.477 -0.1582 -0.1324  0.2409
 2889SOL    HW1 9245   6.691   8.503   2.536  0.7122  1.4836 -0.2564
 2889SOL    HW2 9246   6.720   8.361   2.491 -1.8749  0.4477  1.0810
 2890SOL     OW 9247   3.097   7.900   6.760 -0.0533  0.4215  0.3926
 2890SOL    HW1 9248   3.007   7.932   6.751  0.0456  0.4413 -0.7444
 2890SOL    HW2 9249   3.092   7.834   6.829 -1.3458 -0.9105 -0.8813
 2891SOL     OW 9250   1.644   4.348   6.398  0.5461  0.0010 -0.1595
 2891SOL    HW1 9251   1.699   4.296   6.457 -0.0730  1.7649  2.1056
 2891SOL    HW2 9252   1.560   4.354   6.443  0.6572  3.1393 -0.1660
 2892SOL     OW 9253   7.166   1.671   5.190 -0.2062  0.9135 -0.2242
 2892SOL    HW1 9254   7.120   1.739   5.239 -0.4342 -0.4929  1.5929
 2892SOL    HW2 9255   7.157   1.592   5.243  3.2603  0.2591 -0.3968
 2893SOL     OW 9256   2.494   2.144   8.100 -1.0857  0.1188 -0.2338
 2893SOL    HW1 9257   2.459   2.064   8.061 -0.1942 -1.1354  1.3950
 2893SOL    HW2 9258   2.530   2.193   8.026 -2.1656 -0.7018 -1.3449
 2894SOL     OW 9259   3.553   8.788   6.400 -0.1408 -0.1542 -0.2731
 2894SOL    HW1 9260   3.481   8.849   6.417 -0.6583 -0.7250 -0.3974
 2894SOL    HW2 9261   3.613   8.839   6.345 -0.0134  0.6146  0.5633
 2895SOL     OW 9262   0.797   8.404   8.686 -0.2276  0.4381  0.0166
 2895SOL    HW1 9263   0.883   8.427   8.651  0.0696  2.9829  2.0917
 2895SOL    HW2 9264   0.741   8.396   8.608  1.3046  1.3853 -1.2504
 2896SOL     OW 9265   2.783   8.388   9.611  0.2787 -0.3810 -0.3050
 2896SOL    HW1 9266   2.718   8.398   9.542  0.4413  2.2753 -0.1454
 2896SOL    HW2 9267   2.830   8.471   9.613  1.0399 -0.7864  2.2475
 2897SOL     OW 9268   8.329   9.568   0.995 -0.3387  0.5328  0.4826
 2897SOL    HW1 9269   8.342   9.656   0.959  0.4613  0.5058  0.6799
 2897SOL    HW2 9270   8.238   9.567   1.025 -0.2778  1.3830  0.7253
 2898SOL     OW 9271   9.020   5.922   1.419 -0.0291 -0.0097  0.3952
 2898SOL    HW1 9272   9.047   6.003   1.463 -0.9320  0.2223  0.5312
 2898SOL    HW2 9273   8.927   5.934   1.401  0.5226  0.4957 -2.8498
 2899SOL     OW 9274   9.747   6.676   3.997 -0.2501 -0.5047  0.0040
 2899SOL    HW1 9275   9.825   6.694   4.051  0.5482 -1.2602 -0.8579
 2899SOL    HW2 9276   9.758   6.585   3.970 -1.1374 -0.4247 -0.6293
 2900SOL     OW 9277   6.441   8.681   6.406 -0.7401  0.0988  0.0118
 2900SOL    HW1 9278   6.383   8.679   6.330  0.9817  1.6872 -1.4313
 2900SOL    HW2 9279   6.393   8.732   6.472 -0.7251  2.1008 -1.4499
 2901SOL     OW 9280   4.137   8.069   0.730 -0.1439  0.0266  0.0021
 2901SOL    HW1 9281   4.164   8.005   0.796  1.5841 -1.1811 -1.7606
 2901SOL    HW2 9282   4.180   8.151   0.756  1.5785 -0.7542 -0.2670
 2902SOL     OW 9283   9.586   1.689   3.789  0.1674 -0.2839  0.0587
 2902SOL    HW1 9284   9.517   1.646   3.839  0.6866  0.0115  1.0520
 2902SOL    HW2 9285   9.667   1.667   3.835  0.4957  1.2793  0.2938
 2903SOL     OW 9286   2.985   6.103   1.861  0.4624 -0.1679  0.1738
 2903SOL    HW1 9287   3.012   6.023   1.817  3.3131  0.6478  0.2226
 2903SOL    HW2 9288   3.057   6.123   1.921  0.7650  3.3513 -1.1053
 2904SOL     OW 9289   0.142   8.591   0.048 -0.1001 -0.1229 -0.2524
 2904SOL    HW1 9290   0.107   8.671   0.009 -0.9517  0.3168  1.3575
 2904SOL    HW2 9291   0.227   8.616   0.083 -0.8803  0.4354  1.3314
 2905SOL     OW 9292   4.239   1.319   0.616 -0.1183 -0.2020  0.7366
 2905SOL    HW1 9293   4.178   1.343   0.546  1.7461  0.4524 -0.7347
 2905SOL    HW2 9294   4.213   1.373   0.691 -1.1786  0.2369  0.0708
 2906SOL     OW 9295   9.536   6.399   8.275 -0.6968  0.4204  0.0364
 2906SOL    HW1 9296   9.509   6.444   8.354  0.3689  0.6391  0.2847
 2906SOL    HW2 9297   9.603   6.455   8.236  0.9319 -1.0902  0.5525
 2907SOL     OW 9298   4.654   8.102   0.560  0.2199  0.0926 -0.4538
 2907SOL    HW1 9299   4.615   8.148   0.486 -1.0177 -1.4547 -0.7938
 2907SOL    HW2 9300   4.733   8.061   0.524  0.5952  0.8119 -0.4675
 2908SOL     OW 9301   2.965   4.536   8.233 -0.0965 -0.3148  0.1620
 2908SOL    HW1 9302   2.879   4.519   8.272  0.1616  1.1091  1.4543
 2908SOL    HW2 9303   3.027   4.508   8.301  0.3900  1.1846  0.3662
 2909SOL     OW 9304   8.790   1.096   3.190 -0.2760  0.1159 -0.4311
 2909SOL    HW1 9305   8.750   1.009   3.188 -1.0073  0.4511 -1.5328
 2909SOL    HW2 9306   8.873   1.083   3.235 -1.2714 -0.7555  1.2575
 2910SOL     OW 9307   8.607   9.173   7.850  0.1262 -0.0583  0.1923
 2910SOL    HW1 9308   8.641   9.229   7.920 -0.7434 -0.1012  0.6617
 2910SOL    HW2 9309   8.660   9.195   7.774  0.7752  0.3297  0.7514
 2911SOL     OW 9310   8.128   8.781   8.424  0.0605  0.1228  0.1647
 2911SOL    HW1 9311   8.098   8.806   8.511  1.2215  0.0611  0.6005
 2911SOL    HW2 9312   8.111   8.687   8.419 -1.0924  0.3316 -0.1428
 2912SOL     OW 9313   3.200   2.108   1.207 -0.0828  0.2248  0.2954
 2912SOL    HW1 9314   3.196   2.022   1.248  0.9635 -0.2607 -0.5646
 2912SOL    HW2 9315   3.289   2.139   1.223 -0.4118  1.1064  0.4989
 2913SOL     OW 9316   5.078   4.457   8.005  0.5470  0.0967 -0.6011
 2913SOL    HW1 9317   5.112   4.522   8.068 -0.8300  0.3808 -0.1201
 2913SOL    HW2 9318   4.984   4.454   8.022  0.3990 -1.0939 -1.5064
 2914SOL     OW 9319   6.345   7.533   4.284  0.4667 -0.0685 -0.1010
 2914SOL    HW1 9320   6.275   7.595   4.300 -0.5626 -1.2699  0.2150
 2914SOL    HW2 9321   6.422   7.587   4.265 -0.5527  1.2717 -0.5500
 2915SOL     OW 9322   0.593   4.505   4.150  0.0302  0.3534  0.4395
 2915SOL    HW1 9323   0.635   4.423   4.175  1.4098  0.6280 -0.8187
 2915SOL    HW2 9324   0.517   4.511   4.207 -0.6603 -2.2678 -0.0341
 2916SOL     OW 9325   2.637   6.921   2.883 -0.1104  0.0942 -0.2017
 2916SOL    HW1 9326   2.562   6.970   2.848 -0.9665 -0.9832  0.0554
 2916SOL    HW2 9327   2.693   6.906   2.807 -0.3189  0.6151 -0.4660
 2917SOL     OW 9328   3.734   3.542   6.052  0.2034  0.2742 -0.0516
 2917SOL    HW1 9329   3.753   3.567   5.961  0.4060  0.5822  0.0731
 2917SOL    HW2 9330   3.754   3.449   6.055  1.9756  0.6160  0.1310
 2918SOL     OW 9331   0.100   2.982   9.725  0.1435 -0.4960 -0.5265
 2918SOL    HW1 9332   0.159   2.925   9.675  1.7696  0.9048 -0.3013
 2918SOL    HW2 9333   0.089   2.937   9.809  0.3271 -1.0996 -0.8189
 2919SOL     OW 9334   0.674   5.290   9.516 -0.5448 -0.2895  0.2435
 2919SOL    HW1 9335   0.721   5.329   9.443 -0.5529 -0.2230  0.2742
 2919SOL    HW2 9336   0.585   5.276   9.483 -0.6728  0.1658  0.3908
 2920SOL     OW 9337   1.385   0.898   6.010  0.4284 -0.1281 -0.1051
 2920SOL    HW1 9338   1.330   0.825   5.979 -1.0711  0.8495  0.1242
 2920SOL    HW2 9339   1.322   0.963   6.042  1.7468  1.0383  0.2157
 2921SOL     OW 9340   0.214   3.049   0.544  0.7976  0.1777 -0.0659
 2921SOL    HW1 9341   0.292   3.027   0.595  0.2612  0.9826  1.1548
 2921SOL    HW2 9342   0.249   3.083   0.461  1.6715 -1.6914 -0.5061
 2922SOL     OW 9343   4.595   8.957   9.185  0.4244 -0.5290  0.3576
 2922SOL    HW1 9344   4.639   8.910   9.256  0.9506 -0.8459 -0.1688
 2922SOL    HW2 9345   4.584   9.046   9.217  0.5628 -0.6958  0.8740
 2923SOL     OW 9346   5.004   4.930   8.466 -0.1667  0.3219 -0.6972
 2923SOL    HW1 9347   5.001   4.873   8.390  2.0486 -1.9626  0.8030
 2923SOL    HW2 9348   5.044   5.011   8.434 -0.0472 -0.2771 -2.1140
 2924SOL     OW 9349   0.576   6.663   3.492 -0.3692 -0.3694 -0.7780
 2924SOL    HW1 9350   0.498   6.698   3.535 -0.5241 -0.5515 -0.9121
 2924SOL    HW2 9351   0.599   6.728   3.426 -0.9704 -0.7725 -1.3910
 2925SOL     OW 9352   1.320   9.100   4.591 -0.1560 -0.4743  0.2942
 2925SOL    HW1 9353   1.399   9.125   4.639 -0.5265  0.6476  0.3485
 2925SOL    HW2 9354   1.248   9.130   4.646 -0.6246 -1.0390  0.0087
 2926SOL     OW 9355   7.808   7.535   2.589  0.2791 -0.2116 -0.6423
 2926SOL    HW1 9356   7.734   7.476   2.581  1.0551 -1.2945 -0.0596
 2926SOL    HW2 9357   7.821   7.545   2.684  0.9297 -0.0981 -0.7377
 2927SOL     OW 9358   8.491   6.089   6.874 -0.2532  0.6832  0.0686
 2927SOL    HW1 9359   8.581   6.122   6.877 -0.5926  1.6980 -0.4611
 2927SOL    HW2 9360   8.500   5.998   6.844  0.7213  0.1895  1.6966
 2928SOL     OW 9361   7.142   5.110   4.023  0.3341 -0.2342 -0.2410
 2928SOL    HW1 9362   7.104   5.133   4.108  0.4760  0.6339 -0.4060
 2928SOL    HW2 9363   7.221   5.164   4.017  0.3408 -0.3198 -0.9102
 2929SOL     OW 9364   4.135   6.114   4.449 -0.1505 -0.6416 -0.5095
 2929SOL    HW1 9365   4.176   6.046   4.395 -0.5263 -0.7185 -0.7084
 2929SOL    HW2 9366   4.201   6.137   4.513 -0.8328 -3.0652  1.2357
 2930SOL     OW 9367   5.270   9.570   5.938 -0.5386 -0.4936 -0.2313
 2930SOL    HW1 9368   5.266   9.664   5.919 -3.1123 -0.1973  1.3183
 2930SOL    HW2 9369   5.190   9.534   5.900 -0.4040 -1.7548  0.6192
 2931SOL     OW 9370   8.471   0.528   7.828  0.3938  0.3183 -0.4197
 2931SOL    HW1 9371   8.552   0.493   7.866 -0.6769 -0.8380  0.9150
 2931SOL    HW2 9372   8.487   0.622   7.821  2.2022  0.0047 -1.1401
 2932SOL     OW 9373   9.080   4.320   4.606 -0.6083 -0.2525  0.1539
 2932SOL    HW1 9374   9.145   4.338   4.538 -1.8502 -1.7489 -1.5103
 2932SOL    HW2 9375   9.063   4.406   4.646  1.4933  0.3582 -0.1156
 2933SOL     OW 9376   6.712   9.435   0.840  0.8178 -0.3097 -0.4655
 2933SOL    HW1 9377   6.641   9.406   0.897  0.6270  1.4162  0.2589
 2933SOL    HW2 9378   6.668   9.472   0.763  1.0464 -1.6350 -1.2742
 2934SOL     OW 9379   9.089   2.153   0.748 -0.2363  0.1486  0.1100
 2934SOL    HW1 9380   9.151   2.205   0.696  1.6287 -0.4723  1.5859
 2934SOL    HW2 9381   9.035   2.108   0.682 -0.6643  2.4464 -1.2037
 2935SOL     OW 9382   4.420   0.040   9.936  0.0448  0.1823 -0.0596
 2935SOL    HW1 9383   4.361  -0.031   9.959  0.2560  0.0773  0.1752
 2935SOL    HW2 9384   4.375   0.120   9.964  1.0575 -0.0412  2.5139
 2936SOL     OW 9385   3.785   5.393   4.978  0.0315  0.4334 -0.0420
 2936SOL    HW1 9386   3.780   5.320   5.041  0.1210  0.3498 -0.1317
 2936SOL    HW2 9387   3.695   5.426   4.973 -0.1333 -0.0738 -0.4761
 2937SOL     OW 9388   4.044   2.547   7.421 -0.5449 -0.5881 -0.1231
 2937SOL    HW1 9389   4.083   2.460   7.415 -2.2257 -1.2668 -2.8195
 2937SOL    HW2 9390   3.973   2.536   7.484 -0.4129 -1.0422 -0.0454
 2938SOL     OW 9391   4.029   7.416   0.614 -0.1101  0.0269 -0.0636
 2938SOL    HW1 9392   4.099   7.350   0.610 -0.3834 -0.3469  0.9791
 2938SOL    HW2 9393   4.063   7.489   0.562  0.7881 -0.3937 -0.1010
 2939SOL     OW 9394   7.884   6.428   0.541  0.5875 -0.4723  0.5540
 2939SOL    HW1 9395   7.884   6.454   0.449 -1.2649  1.5999  1.0696
 2939SOL    HW2 9396   7.903   6.334   0.540 -0.2422 -0.6638 -1.9897
 2940SOL     OW 9397   3.512   2.986   5.776  0.6617  0.5783 -0.4722
 2940SOL    HW1 9398   3.497   2.927   5.702 -0.7314 -0.3086  0.4663
 2940SOL    HW2 9399   3.598   2.961   5.810  0.4028 -0.4261 -0.5410
 2941SOL     OW 9400   6.589   1.575   5.324 -0.2761 -0.1543 -0.0146
 2941SOL    HW1 9401   6.600   1.650   5.383  0.4999  0.1887 -0.5810
 2941SOL    HW2 9402   6.678   1.549   5.301 -0.5462  0.8264 -2.4376
 2942SOL     OW 9403   4.196   5.833   9.922  0.3014 -1.0692 -0.2835
 2942SOL    HW1 9404   4.208   5.925   9.898  1.7197 -0.8005  1.2912
 2942SOL    HW2 9405   4.254   5.786   9.862 -0.7770 -1.0085 -1.4070
 2943SOL     OW 9406   1.734   2.880   2.024  0.4483 -0.4815  0.3682
 2943SOL    HW1 9407   1.702   2.855   1.938  1.9966  0.4067 -0.5103
 2943SOL    HW2 9408   1.755   2.797   2.067  1.5593 -0.9013 -0.9033
 2944SOL     OW 9409   3.433   1.914   9.187 -0.3695  0.3865  0.2106
 2944SOL    HW1 9410   3.383   1.863   9.124 -1.5254  0.8677  0.7118
 2944SOL    HW2 9411   3.494   1.965   9.134 -1.1224  0.5569 -0.5008
 2945SOL     OW 9412   4.515   3.692   6.697  0.2592  0.3848  0.0708
 2945SOL    HW1 9413   4.576   3.748   6.744  1.2900 -0.9101  0.3282
 2945SOL    HW2 9414   4.487   3.627   6.762 -0.7326  0.4392 -0.2825
 2946SOL     OW 9415   0.149  -0.006   2.958 -0.2376 -0.1673 -0.4436
 2946SOL    HW1 9416   0.101   0.066   2.916  0.2474  0.3602 -0.1019
 2946SOL    HW2 9417   0.221  -0.024   2.898  1.0822  1.3036  0.6306
 2947SOL     OW 9418   8.345   1.146   5.691 -0.1986 -0.3406 -0.0647
 2947SOL    HW1 9419   8.394   1.165   5.611  1.9888 -2.4973  0.6736
 2947SOL    HW2 9420   8.287   1.074   5.667 -0.1525 -0.4234  0.0716
 2948SOL     OW 9421   3.927   6.390   7.301 -0.2271  0.5976 -0.3690
 2948SOL    HW1 9422   3.951   6.377   7.393  0.1487  1.6001 -0.3035
 2948SOL    HW2 9423   3.833   6.411   7.303 -0.3111  0.2054 -0.2540
 2949SOL     OW 9424   5.989   7.364   4.889 -0.3697 -0.0838  0.0546
 2949SOL    HW1 9425   5.903   7.373   4.929 -0.0606  1.0137  0.5183
 2949SOL    HW2 9426   5.975   7.388   4.797 -0.4889  0.4514  0.2115
 2950SOL     OW 9427   8.496   3.099   3.952 -0.2522 -0.2762 -0.1390
 2950SOL    HW1 9428   8.570   3.150   3.985 -1.4604  1.3970  0.1487
 2950SOL    HW2 9429   8.489   3.124   3.860 -0.3397 -0.5799 -0.2150
 2951SOL     OW 9430   5.200   7.353   7.255 -0.0650 -0.0456 -0.4739
 2951SOL    HW1 9431   5.231   7.427   7.203 -1.4084  0.5402 -0.4695
 2951SOL    HW2 9432   5.267   7.341   7.322  0.4181  0.8364 -0.7835
 2952SOL     OW 9433   0.616   5.933   4.156 -0.4240  0.8632  0.4449
 2952SOL    HW1 9434   0.622   5.866   4.088 -0.8747  2.0608 -0.8311
 2952SOL    HW2 9435   0.706   5.946   4.185 -0.2778  0.0408  0.3709
 2953SOL     OW 9436   6.105   6.924   5.942  0.0115 -0.1118  0.3618
 2953SOL    HW1 9437   6.042   6.882   6.000  1.0590 -1.3792  0.6357
 2953SOL    HW2 9438   6.156   6.981   6.000 -0.3300  0.2618  0.2950
 2954SOL     OW 9439   7.711   3.437   2.085  1.1580 -0.2055  0.2209
 2954SOL    HW1 9440   7.693   3.403   1.997  3.3069 -1.7882  0.3175
 2954SOL    HW2 9441   7.630   3.421   2.134  0.5984 -1.1108 -0.9501
 2955SOL     OW 9442   9.973   7.112   9.213 -0.1976 -0.2340  0.2850
 2955SOL    HW1 9443   9.967   7.203   9.241  1.5139  0.6228 -1.8595
 2955SOL    HW2 9444   9.947   7.062   9.290 -0.3817  2.0363  1.7987
 2956SOL     OW 9445   8.563   6.849   6.951 -0.5647  0.4351  0.3774
 2956SOL    HW1 9446   8.518   6.835   6.868 -0.4672  2.1845 -0.0092
 2956SOL    HW2 9447   8.652   6.875   6.926 -0.7936  1.8757  0.9703
 2957SOL     OW 9448   6.459   8.316   4.667 -0.4457  0.3162 -0.5487
 2957SOL    HW1 9449   6.395   8.372   4.623 -1.3377  1.5529  2.1276
 2957SOL    HW2 9450   6.541   8.364   4.660 -0.5095  0.3595 -1.0748
 2958SOL     OW 9451   2.318   9.224   2.863  0.4763  0.1689  0.3972
 2958SOL    HW1 9452   2.394   9.281   2.852  0.7045 -0.5175 -2.0436
 2958SOL    HW2 9453   2.252   9.259   2.803 -1.4387  1.0742  2.8316
 2959SOL     OW 9454   7.574   2.452   3.725  0.3615  0.1018 -0.4067
 2959SOL    HW1 9455   7.547   2.541   3.704 -0.7394 -0.3818 -1.1574
 2959SOL    HW2 9456   7.631   2.461   3.801 -1.9438  1.2408  1.3059
 2960SOL     OW 9457   4.131   1.279   6.151  0.1964  0.4092  0.1109
 2960SOL    HW1 9458   4.109   1.343   6.220  0.1282  0.6612 -0.1427
 2960SOL    HW2 9459   4.185   1.214   6.196 -0.3467  0.2439  0.5472
 2961SOL     OW 9460   9.283   8.163   1.551  0.1787 -0.1023  0.7910
 2961SOL    HW1 9461   9.340   8.104   1.601  0.8514  0.5727  0.8470
 2961SOL    HW2 9462   9.282   8.244   1.602  0.5743  0.4731 -0.0953
 2962SOL     OW 9463   3.531   7.874   8.776 -0.3590 -0.2441 -0.7562
 2962SOL    HW1 9464   3.484   7.902   8.698  1.0835 -0.4654 -1.7601
 2962SOL    HW2 9465   3.586   7.948   8.799  0.6077 -0.8246 -1.1073
 2963SOL     OW 9466   4.516   3.377   1.912 -1.0587  0.1589  0.4531
 2963SOL    HW1 9467   4.491   3.466   1.885  1.0725  0.2135 -1.6740
 2963SOL    HW2 9468   4.588   3.391   1.973 -1.4295 -0.1059  0.9535
 2964SOL     OW 9469   7.244   5.717   6.211  0.0206 -0.0765  0.1236
 2964SOL    HW1 9470   7.209   5.807   6.208 -1.5752 -0.6762 -0.3772
 2964SOL    HW2 9471   7.188   5.672   6.274 -0.8950 -1.3636 -1.5099
 2965SOL     OW 9472   0.338   3.359   7.637 -0.4224  0.2960 -0.0085
 2965SOL    HW1 9473   0.285   3.413   7.579  0.5418 -0.0556 -1.2753
 2965SOL    HW2 9474   0.406   3.323   7.580 -0.4304 -1.4335  0.9961
 2966SOL     OW 9475   8.252   2.330   7.822 -0.1757  0.1415 -0.2876
 2966SOL    HW1 9476   8.313   2.397   7.853  0.2504 -1.1495  1.9006
 2966SOL    HW2 9477   8.206   2.371   7.749  0.9283  2.3525  0.1687
 2967SOL     OW 9478   5.616   1.324   7.918  0.5648  0.1143 -0.0578
 2967SOL    HW1 9479   5.617   1.275   8.000  0.2557 -1.0908 -0.7553
 2967SOL    HW2 9480   5.523   1.338   7.900  0.6185 -0.0256 -0.4384
 2968SOL     OW 9481   0.071   4.355   0.408  0.0122 -0.5264 -0.0495
 2968SOL    HW1 9482   0.046   4.267   0.379 -0.9299 -0.2888  0.0133
 2968SOL    HW2 9483   0.167   4.354   0.407  0.0290 -0.8732 -2.1219
 2969SOL     OW 9484   8.757   4.412   8.168 -0.7312 -0.0790  0.4922
 2969SOL    HW1 9485   8.834   4.455   8.131 -1.4209  1.4124  0.6956
 2969SOL    HW2 9486   8.790   4.332   8.208  0.3998 -0.4941 -1.1708
 2970SOL     OW 9487   6.227   6.943   5.675 -0.2703 -0.0544 -0.3472
 2970SOL    HW1 9488   6.211   6.925   5.768 -2.0890  1.2134 -0.3539
 2970SOL    HW2 9489   6.166   6.885   5.629  1.7260 -1.8349 -0.8754
 2971SOL     OW 9490   4.314   8.303   9.227 -0.0938 -0.1014 -0.1852
 2971SOL    HW1 9491   4.393   8.297   9.281  1.5986  0.6381 -2.4380
 2971SOL    HW2 9492   4.242   8.307   9.291  1.5216 -2.1046  1.9309
 2972SOL     OW 9493   7.276   1.632   5.483  0.0145 -0.0709  0.2136
 2972SOL    HW1 9494   7.327   1.601   5.558  1.4533 -1.1902 -1.1496
 2972SOL    HW2 9495   7.198   1.577   5.482  0.2358 -0.3904  0.6068
 2973SOL     OW 9496   0.201   8.835   0.894  0.3557 -0.6084 -0.0093
 2973SOL    HW1 9497   0.122   8.889   0.895 -0.0280 -1.0938 -1.4113
 2973SOL    HW2 9498   0.269   8.890   0.934 -0.3165  0.4294 -0.2684
 2974SOL     OW 9499   1.251   3.293   0.090  0.5479 -0.2152  0.1911
 2974SOL    HW1 9500   1.306   3.222   0.057 -0.7743 -0.8153 -0.8011
 2974SOL    HW2 9501   1.188   3.309   0.020  0.7266  1.8656  0.4554
 2975SOL     OW 9502   6.018   5.148   2.799 -0.8083 -0.1862 -0.3701
 2975SOL    HW1 9503   5.995   5.193   2.880  1.4925  0.8549 -0.2408
 2975SOL    HW2 9504   5.979   5.061   2.808 -2.4921  0.6405  0.8348
 2976SOL     OW 9505   6.194   2.799   5.128  0.1648 -0.3060 -0.0171
 2976SOL    HW1 9506   6.215   2.748   5.206  0.2481 -0.6110 -0.2395
 2976SOL    HW2 9507   6.101   2.782   5.113 -0.1087  0.5339  0.5878
 2977SOL     OW 9508   1.973   4.347   0.773 -0.1245 -0.0746  0.1832
 2977SOL    HW1 9509   2.000   4.434   0.744  0.6816 -0.1354  0.7254
 2977SOL    HW2 9510   2.011   4.338   0.860 -0.4993 -0.8359  0.2766
 2978SOL     OW 9511   3.198   9.137   9.730  0.1302  0.8298  0.7370
 2978SOL    HW1 9512   3.239   9.223   9.740  0.5969  0.5279  1.5493
 2978SOL    HW2 9513   3.143   9.128   9.808  2.8520 -1.0753  2.6306
 2979SOL     OW 9514   0.104   6.890   8.112  0.0258 -0.3128 -0.2974
 2979SOL    HW1 9515   0.144   6.975   8.095  0.3804 -0.3637  0.2744
 2979SOL    HW2 9516   0.103   6.882   8.207 -0.6769 -0.6340 -0.3255
 2980SOL     OW 9517   4.111   4.483   9.937 -0.2540  0.3184  0.0391
 2980SOL    HW1 9518   4.056   4.561   9.935  1.5054  1.6167 -0.6243
 2980SOL    HW2 9519   4.143   4.473   9.847  1.4667  0.3114  0.6011
 2981SOL     OW 9520   0.477   0.616   2.377  0.1664  0.1436 -0.3676
 2981SOL    HW1 9521   0.522   0.693   2.410  0.3172 -0.1365  0.0813
 2981SOL    HW2 9522   0.453   0.639   2.287 -0.0505  0.8229 -0.1412
 2982SOL     OW 9523   9.281   6.430   9.774 -0.0372 -0.5560  0.0228
 2982SOL    HW1 9524   9.232   6.351   9.755 -1.2311  0.5840 -1.9860
 2982SOL    HW2 9525   9.245   6.462   9.857 -1.7709 -0.4663 -0.7301
 2983SOL     OW 9526   0.317   7.040   4.030 -0.0928  0.2939 -0.0331
 2983SOL    HW1 9527   0.382   7.038   3.961  1.9824  1.3589  1.7418
 2983SOL    HW2 9528   0.360   6.999   4.105 -1.3962  1.1509  1.2504
 2984SOL     OW 9529   7.877   3.772   1.154  0.3589 -0.2733 -0.4766
 2984SOL    HW1 9530   7.936   3.696   1.164  0.6700 -0.0021 -0.2273
 2984SOL    HW2 9531   7.924   3.830   1.094  0.6425  0.2345  0.2220
 2985SOL     OW 9532   6.568   2.380   3.721  0.2856  0.4119  0.0941
 2985SOL    HW1 9533   6.613   2.444   3.665  1.2092 -0.7197 -0.5150
 2985SOL    HW2 9534   6.630   2.308   3.728 -1.6436 -1.5232 -1.3151
 2986SOL     OW 9535   8.660   2.926   3.435  0.1360  0.4862 -0.1412
 2986SOL    HW1 9536   8.581   2.967   3.469 -0.1758  0.3887 -0.7526
 2986SOL    HW2 9537   8.731   2.970   3.483 -0.2177  1.3789 -0.4176
 2987SOL     OW 9538   5.146   0.730   8.506  0.4955  0.2396  0.2590
 2987SOL    HW1 9539   5.054   0.755   8.520  0.5869  1.3190 -0.9551
 2987SOL    HW2 9540   5.149   0.703   8.414  1.1995 -0.7920  0.5635
 2988SOL     OW 9541   5.705   8.067   6.495 -0.1575 -0.0403 -0.1360
 2988SOL    HW1 9542   5.686   8.101   6.407  0.1027  1.1259  0.2360
 2988SOL    HW2 9543   5.765   8.132   6.533  0.7618 -1.2007  0.4401
 2989SOL     OW 9544   2.103   6.088   2.502 -0.2613 -0.5060 -0.0174
 2989SOL    HW1 9545   2.189   6.047   2.515  0.8044  1.1990 -1.2596
 2989SOL    HW2 9546   2.057   6.073   2.584  1.8534 -0.0193  1.3435
 2990SOL     OW 9547   3.952   8.890   8.992  0.1348  0.5603 -0.2375
 2990SOL    HW1 9548   3.924   8.966   9.044 -2.0548 -0.2277 -0.1403
 2990SOL    HW2 9549   4.007   8.839   9.050  0.7353  1.5311  0.0561
 2991SOL     OW 9550   5.982   3.584   3.368  0.2153  0.2767  0.2480
 2991SOL    HW1 9551   5.978   3.546   3.456 -0.1693  1.7841  0.9234
 2991SOL    HW2 9552   6.066   3.629   3.366  0.0257  0.6221  0.0103
 2992SOL     OW 9553   7.532   9.176   3.862  0.0562 -0.1460  0.4471
 2992SOL    HW1 9554   7.512   9.260   3.821 -0.6964 -1.0280 -1.0586
 2992SOL    HW2 9555   7.460   9.162   3.924  0.6802  0.7202  1.4196
 2993SOL     OW 9556   0.560   5.345   5.401 -0.3977 -0.3604 -0.1488
 2993SOL    HW1 9557   0.493   5.283   5.372 -0.2180 -0.3019 -0.7019
 2993SOL    HW2 9558   0.621   5.350   5.328 -1.8855  2.6256 -1.3973
 2994SOL     OW 9559   6.531   3.069   4.681  0.4739  0.1036  0.1154
 2994SOL    HW1 9560   6.549   2.978   4.706  1.3453  0.4906  0.9527
 2994SOL    HW2 9561   6.613   3.100   4.642 -0.1358  0.2366 -1.1068
 2995SOL     OW 9562   3.570   8.465   4.529  0.3270  0.1507  0.0261
 2995SOL    HW1 9563   3.619   8.383   4.525 -2.0147 -1.2866 -0.6807
 2995SOL    HW2 9564   3.564   8.493   4.438  0.9827  1.0666  0.2493
 2996SOL     OW 9565   2.672   3.415   3.351  0.0416  0.6976  0.0279
 2996SOL    HW1 9566   2.593   3.401   3.299 -0.6089 -0.8441  1.3405
 2996SOL    HW2 9567   2.694   3.328   3.385  2.3869  1.0651 -0.3992
 2997SOL     OW 9568   7.487   5.784   9.268 -0.4091  0.8962  0.0542
 2997SOL    HW1 9569   7.550   5.777   9.340  3.0752  1.1266 -2.7253
 2997SOL    HW2 9570   7.505   5.869   9.228 -0.3615 -0.2434 -2.5852
 2998SOL     OW 9571   6.493   4.684   4.379  0.2746  0.3667  0.5973
 2998SOL    HW1 9572   6.516   4.610   4.435  1.2308 -1.2738 -1.8396
 2998SOL    HW2 9573   6.577   4.726   4.359  0.0425  0.4284 -0.2744
 2999SOL     OW 9574   0.256   8.771   6.095 -0.5495 -0.1023  0.1614
 2999SOL    HW1 9575   0.205   8.690   6.088 -1.7968  0.6924 -0.1821
 2999SOL    HW2 9576   0.223   8.813   6.175  1.7874 -1.0493  1.7255
 3000SOL     OW 9577   6.043   9.933   1.318  0.1262 -0.1711  0.4490
 3000SOL    HW1 9578   5.998   9.920   1.234 -1.1981  1.6256  0.8188
 3000SOL    HW2 9579   5.973   9.930   1.383  0.4903  2.5542  1.0692
 3001SOL     OW 9580   5.600   2.395   1.797  0.6946  0.1853  0.1216
 3001SOL    HW1 9581   5.690   2.372   1.772  1.2528  0.2633  1.9156
 3001SOL    HW2 9582   5.610   2.445   1.878 -1.0081 -0.2520  0.6398
 3002SOL     OW 9583   2.339   0.063   9.701  0.1966  0.4037 -0.0863
 3002SOL    HW1 9584   2.291   0.008   9.639 -2.0365  1.2419  0.7992
 3002SOL    HW2 9585   2.315   0.152   9.678 -2.0150  0.7085  2.8709
 3003SOL     OW 9586   1.098   9.886   3.630 -0.5246  0.5625 -0.0019
 3003SOL    HW1 9587   1.081   9.975   3.662 -1.8361  0.4806 -0.4172
 3003SOL    HW2 9588   1.096   9.831   3.708  0.5288  0.9190  0.2875
 3004SOL     OW 9589   7.243   0.803   7.996 -0.0203 -0.1547 -0.5257
 3004SOL    HW1 9590   7.152   0.791   7.968 -0.8278 -1.0923  2.2230
 3004SOL    HW2 9591   7.290   0.729   7.957 -0.5908 -0.1681 -1.2180
 3005SOL     OW 9592   8.557   3.848   2.171  0.3679 -0.0968  0.1232
 3005SOL    HW1 9593   8.525   3.784   2.234 -0.7453  1.4506  1.2124
 3005SOL    HW2 9594   8.640   3.877   2.207  0.7227 -0.6778 -0.2109
 3006SOL     OW 9595   6.386   4.640   2.280  0.1298  0.2457 -0.0799
 3006SOL    HW1 9596   6.320   4.578   2.312  0.5478  0.1665  0.6523
 3006SOL    HW2 9597   6.336   4.717   2.254 -0.5580 -0.8710 -2.3366
 3007SOL     OW 9598   0.365   3.075   1.649 -0.3348  0.4617  0.6210
 3007SOL    HW1 9599   0.373   3.062   1.743 -0.5957  0.0634  0.5914
 3007SOL    HW2 9600   0.276   3.046   1.628 -0.3792  0.8329  0.2997
 3008SOL     OW 9601   2.939   6.542   9.093 -0.6078  0.3165  0.3251
 3008SOL    HW1 9602   2.912   6.478   9.027  0.3270  0.4800 -0.2230
 3008SOL    HW2 9603   2.874   6.532   9.163 -0.9478 -0.6566 -0.1081
 3009SOL     OW 9604   2.244   5.694   3.607  0.1043 -0.2132  0.4432
 3009SOL    HW1 9605   2.327   5.731   3.577 -0.6266  1.0421 -0.0911
 3009SOL    HW2 9606   2.190   5.689   3.528 -0.3462 -1.0069  0.7910
 3010SOL     OW 9607   4.306   7.069   8.293  0.5905  0.2002  0.0547
 3010SOL    HW1 9608   4.300   7.116   8.376 -0.2950 -0.6493  0.5046
 3010SOL    HW2 9609   4.382   7.012   8.303 -0.5478 -1.2230  1.0369
 3011SOL     OW 9610   8.991   6.503   0.291  0.2005 -0.3186 -0.5092
 3011SOL    HW1 9611   8.946   6.499   0.206 -0.7787 -0.3673  0.0012
 3011SOL    HW2 9612   9.041   6.584   0.288 -0.1680 -0.1047 -0.9641
 3012SOL     OW 9613   0.541   0.267   3.336  0.3022  0.5582  0.0361
 3012SOL    HW1 9614   0.608   0.199   3.342  0.4614  0.5243 -1.6245
 3012SOL    HW2 9615   0.465   0.228   3.379  0.9941  0.1486  0.9292
 3013SOL     OW 9616   3.301   2.392   1.250  0.6702 -0.5054 -0.4244
 3013SOL    HW1 9617   3.220   2.350   1.278  1.6205 -0.1777  3.3504
 3013SOL    HW2 9618   3.363   2.320   1.239  0.4895 -0.5792 -0.9851
 3014SOL     OW 9619   9.151   6.395   6.918  0.1035  0.0081  0.1707
 3014SOL    HW1 9620   9.183   6.450   6.847 -0.7273  3.4035  2.2116
 3014SOL    HW2 9621   9.221   6.397   6.984 -0.0518 -1.2400  0.4051
 3015SOL     OW 9622   6.048   8.674   1.961 -0.7790 -0.3983 -0.0466
 3015SOL    HW1 9623   5.983   8.610   1.932 -0.1037 -1.1152 -0.0254
 3015SOL    HW2 9624   6.125   8.657   1.906 -0.7347  0.7074 -0.3529
 3016SOL     OW 9625   9.701   0.053   9.566 -0.0258 -0.1632  0.9064
 3016SOL    HW1 9626   9.717  -0.035   9.531  3.3923  0.5620  0.2799
 3016SOL    HW2 9627   9.645   0.039   9.642 -0.8599 -2.6783 -0.0637
 3017SOL     OW 9628   9.821   3.322   7.008 -0.0232  0.0705  0.3691
 3017SOL    HW1 9629   9.808   3.361   7.094 -0.7853 -0.7122  0.6160
 3017SOL    HW2 9630   9.769   3.377   6.949 -1.8578 -1.0708  0.8552
 3018SOL     OW 9631   8.997   4.609   8.180 -0.0712 -0.2312  0.3466
 3018SOL    HW1 9632   9.060   4.550   8.222  0.3457 -0.8396 -1.0969
 3018SOL    HW2 9633   8.982   4.677   8.246  0.9003 -0.9030  1.3138
 3019SOL     OW 9634   3.904   1.975   3.777  0.0045 -0.2205  0.3073
 3019SOL    HW1 9635   3.928   1.970   3.870  0.3007 -0.8338  0.2000
 3019SOL    HW2 9636   3.887   2.068   3.762  1.4632  0.1140  0.6097
 3020SOL     OW 9637   8.071   6.736   9.407  0.0134  0.2157  0.0442
 3020SOL    HW1 9638   8.031   6.649   9.411 -0.7808  0.5438 -0.5485
 3020SOL    HW2 9639   8.001   6.793   9.376  0.3378  1.1978  1.0963
 3021SOL     OW 9640   6.260   8.625   7.775  1.0828 -0.1949 -0.1302
 3021SOL    HW1 9641   6.334   8.578   7.736  2.5666  2.3300 -0.6107
 3021SOL    HW2 9642   6.220   8.671   7.701  2.7989  3.1921  0.8247
 3022SOL     OW 9643   7.709   2.955   5.999  0.2058 -0.0202 -0.4060
 3022SOL    HW1 9644   7.682   2.979   6.088  0.2459 -0.8484 -0.1612
 3022SOL    HW2 9645   7.736   3.038   5.959  0.4721  0.3225  0.4533
 3023SOL     OW 9646   7.973   5.563   7.292  0.6914 -0.2763 -0.0578
 3023SOL    HW1 9647   7.901   5.624   7.305  1.1384 -0.2842  4.1079
 3023SOL    HW2 9648   7.934   5.487   7.249 -0.1296  2.1940 -4.1888
 3024SOL     OW 9649   1.476   6.135   7.903 -0.0657  0.5395 -0.0351
 3024SOL    HW1 9650   1.382   6.140   7.922 -0.5782 -0.5321 -1.9651
 3024SOL    HW2 9651   1.481   6.085   7.821  2.2488 -0.1261  0.4319
 3025SOL     OW 9652   4.270   3.031   9.508 -0.0040 -0.1462  0.2768
 3025SOL    HW1 9653   4.342   3.024   9.569 -0.3060  1.6674  0.9090
 3025SOL    HW2 9654   4.196   2.991   9.553 -0.3733  1.6971  1.4288
 3026SOL     OW 9655   8.290   5.953   0.098  0.0695 -0.3238 -0.0466
 3026SOL    HW1 9656   8.274   5.876   0.043 -1.2269  0.9859 -1.6110
 3026SOL    HW2 9657   8.209   6.004   0.091  0.5598  0.7760  1.6762
 3027SOL     OW 9658   5.568   0.864   4.088 -0.0446  0.1505  0.3745
 3027SOL    HW1 9659   5.503   0.800   4.060  0.2193 -0.3132  0.8137
 3027SOL    HW2 9660   5.517   0.934   4.129 -0.2272 -0.5621  1.4068
 3028SOL     OW 9661   2.877   6.481   7.616 -0.0090  0.1312 -0.0439
 3028SOL    HW1 9662   2.819   6.510   7.686 -0.6058 -0.5748 -0.2330
 3028SOL    HW2 9663   2.962   6.521   7.637 -0.3818  0.5961  0.6215
 3029SOL     OW 9664   9.736   6.635   3.329 -0.0785  0.1838 -0.1943
 3029SOL    HW1 9665   9.696   6.603   3.410  2.3739 -2.6752  0.0439
 3029SOL    HW2 9666   9.671   6.614   3.261 -1.8570  1.9806  0.8410
 3030SOL     OW 9667   9.764   7.116   2.031 -0.1919 -0.2514  0.0140
 3030SOL    HW1 9668   9.820   7.158   2.097 -0.4455 -0.4433  0.3547
 3030SOL    HW2 9669   9.692   7.177   2.019  1.3898  1.3022 -2.4006
 3031SOL     OW 9670   0.455   3.710   5.474  0.1348 -0.1066 -0.1282
 3031SOL    HW1 9671   0.408   3.683   5.396  0.0815  1.4133 -0.6620
 3031SOL    HW2 9672   0.421   3.654   5.544 -0.9307 -0.4506 -0.9043
 3032SOL     OW 9673   9.324   1.299   4.512  0.2453 -0.5374  0.7193
 3032SOL    HW1 9674   9.310   1.334   4.424  1.8310  0.3323  0.7668
 3032SOL    HW2 9675   9.240   1.261   4.537 -0.3572 -0.4084 -0.9892
 3033SOL     OW 9676   7.908   3.390   6.396  0.6443 -0.4011  0.3426
 3033SOL    HW1 9677   7.870   3.390   6.484 -0.8886  0.2756 -0.2720
 3033SOL    HW2 9678   7.888   3.304   6.361  0.5708 -0.4008  0.3838
 3034SOL     OW 9679   4.895   7.968   4.844 -0.0129 -0.0987 -0.0651
 3034SOL    HW1 9680   4.871   7.884   4.884 -1.2613 -0.4190 -1.3867
 3034SOL    HW2 9681   4.968   7.946   4.786  1.3402  0.2395  1.4362
 3035SOL     OW 9682   9.840   7.706   5.764  0.7454 -0.3886 -0.1148
 3035SOL    HW1 9683   9.870   7.618   5.787 -0.9486 -0.4805  2.1064
 3035SOL    HW2 9684   9.870   7.761   5.836  0.4945  0.5772 -0.7250
 3036SOL     OW 9685   0.669   5.803   0.614  0.3154  1.0795  0.1648
 3036SOL    HW1 9686   0.574   5.799   0.628  0.3565 -0.5295  0.1695
 3036SOL    HW2 9687   0.681   5.780   0.522  0.7822 -0.5890  0.6033
 3037SOL     OW 9688   1.115   7.321   1.452 -0.6216  0.2198 -0.1954
 3037SOL    HW1 9689   1.106   7.362   1.366 -0.3875  1.2508  0.2608
 3037SOL    HW2 9690   1.083   7.387   1.514 -2.5239 -1.1677  0.3910
 3038SOL     OW 9691   3.984   4.326   1.231  0.0419  0.0089  0.2907
 3038SOL    HW1 9692   4.009   4.409   1.273 -2.4363  0.4977  0.9299
 3038SOL    HW2 9693   3.917   4.351   1.167 -0.2402 -1.4273  0.0035
 3039SOL     OW 9694   3.622   3.275   3.504  0.1785 -0.0055  0.3426
 3039SOL    HW1 9695   3.642   3.268   3.411  0.2309  1.9558  0.1718
 3039SOL    HW2 9696   3.696   3.323   3.541  0.5736 -1.4801  1.5862
 3040SOL     OW 9697   9.099   7.658   2.501 -0.2414 -0.2018  0.6636
 3040SOL    HW1 9698   9.079   7.619   2.586 -3.2624  0.0543  0.1811
 3040SOL    HW2 9699   9.021   7.640   2.448 -0.0634  2.8838 -0.8519
 3041SOL     OW 9700   3.188   4.933   1.903  0.4807  0.0272 -0.6186
 3041SOL    HW1 9701   3.125   4.871   1.868 -1.6889  0.1821  2.6335
 3041SOL    HW2 9702   3.216   4.895   1.986  1.0586  2.1816  0.2415
 3042SOL     OW 9703   1.603   4.540   2.071 -0.2256  0.1779  0.5757
 3042SOL    HW1 9704   1.614   4.479   1.998  2.0018 -0.5486  1.4389
 3042SOL    HW2 9705   1.558   4.616   2.032  0.6951 -0.2724 -1.4971
 3043SOL     OW 9706   9.174   1.504   8.015  0.0849 -0.0768 -0.3872
 3043SOL    HW1 9707   9.110   1.487   8.084  0.9646 -1.7458  0.0858
 3043SOL    HW2 9708   9.229   1.425   8.013  0.9976  0.5390 -2.0067
 3044SOL     OW 9709   5.934   4.676   8.707 -0.1544 -0.1372 -0.2887
 3044SOL    HW1 9710   5.919   4.629   8.625 -0.4533 -0.7978  0.1385
 3044SOL    HW2 9711   5.929   4.769   8.683  0.6674 -0.3175 -1.1803
 3045SOL     OW 9712   0.520   3.300   1.625 -0.1732  0.5227  0.3791
 3045SOL    HW1 9713   0.454   3.231   1.634  0.9734 -0.7866 -0.5449
 3045SOL    HW2 9714   0.582   3.264   1.561  0.8444  2.1508  0.3960
 3046SOL     OW 9715   1.119   5.541   0.170 -0.1384  0.0789  0.7202
 3046SOL    HW1 9716   1.036   5.537   0.218 -0.9451  0.7466 -0.5643
 3046SOL    HW2 9717   1.176   5.593   0.226 -0.4965 -0.5484  1.7110
 3047SOL     OW 9718   6.087   8.404   6.779  0.2770  0.0054 -0.1815
 3047SOL    HW1 9719   6.000   8.417   6.816 -0.5855 -3.3561 -0.7389
 3047SOL    HW2 9720   6.102   8.481   6.724 -2.6270  0.3669 -0.6078
 3048SOL     OW 9721   3.241   8.835   8.752 -0.4669  0.0060 -0.3128
 3048SOL    HW1 9722   3.329   8.862   8.778 -0.4080 -1.2065  0.8219
 3048SOL    HW2 9723   3.190   8.838   8.833 -1.4437  0.5028 -0.9170
 3049SOL     OW 9724   9.876   1.691   9.262 -0.3049  0.0326  0.2255
 3049SOL    HW1 9725   9.844   1.705   9.173  2.1635 -1.2815 -0.9771
 3049SOL    HW2 9726   9.815   1.629   9.300 -1.0493  0.1289 -0.7741
 3050SOL     OW 9727   2.177   5.765   1.624  0.2877 -0.1630  0.2246
 3050SOL    HW1 9728   2.263   5.742   1.590 -0.6175 -1.2385 -1.4653
 3050SOL    HW2 9729   2.138   5.681   1.650 -0.6012  0.1927  0.0798
 3051SOL     OW 9730   9.768   4.373   7.962  0.2684  0.1337  0.2585
 3051SOL    HW1 9731   9.721   4.367   8.046  0.0507  1.1532  0.2193
 3051SOL    HW2 9732   9.830   4.300   7.965 -0.5187 -0.5390  0.8129
 3052SOL     OW 9733   1.680   2.650   3.797 -0.0298  0.0295  0.1420
 3052SOL    HW1 9734   1.602   2.609   3.761 -0.0905  0.0899  0.2047
 3052SOL    HW2 9735   1.693   2.728   3.743  0.1767 -0.1540 -0.0789
 3053SOL     OW 9736   4.189   0.312   9.396  0.2724  0.3727  0.3335
 3053SOL    HW1 9737   4.256   0.371   9.360 -0.2122  0.3247 -0.6703
 3053SOL    HW2 9738   4.131   0.293   9.322  1.5102 -2.9545  0.0548
 3054SOL     OW 9739   4.282   2.309   3.997 -0.3033  0.0252  0.1201
 3054SOL    HW1 9740   4.346   2.301   3.927 -0.9427 -1.6021 -0.3256
 3054SOL    HW2 9741   4.312   2.383   4.049  0.7042  0.6666 -1.3239
 3055SOL     OW 9742   9.832   3.509   8.243  0.0876  0.1648 -0.5258
 3055SOL    HW1 9743   9.920   3.543   8.256 -0.3555  2.4821 -2.7639
 3055SOL    HW2 9744   9.777   3.563   8.300 -0.2696  1.3439 -1.9228
 3056SOL     OW 9745   9.422   6.299   6.655  0.1987  0.0066  0.2277
 3056SOL    HW1 9746   9.498   6.313   6.711  1.7601 -1.0916 -1.4848
 3056SOL    HW2 9747   9.361   6.368   6.679  2.5450  2.1669  0.3355
 3057SOL     OW 9748   0.264   4.940   1.013 -0.4979  0.0505  0.7912
 3057SOL    HW1 9749   0.261   4.864   1.071 -0.3222  0.2213  1.0265
 3057SOL    HW2 9750   0.356   4.967   1.013 -0.0812 -1.1634 -1.1707
 3058SOL     OW 9751   4.310   7.658   1.778  0.1116 -0.1396 -0.1312
 3058SOL    HW1 9752   4.339   7.641   1.868  0.8144  0.2854 -0.2748
 3058SOL    HW2 9753   4.241   7.593   1.763 -0.2849  0.0355  0.8460
 3059SOL     OW 9754   5.776   1.944   1.045  0.1405  0.5154  0.2444
 3059SOL    HW1 9755   5.762   2.022   1.098 -0.4884 -0.4799  1.5955
 3059SOL    HW2 9756   5.691   1.927   1.004  0.6281  1.2959 -1.1670
 3060SOL     OW 9757   8.648   2.789   8.471  0.1504 -0.5460  0.3200
 3060SOL    HW1 9758   8.643   2.748   8.385  0.7725 -1.3888  0.6713
 3060SOL    HW2 9759   8.569   2.760   8.516  0.4850 -1.2133  0.4941
 3061SOL     OW 9760   8.205   2.861   6.431  0.5385 -0.1647 -0.0365
 3061SOL    HW1 9761   8.234   2.852   6.340  0.1933 -0.1424 -0.1501
 3061SOL    HW2 9762   8.262   2.928   6.468  1.0952 -0.6124 -0.0560
 3062SOL     OW 9763   9.617   0.390   1.327  0.3051  0.0948  0.0275
 3062SOL    HW1 9764   9.704   0.430   1.331  0.7105 -0.7204 -0.3290
 3062SOL    HW2 9765   9.620   0.320   1.392 -0.0401 -0.0311 -0.0911
 3063SOL     OW 9766   6.811   0.217   8.011  0.1567 -0.1269  0.3939
 3063SOL    HW1 9767   6.907   0.211   8.015  0.1194 -2.1333 -0.4322
 3063SOL    HW2 9768   6.793   0.258   7.927  0.3199 -1.9283 -0.5831
 3064SOL     OW 9769   4.329   1.979   5.560  0.2425  0.2698  0.0691
 3064SOL    HW1 9770   4.246   2.004   5.519  2.5305  4.4038 -2.7572
 3064SOL    HW2 9771   4.375   1.929   5.492  0.6539 -0.6814  1.0294
 3065SOL     OW 9772   2.400   7.143   6.648  0.3076  0.2225  0.2186
 3065SOL    HW1 9773   2.355   7.179   6.724  0.3103  2.4174 -0.7604
 3065SOL    HW2 9774   2.475   7.200   6.634 -0.1246  0.3708 -1.8606
 3066SOL     OW 9775   0.831   2.488   7.233  0.5965 -0.1963 -0.1115
 3066SOL    HW1 9776   0.802   2.436   7.308  0.7925 -2.8407 -1.7523
 3066SOL    HW2 9777   0.750   2.528   7.199  0.3010 -0.1310  0.6547
 3067SOL     OW 9778   2.702   2.597   3.281  0.3988  0.4691  0.2533
 3067SOL    HW1 9779   2.696   2.670   3.343 -0.3826  1.3083 -0.7730
 3067SOL    HW2 9780   2.784   2.612   3.234 -0.2969  1.3365 -0.7185
 3068SOL     OW 9781   2.498   9.369   5.446 -1.2979  0.4716  0.4578
 3068SOL    HW1 9782   2.468   9.316   5.372  1.1047 -1.2190  0.6034
 3068SOL    HW2 9783   2.509   9.457   5.410 -0.7480 -0.1842 -1.0395
 3069SOL     OW 9784   7.179   7.708   0.164  0.0781 -0.1935 -0.3741
 3069SOL    HW1 9785   7.160   7.732   0.074  0.5215 -0.3544 -0.5142
 3069SOL    HW2 9786   7.235   7.778   0.197  0.5446 -0.5109 -0.4685
 3070SOL     OW 9787   0.629   4.519   3.547 -0.0499 -0.0370  0.0478
 3070SOL    HW1 9788   0.553   4.483   3.501 -0.0349  0.6886 -0.5522
 3070SOL    HW2 9789   0.610   4.501   3.640 -1.0839  0.3721 -0.0697
 3071SOL     OW 9790   6.549   8.892   0.432  0.1633  0.2819 -0.0299
 3071SOL    HW1 9791   6.547   8.816   0.375  1.9911  0.0288  0.1968
 3071SOL    HW2 9792   6.621   8.946   0.399 -0.1001  1.1506  0.7481
 3072SOL     OW 9793   9.569   9.535   2.663 -0.7945  0.1187 -0.2955
 3072SOL    HW1 9794   9.616   9.493   2.735  0.1831  1.7577  0.0892
 3072SOL    HW2 9795   9.620   9.515   2.585  1.8941  3.5001  0.3615
 3073SOL     OW 9796   6.665   5.666   6.300 -0.0228  0.0079 -0.1783
 3073SOL    HW1 9797   6.697   5.584   6.262 -0.8130 -0.5681  0.3755
 3073SOL    HW2 9798   6.641   5.644   6.390 -0.6406  0.7450 -0.1470
 3074SOL     OW 9799   5.389   0.853   6.465  0.1845 -0.0690  0.3997
 3074SOL    HW1 9800   5.388   0.794   6.389  0.1021  1.0938 -0.5344
 3074SOL    HW2 9801   5.409   0.939   6.428  2.2303  0.2099  1.9598
 3075SOL     OW 9802   0.952   5.815   4.450  0.0859  0.5678 -0.3225
 3075SOL    HW1 9803   0.907   5.739   4.487  1.0769 -0.5779 -1.3785
 3075SOL    HW2 9804   0.932   5.886   4.510 -3.2034  0.1734 -0.7297
 3076SOL     OW 9805   2.207   7.379   0.328 -0.1517  0.3205  0.0810
 3076SOL    HW1 9806   2.188   7.364   0.421 -2.4280  1.6897 -0.0920
 3076SOL    HW2 9807   2.166   7.463   0.309  1.7937  0.9268 -1.7834
 3077SOL     OW 9808   1.092   8.095   3.168 -0.1432 -0.0297  0.0813
 3077SOL    HW1 9809   1.162   8.032   3.148  0.1970  0.1014  0.8412
 3077SOL    HW2 9810   1.019   8.040   3.195  0.1061 -0.1127  0.6006
 3078SOL     OW 9811   3.717   7.920   7.054  0.1155 -0.2562  0.0943
 3078SOL    HW1 9812   3.664   7.863   6.998  0.0665  0.6144 -0.7634
 3078SOL    HW2 9813   3.807   7.898   7.032  0.1545  1.6920 -2.1219
 3079SOL     OW 9814   6.858   0.316   3.005  0.1843  0.1890  0.4806
 3079SOL    HW1 9815   6.935   0.361   3.041 -0.7800  2.2093  0.1228
 3079SOL    HW2 9816   6.792   0.321   3.073 -0.1736 -0.0781  0.1602
 3080SOL     OW 9817   1.988   4.905   7.372 -0.0114  0.2549  0.1036
 3080SOL    HW1 9818   2.019   4.996   7.366  0.7057 -0.0205 -0.5103
 3080SOL    HW2 9819   2.036   4.868   7.446  0.9588 -0.0903 -0.6740
 3081SOL     OW 9820   0.513   4.518   3.798 -0.0297 -0.1462  0.5913
 3081SOL    HW1 9821   0.441   4.578   3.779 -0.6600 -0.5634  1.5856
 3081SOL    HW2 9822   0.471   4.441   3.835  0.8710 -0.7070  0.4761
 3082SOL     OW 9823   8.279   0.071   0.946 -0.2735 -0.4383 -0.3577
 3082SOL    HW1 9824   8.326   0.119   0.878  0.2157  0.6918  0.7216
 3082SOL    HW2 9825   8.270   0.135   1.018 -0.3567 -1.7058  0.8014
 3083SOL     OW 9826   0.936   8.218   9.303 -0.2391  0.0118  0.2594
 3083SOL    HW1 9827   0.931   8.229   9.398 -1.1708 -0.6156  0.3045
 3083SOL    HW2 9828   0.940   8.124   9.290  0.4613  0.1115 -0.3174
 3084SOL     OW 9829   9.482   0.435   7.080  0.1029  0.1730 -0.2846
 3084SOL    HW1 9830   9.481   0.441   7.176  3.1909 -2.2771  0.0921
 3084SOL    HW2 9831   9.529   0.514   7.052 -0.9623  0.9896  0.1587
 3085SOL     OW 9832   1.038   4.768   8.139 -0.1314 -0.1207 -0.0670
 3085SOL    HW1 9833   1.030   4.678   8.106  0.5383  0.0492 -0.7229
 3085SOL    HW2 9834   1.046   4.821   8.060  1.2509  0.3289  0.3433
 3086SOL     OW 9835   3.027   4.288   2.117 -0.2137  0.1526 -0.3893
 3086SOL    HW1 9836   2.966   4.358   2.141 -1.3371 -1.2617  1.1847
 3086SOL    HW2 9837   3.077   4.272   2.197 -1.3826 -2.1308 -0.0182
 3087SOL     OW 9838   9.361   7.313   2.498 -0.2944 -0.0624  0.6928
 3087SOL    HW1 9839   9.360   7.406   2.475  0.2975  0.5374  2.8251
 3087SOL    HW2 9840   9.438   7.278   2.452 -1.7629 -0.0758 -1.9151
 3088SOL     OW 9841   9.789   4.128   3.982 -0.8504 -0.7186  0.0214
 3088SOL    HW1 9842   9.767   4.066   3.913 -0.2367 -1.1097  0.1737
 3088SOL    HW2 9843   9.788   4.077   4.062  0.5049 -0.7343  0.0450
 3089SOL     OW 9844   1.701   9.575   5.275  0.2508  0.2316  0.1400
 3089SOL    HW1 9845   1.717   9.623   5.356 -0.4638 -0.8296  0.9405
 3089SOL    HW2 9846   1.697   9.643   5.207  2.6486  1.0050  0.6755
 3090SOL     OW 9847   0.843   9.195   2.027  0.0817  0.1841  0.0282
 3090SOL    HW1 9848   0.794   9.113   2.027  0.1807  0.0775  1.8876
 3090SOL    HW2 9849   0.859   9.213   2.120  0.6761  1.9433 -0.3793
 3091SOL     OW 9850   4.385   9.327   3.691  0.1552  0.1215  0.0415
 3091SOL    HW1 9851   4.317   9.395   3.694  1.1674  1.1184  1.1500
 3091SOL    HW2 9852   4.348   9.255   3.743 -0.4130  0.2989 -0.1041
 3092SOL     OW 9853   8.978   2.413   0.843  0.2590 -0.4589 -0.0097
 3092SOL    HW1 9854   9.005   2.323   0.824  2.4276  0.3646 -1.1522
 3092SOL    HW2 9855   8.894   2.423   0.797 -0.3699 -2.0599  0.6926
 3093SOL     OW 9856   5.218   6.076   2.715 -0.8457 -0.1425 -0.0975
 3093SOL    HW1 9857   5.265   6.099   2.635  0.5712 -1.0655  0.4333
 3093SOL    HW2 9858   5.126   6.072   2.688 -0.3526 -0.8885 -1.8120
 3094SOL     OW 9859   4.616   6.851   2.494 -0.0643 -0.0564 -0.0476
 3094SOL    HW1 9860   4.537   6.841   2.547  0.1534  2.0688  0.7528
 3094SOL    HW2 9861   4.584   6.860   2.405 -0.5406 -1.8716 -0.0926
 3095SOL     OW 9862   5.618   8.874   4.788 -0.3178  0.4955  0.3675
 3095SOL    HW1 9863   5.586   8.830   4.710  1.1193  0.0709 -0.0020
 3095SOL    HW2 9864   5.696   8.922   4.759  0.2141  0.3604  1.5256
 3096SOL     OW 9865   0.024   0.812   1.498  0.2388  0.1070  0.6043
 3096SOL    HW1 9866  -0.056   0.823   1.549  0.0494 -1.5966  0.7430
 3096SOL    HW2 9867   0.092   0.794   1.563  0.4713  0.2493  0.4021
 3097SOL     OW 9868   4.093   6.942   6.297  0.3435 -0.0099 -0.2087
 3097SOL    HW1 9869   4.015   6.934   6.352  0.7111  3.3588  1.0198
 3097SOL    HW2 9870   4.065   6.912   6.211 -1.3576 -1.8391  0.8952
 3098SOL     OW 9871   3.702   8.497   3.162  0.2758  0.6785  0.4700
 3098SOL    HW1 9872   3.687   8.543   3.080 -1.2347  0.1040  0.4010
 3098SOL    HW2 9873   3.686   8.562   3.230 -1.2222  0.4536  0.3585
 3099SOL     OW 9874   4.257   4.757   6.893  0.2194 -0.1381 -0.0910
 3099SOL    HW1 9875   4.293   4.828   6.839 -0.7460 -0.0416 -0.6420
 3099SOL    HW2 9876   4.180   4.796   6.935  0.0764 -0.6662  0.1403
 3100SOL     OW 9877   5.540   7.406   7.172  0.0287 -0.3341  0.0584
 3100SOL    HW1 9878   5.613   7.469   7.176  0.7279 -1.1541  2.7466
 3100SOL    HW2 9879   5.469   7.449   7.221  0.3388 -1.3462  1.4666
 3101SOL     OW 9880   5.859   3.840   9.634  0.4425 -0.2057 -0.4091
 3101SOL    HW1 9881   5.911   3.904   9.682  0.2165 -0.3200 -0.0063
 3101SOL    HW2 9882   5.886   3.755   9.669 -2.0031 -0.1628  1.8961
 3102SOL     OW 9883   9.848   9.606   4.803  0.2181  0.1127  0.3229
 3102SOL    HW1 9884   9.830   9.665   4.876 -1.4329  0.7536 -0.5489
 3102SOL    HW2 9885   9.942   9.592   4.807  0.2504  0.5574  2.2339
 3103SOL     OW 9886   3.279   9.270   3.355  0.4123  0.1193  0.3094
 3103SOL    HW1 9887   3.328   9.198   3.315 -0.2225  0.1534 -0.5638
 3103SOL    HW2 9888   3.195   9.232   3.379 -0.5998  0.9160 -1.7272
 3104SOL     OW 9889   4.884   7.069   2.315 -0.0572  0.2617  0.1789
 3104SOL    HW1 9890   4.913   7.122   2.240 -2.1991  0.2294 -0.7552
 3104SOL    HW2 9891   4.843   7.132   2.374 -2.0549 -0.2036 -0.6438
 3105SOL     OW 9892   2.597   3.489   9.034  0.5744 -0.0348  0.1650
 3105SOL    HW1 9893   2.515   3.529   9.064  0.4450  0.3678 -0.6980
 3105SOL    HW2 9894   2.658   3.501   9.107  0.4485  1.5062  0.0433
 3106SOL     OW 9895   8.059   6.892   5.743  0.3218 -0.0024  0.2361
 3106SOL    HW1 9896   8.095   6.980   5.743 -0.7379  0.4537  0.6212
 3106SOL    HW2 9897   8.134   6.835   5.757  1.1729  0.7536 -1.0362
 3107SOL     OW 9898   5.352   2.181   4.108  0.3648  0.3692 -0.7482
 3107SOL    HW1 9899   5.349   2.143   4.195 -1.6305 -1.0731 -1.3794
 3107SOL    HW2 9900   5.323   2.272   4.121 -1.3166 -0.2158 -0.0413
 3108SOL     OW 9901   1.922   7.239   0.386 -0.1024 -0.0225 -0.8734
 3108SOL    HW1 9902   1.950   7.273   0.470 -0.7087  1.1672 -1.1288
 3108SOL    HW2 9903   1.846   7.185   0.406  1.0261 -1.4997 -0.4328
 3109SOL     OW 9904   0.204   0.677   3.705  0.0311  0.0999  0.9172
 3109SOL    HW1 9905   0.156   0.696   3.625 -1.4823  1.4715  2.0750
 3109SOL    HW2 9906   0.222   0.583   3.701  0.7939  0.2792 -1.4050
 3110SOL     OW 9907   9.809   4.449   6.944  0.1668  0.2357 -0.8834
 3110SOL    HW1 9908   9.722   4.473   6.912 -0.1310 -0.7882 -0.8912
 3110SOL    HW2 9909   9.856   4.420   6.866  0.0079 -0.6350 -0.6634
 3111SOL     OW 9910   1.720   3.227   3.464  0.0908 -0.2171  0.2878
 3111SOL    HW1 9911   1.712   3.164   3.535 -1.5946  1.1192  1.3712
 3111SOL    HW2 9912   1.786   3.290   3.495 -1.5386  1.0700  1.3194
 3112SOL     OW 9913   5.120   3.044   8.041  0.1056  0.3220 -0.0748
 3112SOL    HW1 9914   5.056   2.994   7.990  0.9361 -1.2358  0.3717
 3112SOL    HW2 9915   5.145   2.986   8.113 -0.2272  2.0551  1.5341
 3113SOL     OW 9916   0.103   6.172   3.989 -0.4125  0.1426  0.6259
 3113SOL    HW1 9917   0.042   6.194   3.918 -0.9578 -1.3988  0.5760
 3113SOL    HW2 9918   0.174   6.235   3.980 -1.5501  1.4108  0.1129
 3114SOL     OW 9919   2.395   1.433   7.982  0.2071  0.3204 -0.2630
 3114SOL    HW1 9920   2.339   1.449   8.058 -0.2543 -2.0310 -0.0333
 3114SOL    HW2 9921   2.483   1.426   8.019 -0.2448 -3.0862  0.5654
 3115SOL     OW 9922   1.311   6.995   9.436  0.7002  0.4922 -1.1975
 3115SOL    HW1 9923   1.314   7.079   9.391  2.1716  1.1036 -0.0692
 3115SOL    HW2 9924   1.350   6.933   9.374  2.3405  1.2434 -0.9828
 3116SOL     OW 9925   6.337   8.112   8.320 -0.3874  0.3383 -0.2507
 3116SOL    HW1 9926   6.355   8.167   8.396 -0.0637 -0.6285  0.3914
 3116SOL    HW2 9927   6.244   8.090   8.327 -0.4139  0.4523 -0.2606
 3117SOL     OW 9928   9.202   5.591   5.328 -0.1188 -0.2113 -0.1079
 3117SOL    HW1 9929   9.195   5.628   5.240 -0.4825 -0.9274 -0.3800
 3117SOL    HW2 9930   9.224   5.499   5.314 -0.7308 -0.4636  0.5398
 3118SOL     OW 9931   3.047   0.020   1.335  0.2572  0.1918  0.0015
 3118SOL    HW1 9932   3.099   0.099   1.347 -0.2931  0.6162 -0.3085
 3118SOL    HW2 9933   3.111  -0.048   1.315  0.8278  0.3265  1.2773
 3119SOL     OW 9934   8.208   5.394   3.310  0.0430  0.0140 -0.1046
 3119SOL    HW1 9935   8.147   5.467   3.316  0.7863  0.8342 -1.7796
 3119SOL    HW2 9936   8.152   5.317   3.298 -0.7443  0.2829  1.5428
 3120SOL     OW 9937   9.742   5.943   4.079  0.2024 -0.2106 -0.3595
 3120SOL    HW1 9938   9.651   5.926   4.102  0.4431  1.1165  1.9413
 3120SOL    HW2 9939   9.739   6.023   4.026  0.0856  0.9978  1.3690
 3121SOL     OW 9940   2.326   7.930   2.361  0.7156  0.5406  0.1813
 3121SOL    HW1 9941   2.250   7.885   2.325 -0.0530  1.3003  0.8025
 3121SOL    HW2 9942   2.331   8.011   2.311  0.0865  1.2619  1.2413
 3122SOL     OW 9943   6.253   7.273   8.196 -0.2371  0.5262 -0.1203
 3122SOL    HW1 9944   6.184   7.257   8.131  0.4835 -0.1184 -0.7524
 3122SOL    HW2 9945   6.289   7.358   8.173 -0.0487  0.3436 -0.5279
 3123SOL     OW 9946   3.572   5.720   7.520  0.0613 -0.1337  0.4887
 3123SOL    HW1 9947   3.522   5.667   7.459  0.6244 -0.1761  0.0556
 3123SOL    HW2 9948   3.639   5.661   7.554 -1.0984 -0.5307  2.2513
 3124SOL     OW 9949   5.387   9.261   9.908  0.6648  0.6470 -0.1143
 3124SOL    HW1 9950   5.423   9.182   9.948  1.3433  1.1762  0.3327
 3124SOL    HW2 9951   5.305   9.276   9.956 -0.0304 -0.3769 -0.9228
 3125SOL     OW 9952   4.597   4.344   2.246  0.2363  0.7454 -0.4002
 3125SOL    HW1 9953   4.553   4.382   2.170  0.3261 -1.9239 -1.9089
 3125SOL    HW2 9954   4.538   4.274   2.275  1.1038  0.4839  0.8368
 3126SOL     OW 9955   3.140   1.235   7.687 -0.3234  0.0335 -0.2076
 3126SOL    HW1 9956   3.073   1.269   7.747 -0.1684 -0.1546  0.0751
 3126SOL    HW2 9957   3.201   1.307   7.674 -0.8084  0.3430 -0.8009
 3127SOL     OW 9958   2.001   5.118   8.513  0.4132 -0.3649 -0.3298
 3127SOL    HW1 9959   1.974   5.026   8.507 -0.0406 -0.2155 -0.6243
 3127SOL    HW2 9960   2.089   5.120   8.476 -0.1251 -0.4390 -1.6474
 3128SOL     OW 9961   9.183   5.225   6.103  0.2936  0.4657  0.5325
 3128SOL    HW1 9962   9.207   5.139   6.137 -0.6712  0.1173  0.3658
 3128SOL    HW2 9963   9.087   5.226   6.105  0.2831  1.7932  1.1726
 3129SOL     OW 9964   8.416   8.301   7.386  0.0025  0.3869  0.9817
 3129SOL    HW1 9965   8.360   8.330   7.458  0.6783  0.6947  1.3907
 3129SOL    HW2 9966   8.369   8.328   7.307 -0.7882 -0.0365  1.2908
 3130SOL     OW 9967   6.841   1.257   1.941 -0.3659  0.6909  0.2402
 3130SOL    HW1 9968   6.810   1.283   2.027  0.9614  0.3963  0.8417
 3130SOL    HW2 9969   6.766   1.215   1.899 -1.3015  1.6755  0.8745
 3131SOL     OW 9970   2.234   8.310   8.715 -0.5103  0.5594  0.2297
 3131SOL    HW1 9971   2.224   8.246   8.786 -1.1611  1.0777  0.6141
 3131SOL    HW2 9972   2.325   8.300   8.687 -0.6619 -0.7042  0.1144
 3132SOL     OW 9973   9.432   6.909   6.068  0.4455 -0.1065  0.2440
 3132SOL    HW1 9974   9.380   6.909   6.148 -0.1063  1.1636 -0.0973
 3132SOL    HW2 9975   9.521   6.931   6.098  0.5416 -0.9920  0.6588
 3133SOL     OW 9976   9.923   0.865   2.992 -0.3536 -0.2754 -0.7198
 3133SOL    HW1 9977  10.018   0.872   2.982 -0.4820 -0.0666 -1.9403
 3133SOL    HW2 9978   9.910   0.845   3.085  0.7966  1.2129 -0.2029
 3134SOL     OW 9979   3.252   8.225   9.795 -0.3659 -0.0963 -0.8390
 3134SOL    HW1 9980   3.288   8.313   9.785  1.8074 -1.0829 -2.2778
 3134SOL    HW2 9981   3.261   8.206   9.888 -0.5653  1.0581 -0.5664
 3135SOL     OW 9982   3.589   1.369   1.236 -0.1826  0.3221 -1.0224
 3135SOL    HW1 9983   3.646   1.433   1.279  1.1914 -0.6837 -1.2647
 3135SOL    HW2 9984   3.513   1.419   1.208  0.9276  1.8823 -1.3632
 3136SOL     OW 9985   3.295   0.147   8.903 -0.2179  0.1012  0.1123
 3136SOL    HW1 9986   3.258   0.060   8.887 -0.2284 -0.3428  2.1715
 3136SOL    HW2 9987   3.236   0.186   8.968 -1.1156  2.3265 -1.8983
 3137SOL     OW 9988   9.644   4.390   9.145 -0.0435 -0.0603 -0.0035
 3137SOL    HW1 9989   9.626   4.343   9.227  0.7145 -0.0603  0.1736
 3137SOL    HW2 9990   9.689   4.325   9.090  0.9983  0.4382  0.2356
 3138SOL     OW 9991   1.594   0.949   5.149 -0.6861 -0.0250 -0.5767
 3138SOL    HW1 9992   1.566   0.941   5.058  1.5325 -3.4163 -1.1461
 3138SOL    HW2 9993   1.558   0.873   5.193  1.8699 -0.8945  0.2106
 3139SOL     OW 9994   3.761   8.031   0.721 -0.1184  0.0990  0.2251
 3139SOL    HW1 9995   3.850   8.005   0.744 -0.2729 -1.1051 -0.4576
 3139SOL    HW2 9996   3.772   8.106   0.662  0.4551 -0.1945 -0.0430
 3140SOL     OW 9997   5.251   8.946   6.818 -0.1423 -0.1569 -1.3972
 3140SOL    HW1 9998   5.209   8.869   6.856 -0.7341 -0.4987 -2.6805
 3140SOL    HW2 9999   5.345   8.926   6.820 -0.0100  0.4081  1.0481
 3141SOL     OW10000   8.825   9.485   1.829 -0.3033 -0.3081  0.4365
 3141SOL    HW110001   8.887   9.422   1.867 -0.5269 -0.2692  0.8777
 3141SOL    HW210002   8.876   9.533   1.764 -0.5411 -2.1166 -1.1689
 3142SOL     OW10003   3.412   8.070   2.222  0.3551 -1.1361  0.6829
 3142SOL    HW110004   3.389   7.977   2.215  1.2355 -1.2954 -0.2624
 3142SOL    HW210005   3.350   8.114   2.164 -2.6507 -0.5982  3.9306
 3143SOL     OW10006   6.025   8.273   1.343  0.3043  0.5774 -0.6442
 3143SOL    HW110007   6.058   8.362   1.327  1.0237  0.1399 -1.6809
 3143SOL    HW210008   5.985   8.278   1.430 -1.4845  2.4244 -1.4962
 3144SOL     OW10009   0.009   7.530   4.430  0.6146 -0.2863 -0.2213
 3144SOL    HW110010   0.015   7.624   4.415 -0.1382 -0.0936  0.5869
 3144SOL    HW210011   0.100   7.501   4.439  0.8253  0.8846  2.4178
 3145SOL     OW10012   9.171   9.825   0.794  0.0430  0.4683  0.0732
 3145SOL    HW110013   9.166   9.856   0.885  1.6240  1.2811 -0.0684
 3145SOL    HW210014   9.160   9.905   0.742 -0.0263  0.1311 -0.4250
 3146SOL     OW10015   4.196   0.215   9.642 -0.1062 -0.0955  0.4414
 3146SOL    HW110016   4.191   0.252   9.553 -1.5796  0.4718  0.7411
 3146SOL    HW210017   4.129   0.148   9.644 -0.8475  0.6565  1.4604
 3147SOL     OW10018   5.493   1.444   3.060  0.1432  0.1179  0.4886
 3147SOL    HW110019   5.551   1.462   2.986 -0.0520 -2.4085 -0.3742
 3147SOL    HW210020   5.405   1.442   3.022  0.0066 -0.8947  0.8359
 3148SOL     OW10021   1.287   0.943   0.054  0.1990 -0.2596  0.0383
 3148SOL    HW110022   1.367   0.975   0.014 -1.2065  1.0563 -1.9203
 3148SOL    HW210023   1.307   0.936   0.147  2.4495  0.3409 -0.3517
 3149SOL     OW10024   6.309   4.642   0.515 -0.6456 -0.0554  0.0993
 3149SOL    HW110025   6.273   4.565   0.471 -0.7346  0.0028  0.0712
 3149SOL    HW210026   6.268   4.641   0.602 -0.1588 -0.4013  0.3294
 3150SOL     OW10027   3.850   1.932   6.733  0.1533  0.1706  0.2944
 3150SOL    HW110028   3.779   1.976   6.686 -1.1650  0.5006  2.4465
 3150SOL    HW210029   3.920   1.997   6.737 -0.4047  0.7777  0.3564
 3151SOL     OW10030   9.463   2.038   7.915 -0.5560 -0.1134  0.2647
 3151SOL    HW110031   9.432   2.088   7.840 -0.1571 -0.7263 -0.3200
 3151SOL    HW210032   9.483   2.104   7.981 -1.0355  0.4246 -0.1198
 3152SOL     OW10033   5.186   3.756   6.936  0.0491 -0.5022  0.6553
 3152SOL    HW110034   5.217   3.666   6.927 -0.5313 -0.4802 -3.0813
 3152SOL    HW210035   5.122   3.752   7.007 -1.7828 -3.7002 -0.9175
 3153SOL     OW10036   5.224   9.841   7.025  0.3324 -0.0117  0.4027
 3153SOL    HW110037   5.133   9.812   7.019  0.5667 -0.6825 -0.0536
 3153SOL    HW210038   5.238   9.858   7.118 -1.4679  4.1464  0.1289
 3154SOL     OW10039   1.874   6.296   6.857  0.0231  0.3264  0.3346
 3154SOL    HW110040   1.862   6.365   6.922 -2.0172  2.2541 -1.8879
 3154SOL    HW210041   1.788   6.254   6.850  0.7149 -1.1353  0.2004
 3155SOL     OW10042   0.721   9.090   1.000 -0.0895 -0.4232 -0.0077
 3155SOL    HW110043   0.741   9.103   1.092 -1.0839 -0.0425  0.1648
 3155SOL    HW210044   0.757   9.004   0.979 -0.9090 -1.0523  1.0630
 3156SOL     OW10045   0.475   5.592   7.896  0.1006 -0.5273 -0.2009
 3156SOL    HW110046   0.434   5.514   7.933 -0.8291  0.5262  1.0753
 3156SOL    HW210047   0.566   5.566   7.879 -0.2447 -1.9242  0.0098
 3157SOL     OW10048   9.024   0.775   0.431  0.2420 -0.0759 -0.0248
 3157SOL    HW110049   8.967   0.699   0.419 -1.5654  1.1888  0.1483
 3157SOL    HW210050   8.964   0.848   0.445  1.8929  1.5831 -1.1175
 3158SOL     OW10051   5.120   9.175   7.513 -0.0332  0.0732  0.7366
 3158SOL    HW110052   5.065   9.251   7.493  0.2187  0.2507  0.7214
 3158SOL    HW210053   5.066   9.122   7.572  0.2115  0.7961  1.6311
 3159SOL     OW10054   5.052   9.117   3.979 -0.1685 -0.0641  0.1559
 3159SOL    HW110055   4.989   9.189   3.986 -2.1697 -1.7336  0.1479
 3159SOL    HW210056   5.104   9.139   3.902 -1.1705  1.0683 -0.2387
 3160SOL     OW10057   2.052   2.200   5.417  0.6648 -0.0228 -0.4735
 3160SOL    HW110058   2.140   2.202   5.456  0.0870  0.9008  0.8571
 3160SOL    HW210059   1.995   2.174   5.490 -0.3400  0.7885 -0.9507
 3161SOL     OW10060   1.981   9.817   2.784  0.0625 -0.5136 -0.0632
 3161SOL    HW110061   2.033   9.833   2.706  0.0045 -1.7449 -0.3841
 3161SOL    HW210062   1.957   9.904   2.816  1.9412  0.0547 -0.1368
 3162SOL     OW10063   8.698   5.919   3.490  0.1237 -0.0685 -0.0560
 3162SOL    HW110064   8.644   5.997   3.501  0.6155  0.1226  1.1315
 3162SOL    HW210065   8.725   5.896   3.579  0.3342 -1.3457 -0.4318
 3163SOL     OW10066   3.489   3.752   4.933 -0.9827 -0.0889  0.5806
 3163SOL    HW110067   3.495   3.672   4.881 -0.9683  0.7877 -0.8150
 3163SOL    HW210068   3.523   3.728   5.019 -1.0964 -1.6083  0.2224
 3164SOL     OW10069   3.042   4.538   3.114  0.6023 -0.0345  0.5017
 3164SOL    HW110070   3.136   4.538   3.132  0.3204 -1.3593  2.2394
 3164SOL    HW210071   3.011   4.620   3.153  1.2363  1.3518 -1.7049
 3165SOL     OW10072   6.669   0.830   3.307  0.0003 -1.0425 -0.3211
 3165SOL    HW110073   6.575   0.834   3.322  0.0404  1.0630 -0.3212
 3165SOL    HW210074   6.682   0.880   3.226  1.3076  0.7039  0.8848
 3166SOL     OW10075   0.378   2.872   8.911 -0.4783  0.0877 -0.3048
 3166SOL    HW110076   0.369   2.885   9.005 -1.7249  0.6245 -0.4758
 3166SOL    HW210077   0.469   2.894   8.892  0.3558 -1.9514  1.0588
 3167SOL     OW10078   8.636   2.747   5.839  0.5779 -0.0151  0.5137
 3167SOL    HW110079   8.604   2.689   5.770 -0.0749  0.3881  0.4768
 3167SOL    HW210080   8.653   2.688   5.913  1.6812 -0.5057 -0.1119
 3168SOL     OW10081   1.970   5.671   3.744  0.2328  0.1226 -0.4981
 3168SOL    HW110082   1.960   5.580   3.770 -0.9771 -0.1429 -1.7756
 3168SOL    HW210083   2.063   5.680   3.721  0.2555 -0.9131 -0.8232
 3169SOL     OW10084   5.535   6.431   4.752 -0.0791  0.6872  0.5201
 3169SOL    HW110085   5.540   6.441   4.657  2.0449  0.3345  0.5672
 3169SOL    HW210086   5.626   6.428   4.782 -0.6723  1.8154  2.6934
 3170SOL     OW10087   5.178   4.883   3.264 -0.1414 -0.0804  0.2087
 3170SOL    HW110088   5.134   4.959   3.226 -0.1429  0.3348  1.0112
 3170SOL    HW210089   5.261   4.877   3.218  0.7940  1.7082  1.5523
 3171SOL     OW10090   2.724   2.204   6.738 -0.1538  0.1108 -0.2482
 3171SOL    HW110091   2.718   2.282   6.683 -1.4244 -0.1184 -0.4558
 3171SOL    HW210092   2.700   2.132   6.680  0.2699 -0.3583  0.1456
 3172SOL     OW10093   5.017   8.153   9.536  0.1921 -0.3036 -0.4099
 3172SOL    HW110094   5.107   8.178   9.512  0.2749 -1.3155 -1.1992
 3172SOL    HW210095   5.016   8.058   9.530 -0.4012 -0.4696  1.5269
 3173SOL     OW10096   1.924   6.628   8.645 -0.3274  0.6547  0.9969
 3173SOL    HW110097   1.916   6.579   8.727 -2.4350 -0.5532  0.1484
 3173SOL    HW210098   1.859   6.588   8.587  1.3481  1.2103 -1.4144
 3174SOL     OW10099   6.126   9.394   8.282 -0.0337  0.4527 -0.3281
 3174SOL    HW110100   6.212   9.372   8.318  0.1053  0.7092 -0.5023
 3174SOL    HW210101   6.144   9.453   8.209 -0.1553 -1.6736 -2.1939
 3175SOL     OW10102   5.479   7.158   4.440  0.1013  0.6216  0.3486
 3175SOL    HW110103   5.401   7.210   4.456 -0.9264 -0.2302 -1.5213
 3175SOL    HW210104   5.464   7.075   4.485 -0.5232  0.1143 -0.7546
 3176SOL     OW10105   3.459   0.394   6.811 -0.3958 -0.0364 -0.0072
 3176SOL    HW110106   3.422   0.305   6.810  0.6746 -0.5063  0.8322
 3176SOL    HW210107   3.401   0.443   6.870 -0.4178 -0.4346  0.3079
 3177SOL     OW10108   4.429   5.346   8.207  0.2027  0.4630  0.0758
 3177SOL    HW110109   4.509   5.392   8.182  1.2359 -0.8964  0.7308
 3177SOL    HW210110   4.402   5.299   8.128  0.9304 -0.2699  0.2490
 3178SOL     OW10111   9.878   6.796   9.196 -0.4060  0.3534 -0.3388
 3178SOL    HW110112   9.910   6.766   9.281 -3.3157 -0.2275  0.6700
 3178SOL    HW210113   9.948   6.852   9.163  1.1790 -0.0477  2.0573
 3179SOL     OW10114   1.741   7.678   5.432 -0.1196  0.0208 -0.2631
 3179SOL    HW110115   1.652   7.643   5.446  0.0101 -0.0498  0.4400
 3179SOL    HW210116   1.737   7.720   5.346 -0.6589 -0.5376 -0.5219
 3180SOL     OW10117   7.608   6.359   8.218 -0.0088  0.7475  0.2354
 3180SOL    HW110118   7.549   6.434   8.218  0.6411  1.2642  0.0359
 3180SOL    HW210119   7.595   6.318   8.132  0.2412  1.1211  0.0152
 3181SOL     OW10120   8.705   5.034   7.762  0.5770  0.8190 -0.0547
 3181SOL    HW110121   8.622   5.002   7.729  1.1261  1.0086 -1.7092
 3181SOL    HW210122   8.767   4.963   7.745  0.9749  1.1173  0.1255
 3182SOL     OW10123   4.996   0.155   6.001 -0.2357  0.2229 -0.6845
 3182SOL    HW110124   4.957   0.097   5.936  1.2982 -0.9080 -0.6406
 3182SOL    HW210125   5.071   0.194   5.957  0.1373  0.3393  0.0478
 3183SOL     OW10126   7.397   4.927   0.146 -0.1587 -0.0522  0.0448
 3183SOL    HW110127   7.410   4.921   0.051 -1.0538 -1.7243 -0.0100
 3183SOL    HW210128   7.449   5.004   0.172  0.3631  0.2581 -1.7351
 3184SOL     OW10129   4.628   9.424   1.226 -0.3048 -0.4597 -0.5418
 3184SOL    HW110130   4.694   9.427   1.295  1.7936 -0.0339 -2.4598
 3184SOL    HW210131   4.546   9.446   1.270  0.8843 -0.5948  1.8589
 3185SOL     OW10132   4.675   1.432   4.465 -0.1233 -0.4986 -0.5103
 3185SOL    HW110133   4.712   1.459   4.381 -0.0927  0.1298 -0.2960
 3185SOL    HW210134   4.599   1.488   4.478  0.2200 -0.1704  0.1671
 3186SOL     OW10135   4.111   4.046   7.340 -0.2386 -0.5984 -0.1680
 3186SOL    HW110136   4.138   3.973   7.396  0.1632 -0.0661  0.3394
 3186SOL    HW210137   4.049   4.007   7.278  0.6161 -1.5473 -0.4430
 3187SOL     OW10138   9.053   7.413   4.209 -0.3553 -0.2758  0.3594
 3187SOL    HW110139   9.083   7.401   4.299 -0.3511 -2.3308  0.1420
 3187SOL    HW210140   9.131   7.398   4.156 -0.3990  0.7441 -0.0049
 3188SOL     OW10141   3.848   4.656   9.853 -0.4582 -0.3067 -0.2775
 3188SOL    HW110142   3.763   4.613   9.862  1.3178 -3.8644  2.1387
 3188SOL    HW210143   3.877   4.634   9.764 -1.9099  0.8031 -1.0599
 3189SOL     OW10144   2.985   6.878   7.688  0.2032  0.1226 -0.1741
 3189SOL    HW110145   3.043   6.952   7.672  1.2525 -0.5892  0.1757
 3189SOL    HW210146   3.011   6.813   7.622 -2.4308  0.9556 -2.1720
 3190SOL     OW10147   7.789   9.317   2.859  0.2247 -0.3531 -0.3634
 3190SOL    HW110148   7.883   9.328   2.849  0.3693 -0.2482  0.9332
 3190SOL    HW210149   7.766   9.246   2.798  1.2231 -0.7203 -0.3243
 3191SOL     OW10150   2.723   5.996   0.104  0.4494 -0.6142  0.0138
 3191SOL    HW110151   2.645   5.958   0.063 -1.0591  2.2778 -0.0199
 3191SOL    HW210152   2.705   5.990   0.198  0.5073 -0.5926  0.0258
 3192SOL     OW10153   6.280   5.407   7.525  0.0292 -0.0804 -0.4497
 3192SOL    HW110154   6.222   5.442   7.458  1.0016 -2.4498 -2.6971
 3192SOL    HW210155   6.244   5.321   7.546  1.8073 -0.9607 -0.7946
 3193SOL     OW10156   0.121   8.243   1.727 -0.2623  0.0260 -0.0717
 3193SOL    HW110157   0.071   8.294   1.790 -0.9222  0.2820 -0.7806
 3193SOL    HW210158   0.062   8.232   1.652  0.0138 -1.4356 -0.1064
 3194SOL     OW10159   9.106   2.515   0.536 -0.3862 -0.0697  0.1746
 3194SOL    HW110160   9.113   2.607   0.511  1.4838 -0.0773  0.5528
 3194SOL    HW210161   9.022   2.509   0.581 -1.5899  0.9605 -1.7764
 3195SOL     OW10162   9.693   9.777   5.575  0.5492 -0.3913 -0.3702
 3195SOL    HW110163   9.725   9.849   5.521  1.5200 -0.3620  0.2321
 3195SOL    HW210164   9.667   9.710   5.512 -0.7545  0.6096 -0.9624
 3196SOL     OW10165   6.855   6.959   6.145  0.1650 -0.8256 -0.4605
 3196SOL    HW110166   6.891   7.040   6.110  3.3697 -2.2425 -0.8786
 3196SOL    HW210167   6.839   6.977   6.237  0.3193  0.4449 -0.6722
 3197SOL     OW10168   2.717   8.548   3.568 -0.2204 -0.1019  0.2652
 3197SOL    HW110169   2.700   8.538   3.662  2.1793 -0.1394  0.7669
 3197SOL    HW210170   2.786   8.485   3.549  0.0830  0.6470 -1.3083
 3198SOL     OW10171   3.392   0.957   9.226  0.2421  0.0414 -0.5654
 3198SOL    HW110172   3.381   0.949   9.320  0.0487 -0.1783 -0.6067
 3198SOL    HW210173   3.350   0.879   9.190 -1.0540  0.8922 -0.9351
 3199SOL     OW10174   6.675   2.634   3.580 -0.1535  0.5808 -0.1737
 3199SOL    HW110175   6.702   2.715   3.623 -2.8088  1.0484  0.8353
 3199SOL    HW210176   6.600   2.661   3.525  0.7490 -0.7036 -2.1326
 3200SOL     OW10177   3.554   7.686   3.593  0.1078 -0.5185 -0.2009
 3200SOL    HW110178   3.472   7.713   3.550 -0.9293 -1.0968  1.3213
 3200SOL    HW210179   3.547   7.591   3.600  0.0174 -0.4249  1.5840
 3201SOL     OW10180   8.926   5.501   1.183 -0.0473 -0.0811  0.1261
 3201SOL    HW110181   8.994   5.475   1.121  0.2199 -1.7636  1.0673
 3201SOL    HW210182   8.957   5.584   1.219 -0.2405  0.9688 -1.9902
 3202SOL     OW10183   4.399   7.265   4.243 -0.3549  0.0119  0.6052
 3202SOL    HW110184   4.343   7.244   4.169 -0.9380  0.4350  0.9146
 3202SOL    HW210185   4.338   7.286   4.314  0.1922 -0.0547  1.1054
 3203SOL     OW10186   8.317   9.312   3.789 -0.2056  0.0908 -0.3312
 3203SOL    HW110187   8.337   9.279   3.877  2.8086  1.3134 -0.4370
 3203SOL    HW210188   8.361   9.251   3.730  1.6916  1.7050 -0.7038
 3204SOL     OW10189   2.137   1.972   2.485 -0.3187 -0.0548 -0.0926
 3204SOL    HW110190   2.142   1.881   2.513 -0.2195 -0.2583 -0.7440
 3204SOL    HW210191   2.168   1.971   2.394 -1.9934  0.3357 -0.7029
 3205SOL     OW10192   1.911   3.115   7.570 -0.2675  0.7095 -0.1020
 3205SOL    HW110193   1.985   3.166   7.602  0.1812 -0.1659  0.2817
 3205SOL    HW210194   1.908   3.039   7.627 -2.5785  1.5844  1.0886
 3206SOL     OW10195   6.669   9.244   8.499  0.1980  0.1565  0.4497
 3206SOL    HW110196   6.743   9.228   8.440  1.2950 -1.4986  2.1529
 3206SOL    HW210197   6.629   9.158   8.511 -2.5833  1.1252 -1.0238
 3207SOL     OW10198   1.120   4.278   9.421  0.1313 -0.3804  0.2913
 3207SOL    HW110199   1.118   4.324   9.505  0.9834 -0.2983  0.2749
 3207SOL    HW210200   1.095   4.344   9.356 -0.2669 -0.3744  0.4535
 3208SOL     OW10201   9.034   2.157   3.989 -0.1568  0.0482  0.0931
 3208SOL    HW110202   9.127   2.171   3.972  0.1424 -2.6158 -0.9636
 3208SOL    HW210203   8.990   2.222   3.936  1.0818  0.7686 -0.1012
 3209SOL     OW10204   2.305   5.874   0.154 -0.2469 -0.1996 -0.4317
 3209SOL    HW110205   2.213   5.859   0.174  0.1394 -2.3086 -0.0618
 3209SOL    HW210206   2.340   5.916   0.232 -0.4471 -1.3338  0.2882
 3210SOL     OW10207   7.608   9.719   7.058 -0.0367  0.6010 -0.1345
 3210SOL    HW110208   7.632   9.735   7.149 -1.6781  2.8016 -0.0132
 3210SOL    HW210209   7.640   9.631   7.040  4.2505  1.6288  1.1961
 3211SOL     OW10210   3.352   4.808   0.215 -0.1243 -0.4011 -0.3218
 3211SOL    HW110211   3.364   4.873   0.284  1.4477 -0.2587 -0.6846
 3211SOL    HW210212   3.259   4.811   0.195 -0.3931  0.4359  0.9230
 3212SOL     OW10213   6.648   2.073   9.352  0.1047  0.4942 -0.1902
 3212SOL    HW110214   6.688   2.140   9.407  0.2652  0.2564 -0.0136
 3212SOL    HW210215   6.645   1.995   9.408 -1.4529  0.7384  0.1120
 3213SOL     OW10216   1.427   3.790   3.854 -0.1522  0.3607 -0.8699
 3213SOL    HW110217   1.501   3.839   3.818 -0.2195 -0.0256 -1.5387
 3213SOL    HW210218   1.374   3.857   3.898  0.0582  0.8011 -1.2729
 3214SOL     OW10219   6.375   7.371   2.870  0.1740 -0.3401  0.0945
 3214SOL    HW110220   6.461   7.344   2.837  0.2310  1.7431 -1.7619
 3214SOL    HW210221   6.390   7.459   2.906 -1.2264  0.2481 -0.6835
 3215SOL     OW10222   7.128   4.713   2.199 -0.0815  0.2634  0.2472
 3215SOL    HW110223   7.215   4.741   2.228 -0.5269  0.7978  1.1054
 3215SOL    HW210224   7.145   4.663   2.119  1.0064  0.4222  0.3561
 3216SOL     OW10225   3.395   2.216   0.940 -0.5561  0.0870  0.4026
 3216SOL    HW110226   3.356   2.167   0.868  0.9522  1.8354 -1.7301
 3216SOL    HW210227   3.333   2.287   0.957  0.1065  0.9582 -0.7311
 3217SOL     OW10228   3.758   7.955   1.617  0.2727 -0.0049 -0.1986
 3217SOL    HW110229   3.806   7.949   1.699  0.5758  1.6319 -0.2154
 3217SOL    HW210230   3.742   8.049   1.606 -1.3434 -0.3530 -1.1108
 3218SOL     OW10231   1.900   0.963   1.827 -0.2379  0.5069  0.0743
 3218SOL    HW110232   1.966   1.004   1.883  0.2324  0.2114 -0.2481
 3218SOL    HW210233   1.918   0.870   1.833  1.3787  0.5604 -2.3856
 3219SOL     OW10234   9.620   6.125   7.886 -0.9493 -0.2509  0.6024
 3219SOL    HW110235   9.655   6.139   7.798 -1.7045 -1.2796  0.1117
 3219SOL    HW210236   9.685   6.164   7.944 -0.4392  0.4618 -0.4039
 3220SOL     OW10237   5.715   5.904   7.278  0.4045  0.2284  0.1007
 3220SOL    HW110238   5.666   5.986   7.270 -2.2970 -1.3760 -1.1711
 3220SOL    HW210239   5.668   5.855   7.345  2.0682 -0.2900  0.9367
 3221SOL     OW10240   2.381   4.507   4.689  0.3274 -0.5630 -0.4475
 3221SOL    HW110241   2.350   4.507   4.598  0.5517 -0.9564 -0.5275
 3221SOL    HW210242   2.429   4.590   4.698 -3.0200  1.4638  0.4876
 3222SOL     OW10243   5.190   6.155   8.246 -0.4252 -0.2957 -0.2574
 3222SOL    HW110244   5.101   6.190   8.256 -0.5004 -0.2334 -1.0246
 3222SOL    HW210245   5.247   6.231   8.253 -0.3631 -0.4401  1.0136
 3223SOL     OW10246   4.263   3.198   5.867  0.0691 -0.1232  0.7092
 3223SOL    HW110247   4.262   3.141   5.944  1.2956  0.2020  0.9949
 3223SOL    HW210248   4.171   3.208   5.843 -0.3185 -0.3778  2.0215
 3224SOL     OW10249   7.945   8.057   6.392  0.0816  0.2249 -0.6315
 3224SOL    HW110250   7.991   8.007   6.459  0.1158  1.3158  0.1800
 3224SOL    HW210251   7.866   8.006   6.374  0.1340 -0.1472  0.1555
 3225SOL     OW10252   7.770   8.770   3.809 -0.2225  0.3889  0.5517
 3225SOL    HW110253   7.865   8.755   3.806 -0.1321  0.7815  1.1835
 3225SOL    HW210254   7.736   8.725   3.732  0.7973  2.5393 -1.2851
 3226SOL     OW10255   2.280   9.380   8.277  0.2362  0.5436 -0.3574
 3226SOL    HW110256   2.295   9.302   8.330  1.3741  1.2870  0.4807
 3226SOL    HW210257   2.298   9.353   8.187 -0.5932 -0.4501 -0.2430
 3227SOL     OW10258   0.687   2.042   8.779 -0.2269 -0.1282 -0.3759
 3227SOL    HW110259   0.605   2.037   8.829 -0.7299  3.1973 -0.6564
 3227SOL    HW210260   0.755   2.021   8.842 -1.0381  1.1668  0.9823
 3228SOL     OW10261   7.962   1.533   6.816  0.1998  0.0063  0.1339
 3228SOL    HW110262   7.978   1.568   6.728  2.4008  1.5336  1.0460
 3228SOL    HW210263   7.867   1.522   6.820 -0.1606  1.6972 -1.8196
 3229SOL     OW10264   1.581   6.986   7.806 -0.0159 -0.8325 -0.2449
 3229SOL    HW110265   1.510   6.959   7.749 -0.8063  1.9293 -0.7162
 3229SOL    HW210266   1.546   6.974   7.895 -2.2653  2.7963 -0.4172
 3230SOL     OW10267   0.127   3.203   0.798  0.2703 -0.0075  0.0854
 3230SOL    HW110268   0.103   3.117   0.762  3.4747 -1.6175  1.3714
 3230SOL    HW210269   0.123   3.192   0.893 -0.7215  1.7997  0.2969
 3231SOL     OW10270   3.847   6.436   3.708  0.0518 -0.5304 -0.2628
 3231SOL    HW110271   3.916   6.371   3.714  1.7428  0.8484 -2.8397
 3231SOL    HW210272   3.852   6.468   3.618 -1.4384  2.3258  0.5447
 3232SOL     OW10273   2.170   3.891   8.792  0.1801  0.6975 -0.4053
 3232SOL    HW110274   2.125   3.911   8.874  1.1547 -0.3287  0.4162
 3232SOL    HW210275   2.247   3.948   8.792 -0.1371  1.1528 -0.9457
 3233SOL     OW10276   0.033   9.171   2.990  0.2950  0.0142  0.3499
 3233SOL    HW110277   0.016   9.192   3.082  0.5637  2.1971 -0.0437
 3233SOL    HW210278   0.101   9.233   2.964 -1.7639  1.4316 -2.0600
 3234SOL     OW10279   7.215   5.046   8.906  0.0344 -0.0699  0.5396
 3234SOL    HW110280   7.239   5.100   8.831 -0.4822 -1.0562 -0.3623
 3234SOL    HW210281   7.288   5.057   8.967  1.3796 -0.6734 -0.8844
 3235SOL     OW10282   7.075   8.675   9.376  0.0947 -0.4561 -0.5684
 3235SOL    HW110283   7.009   8.716   9.321 -0.7487 -0.4956  0.3836
 3235SOL    HW210284   7.042   8.585   9.390  0.6769 -0.6820 -0.6313
 3236SOL     OW10285   8.688   3.590   4.110  0.3048 -0.7127  0.1272
 3236SOL    HW110286   8.696   3.674   4.065  0.0491 -0.3167  0.7978
 3236SOL    HW210287   8.664   3.614   4.200 -1.1065 -1.5437 -0.0014
 3237SOL     OW10288   5.859   2.738   1.937 -0.3356 -0.5899  0.1087
 3237SOL    HW110289   5.869   2.649   1.905 -0.1021 -1.0843  1.4696
 3237SOL    HW210290   5.892   2.735   2.027  0.2925  1.0232 -0.0255
 3238SOL     OW10291   5.519   5.727   7.715  0.3634 -0.1107  0.0163
 3238SOL    HW110292   5.528   5.786   7.790 -0.5578 -0.5037  0.4520
 3238SOL    HW210293   5.597   5.672   7.719  0.4848  0.0895  0.4980
 3239SOL     OW10294   4.690   6.208   3.028 -1.1883  0.2451 -0.0598
 3239SOL    HW110295   4.705   6.198   2.934  0.6259 -0.4824  0.2675
 3239SOL    HW210296   4.668   6.300   3.039 -1.1851  0.3940 -1.1672
 3240SOL     OW10297   1.914   9.170   1.875 -0.6201  0.6072 -0.4168
 3240SOL    HW110298   1.878   9.241   1.928 -0.7379 -0.4983  1.0356
 3240SOL    HW210299   1.842   9.107   1.867 -0.0133 -0.1223 -0.2475
 3241SOL     OW10300   0.583   7.870   2.296 -0.3218  0.3999 -0.7405
 3241SOL    HW110301   0.594   7.777   2.277 -2.6874  0.4215 -2.8952
 3241SOL    HW210302   0.532   7.872   2.377 -0.6505 -0.2193 -0.9228
 3242SOL     OW10303   4.812   3.074   2.542  0.3715  0.3809 -0.1285
 3242SOL    HW110304   4.852   3.037   2.621  0.9252  0.1482 -0.5106
 3242SOL    HW210305   4.879   3.064   2.474 -0.9495 -1.6394 -1.2414
 3243SOL     OW10306   5.706   7.457   2.807  0.5334  0.1873  0.0722
 3243SOL    HW110307   5.744   7.470   2.720  0.8639  0.4010  0.2476
 3243SOL    HW210308   5.611   7.454   2.792  0.6316 -2.5637 -0.6932
 3244SOL     OW10309   9.571   0.663   6.955 -0.4197 -0.0946  0.6082
 3244SOL    HW110310   9.488   0.655   6.907  0.0926 -0.7127 -0.2122
 3244SOL    HW210311   9.581   0.757   6.970 -0.6666  0.1012 -0.3757
 3245SOL     OW10312   3.164   8.164   2.121  0.8869 -0.2877 -0.1577
 3245SOL    HW110313   3.096   8.150   2.056  0.7285 -0.8260  0.1201
 3245SOL    HW210314   3.133   8.117   2.198  0.9532  0.5396  0.3890
 3246SOL     OW10315   6.450   4.595   3.086 -0.4991  0.5780 -0.5863
 3246SOL    HW110316   6.438   4.659   3.156 -0.3114  2.9032 -2.5300
 3246SOL    HW210317   6.391   4.625   3.016 -2.1390 -2.7420 -0.8074
 3247SOL     OW10318   3.981   4.588   9.299 -0.5105 -0.3356 -0.0404
 3247SOL    HW110319   3.922   4.626   9.234 -1.3801  2.4329  2.1381
 3247SOL    HW210320   4.061   4.641   9.292 -0.0609 -0.9742  0.1721
 3248SOL     OW10321   2.805   3.815   7.477  0.3549  0.3925 -0.0839
 3248SOL    HW110322   2.816   3.722   7.459 -2.2345 -0.4243  1.7843
 3248SOL    HW210323   2.876   3.836   7.537  2.5010  0.3638 -2.4977
 3249SOL     OW10324   2.092   0.315   9.307  0.3136  0.0023 -0.2072
 3249SOL    HW110325   2.082   0.244   9.244  0.5582 -0.9930  0.8382
 3249SOL    HW210326   2.047   0.284   9.386  1.7771  0.3204  0.7924
 3250SOL     OW10327   9.853   3.388   7.548 -0.1833  0.0471  0.5096
 3250SOL    HW110328   9.812   3.442   7.615 -1.1780 -0.6757  0.5136
 3250SOL    HW210329   9.808   3.304   7.554  2.7445 -1.5845  1.9554
 3251SOL     OW10330   4.394   5.003   6.515 -0.0686  0.5972 -0.1702
 3251SOL    HW110331   4.417   5.084   6.470 -1.4343  0.5362 -1.0048
 3251SOL    HW210332   4.425   4.934   6.457 -0.8917  0.5255 -0.5383
 3252SOL     OW10333   4.486   7.915   4.191  0.0653 -0.4682 -0.0673
 3252SOL    HW110334   4.494   7.990   4.250 -1.6710  1.3436 -1.9538
 3252SOL    HW210335   4.432   7.853   4.239  1.1557 -0.3531  1.3621
 3253SOL     OW10336   4.279   9.753   9.913 -0.3372  0.4325  0.2714
 3253SOL    HW110337   4.337   9.697   9.964  0.3810 -0.8245 -1.7932
 3253SOL    HW210338   4.194   9.745   9.956 -0.1543 -1.9684  0.3123
 3254SOL     OW10339   2.967   9.158   1.717  0.1427  0.2131 -0.2975
 3254SOL    HW110340   2.878   9.133   1.691 -0.1991  2.3124 -1.3643
 3254SOL    HW210341   2.954   9.221   1.789  0.8731 -0.9063  0.8536
 3255SOL     OW10342   3.086   3.583   7.482  0.2832  0.1108  0.6853
 3255SOL    HW110343   3.065   3.491   7.468 -0.8882 -0.0030  2.7869
 3255SOL    HW210344   3.168   3.596   7.435 -0.4772 -1.4904 -1.2370
 3256SOL     OW10345   8.392   8.872   8.131 -0.2219 -0.2071 -0.2360
 3256SOL    HW110346   8.441   8.936   8.081 -0.0492 -0.6414 -0.6290
 3256SOL    HW210347   8.382   8.911   8.218  1.2277 -0.3150 -0.0056
 3257SOL     OW10348   3.508   9.105   2.373 -0.2315  0.4145 -0.3644
 3257SOL    HW110349   3.551   9.179   2.417  0.8267  0.0262 -0.7178
 3257SOL    HW210350   3.418   9.134   2.361  0.1896  1.7067 -0.6167
 3258SOL     OW10351   4.372   3.077   2.188 -0.0213 -0.2118 -0.0583
 3258SOL    HW110352   4.357   3.159   2.235  0.6291 -0.4291  0.5520
 3258SOL    HW210353   4.358   3.099   2.096 -1.0158  0.2956  0.2060
 3259SOL     OW10354   9.411   4.642   1.593  0.6070  0.2779  0.1874
 3259SOL    HW110355   9.466   4.581   1.641  0.1670 -0.4122 -0.1654
 3259SOL    HW210356   9.381   4.592   1.516  1.3929  1.3754 -0.8775
 3260SOL     OW10357   4.656   1.132   1.491  0.5206 -0.5882  0.5269
 3260SOL    HW110358   4.621   1.201   1.435  1.3881 -1.2693 -0.9265
 3260SOL    HW210359   4.579   1.092   1.531 -0.2056 -0.5803 -0.8134
 3261SOL     OW10360   1.283   6.398   0.084  0.0966  0.1494  0.6134
 3261SOL    HW110361   1.350   6.415   0.150  0.0802  2.1270  0.2005
 3261SOL    HW210362   1.223   6.472   0.092 -2.4067 -1.8312  1.3328
 3262SOL     OW10363   8.248   4.111   8.066  0.2517 -0.1098 -0.5135
 3262SOL    HW110364   8.188   4.164   8.118 -0.5606 -0.7600 -0.7566
 3262SOL    HW210365   8.201   4.097   7.984  0.9400 -0.2511 -0.8897
 3263SOL     OW10366   0.226   4.637   6.374  0.2002  0.5130 -0.4274
 3263SOL    HW110367   0.239   4.641   6.468 -1.2058 -0.3330 -0.1744
 3263SOL    HW210368   0.131   4.637   6.362  0.3457  1.2345 -1.8846
 3264SOL     OW10369   0.850   2.887   5.780 -0.4983  0.3169 -0.2505
 3264SOL    HW110370   0.760   2.915   5.761 -0.0348  1.9390 -0.2761
 3264SOL    HW210371   0.893   2.967   5.811  0.8813 -0.4818 -0.0294
 3265SOL     OW10372   4.278   9.316   1.087 -0.0518 -0.5536  0.6695
 3265SOL    HW110373   4.190   9.324   1.124  0.6244 -0.6150  2.4062
 3265SOL    HW210374   4.293   9.400   1.043 -0.7272 -0.2765  0.9537
 3266SOL     OW10375   2.251   9.474   2.722  0.3402 -0.8440 -0.2627
 3266SOL    HW110376   2.194   9.509   2.791  1.2085  1.1172 -0.4612
 3266SOL    HW210377   2.339   9.483   2.758  1.0139  2.0990 -2.2357
 3267SOL     OW10378   2.809   4.169   8.437 -0.9688  0.2584  0.1130
 3267SOL    HW110379   2.820   4.074   8.445 -1.1454  0.3854  4.3799
 3267SOL    HW210380   2.728   4.180   8.386 -1.2230 -1.9019 -0.0388
 3268SOL     OW10381   2.245   0.634   7.583  0.5514  0.2532 -0.2709
 3268SOL    HW110382   2.330   0.594   7.600  0.3922  0.9507  2.5493
 3268SOL    HW210383   2.193   0.564   7.543  1.5723 -1.0537  0.6302
 3269SOL     OW10384   1.970   4.674   9.386 -0.2617 -0.2222  0.3965
 3269SOL    HW110385   2.048   4.646   9.433 -0.6276  0.2242  1.2852
 3269SOL    HW210386   1.897   4.648   9.441 -0.6869  0.5925  0.2479
 3270SOL     OW10387   6.681   1.331   7.679 -0.2482  0.4474 -0.6718
 3270SOL    HW110388   6.632   1.404   7.717 -0.7854 -0.0475 -0.4053
 3270SOL    HW210389   6.717   1.284   7.754 -0.1332  0.2770 -0.8303
 3271SOL     OW10390   9.053   1.513   9.277 -0.5411 -0.7966  0.2708
 3271SOL    HW110391   9.117   1.445   9.299  1.0935  0.8061  0.6286
 3271SOL    HW210392   9.099   1.571   9.217 -1.0706  1.2614  1.7332
 3272SOL     OW10393   3.389   3.864   6.112 -0.4738 -0.3559 -0.3131
 3272SOL    HW110394   3.474   3.894   6.144 -0.5994  0.2824 -0.5730
 3272SOL    HW210395   3.394   3.768   6.119 -0.2636 -0.2600  0.9911
 3273SOL     OW10396   3.378   8.603   2.302  0.2414  0.5553 -1.1555
 3273SOL    HW110397   3.308   8.609   2.366  2.7691 -0.4675  1.9789
 3273SOL    HW210398   3.440   8.672   2.327  2.4449 -1.4018 -0.8456
 3274SOL     OW10399   5.678   8.526   0.935 -0.0815  0.2589  0.3774
 3274SOL    HW110400   5.588   8.516   0.965 -1.4425 -0.0240 -3.3053
 3274SOL    HW210401   5.699   8.442   0.894  0.6185  1.3423 -1.6229
 3275SOL     OW10402   2.361   8.551   5.155 -0.7125 -0.3296  0.5341
 3275SOL    HW110403   2.300   8.496   5.204 -1.1062 -0.6870 -0.3290
 3275SOL    HW210404   2.423   8.489   5.116 -0.2770 -0.0354  0.7495
 3276SOL     OW10405   1.020   8.932   4.730  0.1581  0.1244  0.1856
 3276SOL    HW110406   0.980   8.942   4.644 -3.4455 -1.2399  1.5256
 3276SOL    HW210407   1.104   8.890   4.713 -0.5207 -0.2893 -2.6474
 3277SOL     OW10408   0.411   6.564   1.036  0.1698  0.7343 -0.0963
 3277SOL    HW110409   0.427   6.599   0.948 -0.9414 -1.9991 -1.5058
 3277SOL    HW210410   0.488   6.512   1.056 -0.2338  0.0922 -0.1685
 3278SOL     OW10411   9.074   3.213   1.982  0.5546  0.2914  0.3783
 3278SOL    HW110412   9.037   3.276   2.044 -1.7011 -0.4416 -0.1436
 3278SOL    HW210413   9.025   3.227   1.901  0.5541 -1.5870  0.0234
 3279SOL     OW10414   3.366   7.302   2.763 -0.3792 -0.0171 -0.1148
 3279SOL    HW110415   3.343   7.312   2.670 -1.1456  1.2174  0.1836
 3279SOL    HW210416   3.375   7.391   2.795  0.5745 -0.4356  0.8544
 3280SOL     OW10417   1.552   0.354   1.113  0.0065 -0.1055  0.4909
 3280SOL    HW110418   1.514   0.275   1.074 -2.2205  1.3656 -0.5507
 3280SOL    HW210419   1.520   0.354   1.203 -0.7228  0.0267  0.2388
 3281SOL     OW10420   8.081   2.565   3.079 -0.4678  0.4368 -0.2406
 3281SOL    HW110421   8.176   2.565   3.066 -0.5698 -0.8792 -1.1601
 3281SOL    HW210422   8.045   2.560   2.991 -1.3907  0.7976  0.1132
 3282SOL     OW10423   4.694   2.777   2.517  0.0790 -0.2054  0.3148
 3282SOL    HW110424   4.749   2.711   2.474 -1.1978 -1.1781  0.1374
 3282SOL    HW210425   4.667   2.836   2.446  1.0927  0.4565  0.4496
 3283SOL     OW10426   8.711   1.091   6.889  0.1896  0.4873 -0.2583
 3283SOL    HW110427   8.772   1.127   6.825  0.3987 -1.1252 -1.0241
 3283SOL    HW210428   8.750   1.007   6.915 -1.5041 -0.4466 -0.5270
 3284SOL     OW10429   1.682   0.521   9.510  0.2426 -0.6001  0.2420
 3284SOL    HW110430   1.729   0.603   9.529  2.6464 -2.1610  1.6322
 3284SOL    HW210431   1.596   0.532   9.550  0.4957  1.2345  0.3645
 3285SOL     OW10432   9.926   0.659   6.045 -0.2837 -0.1970  0.0949
 3285SOL    HW110433   9.868   0.649   5.970  0.7990  0.3559 -0.8528
 3285SOL    HW210434  10.006   0.696   6.008  0.5921 -0.7282  1.3971
 3286SOL     OW10435   8.183   4.820   7.715 -0.3722 -0.0687 -1.1866
 3286SOL    HW110436   8.215   4.893   7.769 -0.9141 -0.9079  0.3559
 3286SOL    HW210437   8.107   4.855   7.670 -2.0831 -0.2214  1.3456
 3287SOL     OW10438   7.520   1.243   6.998 -0.2415 -0.4446 -0.3608
 3287SOL    HW110439   7.512   1.257   6.904 -0.4525  1.6795 -0.0928
 3287SOL    HW210440   7.455   1.302   7.037 -0.3577 -1.4845  1.1243
 3288SOL     OW10441   6.779   2.160   3.074  0.2949 -0.1737 -0.4603
 3288SOL    HW110442   6.754   2.114   3.154  0.7669 -0.0331 -0.2254
 3288SOL    HW210443   6.728   2.118   3.005 -0.8059  0.2985  0.0302
 3289SOL     OW10444   4.653   7.572   3.621 -0.3265  0.0789  0.0709
 3289SOL    HW110445   4.588   7.501   3.623 -0.1781 -0.0440  0.5238
 3289SOL    HW210446   4.600   7.651   3.613 -0.4923 -0.0775 -0.4768
 3290SOL     OW10447   6.764   2.296   6.309  0.7495 -0.0295  0.1737
 3290SOL    HW110448   6.811   2.342   6.378  0.1915  0.0946  0.4769
 3290SOL    HW210449   6.699   2.243   6.356  0.9489 -0.6183 -0.2071
 3291SOL     OW10450   4.980   1.633   3.874 -0.0452  0.5392  0.1925
 3291SOL    HW110451   4.900   1.597   3.912  1.7009 -1.0128  2.6892
 3291SOL    HW210452   4.987   1.721   3.909 -1.4295  1.3391 -1.3889
 3292SOL     OW10453   3.450   4.551   6.185 -0.0348 -0.5570 -0.0121
 3292SOL    HW110454   3.392   4.498   6.131  1.4484 -1.0559 -1.1946
 3292SOL    HW210455   3.506   4.597   6.122  0.1241  0.7859  1.0512
 3293SOL     OW10456   0.291   4.402   8.931 -0.6235  0.3250 -0.3050
 3293SOL    HW110457   0.339   4.320   8.944 -0.0091  0.4564 -1.6217
 3293SOL    HW210458   0.331   4.441   8.854 -1.5608  1.4016 -0.2653
 3294SOL     OW10459   3.111   3.254   2.784 -0.5006 -0.2552  0.4227
 3294SOL    HW110460   3.041   3.218   2.840 -1.1611 -0.0597 -0.2644
 3294SOL    HW210461   3.125   3.342   2.818 -1.6538  0.2551 -0.3781
 3295SOL     OW10462   9.391   4.100   9.794 -0.1751 -0.0926 -0.4144
 3295SOL    HW110463   9.377   4.047   9.715 -1.7569  0.0765 -0.2713
 3295SOL    HW210464   9.440   4.176   9.763  0.4549 -0.7061 -0.9644
 3296SOL     OW10465   5.850   3.117   0.755 -0.1759  0.0733 -0.0590
 3296SOL    HW110466   5.818   3.034   0.719 -1.7440 -0.0959  1.5900
 3296SOL    HW210467   5.777   3.150   0.808  0.1898  2.7749 -1.0448
 3297SOL     OW10468   3.206   0.971   8.260 -0.1112  0.1550  0.1536
 3297SOL    HW110469   3.166   0.913   8.325 -0.4499  1.0186  0.7424
 3297SOL    HW210470   3.192   0.927   8.176  1.1129 -1.4225  0.7327
 3298SOL     OW10471   0.283   5.424   4.097  0.0151  0.2203  0.0560
 3298SOL    HW110472   0.298   5.505   4.145 -1.4992  1.1512 -0.9345
 3298SOL    HW210473   0.323   5.356   4.151  3.0814  1.7919  0.0058
 3299SOL     OW10474   5.695   8.475   3.220  0.4763 -0.0546 -0.1564
 3299SOL    HW110475   5.689   8.431   3.305  0.5713  0.9573  0.3879
 3299SOL    HW210476   5.607   8.512   3.206  0.4433 -0.2658 -0.5360
 3300SOL     OW10477   2.379   3.045   0.427 -0.3308  0.0382  0.5729
 3300SOL    HW110478   2.455   3.101   0.444 -1.8086  1.7519  1.9309
 3300SOL    HW210479   2.317   3.103   0.382 -0.7417 -1.4302 -0.8480
 3301SOL     OW10480   9.451   0.421   6.474 -0.6546  0.1737  0.0464
 3301SOL    HW110481   9.494   0.481   6.534  0.0791  0.0430 -0.3317
 3301SOL    HW210482   9.490   0.441   6.388  0.4250 -1.5521  0.0762
 3302SOL     OW10483   7.985   8.048   1.508 -0.5188  0.0035 -0.3644
 3302SOL    HW110484   8.025   8.120   1.556 -0.0949  0.0963 -0.8387
 3302SOL    HW210485   7.895   8.077   1.491  0.5935  2.0447 -3.6277
 3303SOL     OW10486   2.488   9.914   5.904 -0.0255  0.4525 -0.2826
 3303SOL    HW110487   2.495   9.841   5.841 -0.4316  0.2052 -0.0444
 3303SOL    HW210488   2.573   9.956   5.901  0.1456  0.0929 -0.5819
 3304SOL     OW10489   7.332   9.031   8.627 -0.3421  0.2475 -0.2160
 3304SOL    HW110490   7.259   9.046   8.686  1.9066  1.2736  2.4743
 3304SOL    HW210491   7.410   9.046   8.680  1.8696 -0.7387 -2.9512
 3305SOL     OW10492   0.134   0.136   4.164  0.1206  0.4226 -0.1961
 3305SOL    HW110493   0.093   0.135   4.251  0.4402  0.0532 -0.0445
 3305SOL    HW210494   0.072   0.183   4.109 -1.7274 -2.1642 -0.5341
 3306SOL     OW10495   2.936   5.567   3.777  0.5381 -0.1495 -0.3574
 3306SOL    HW110496   2.978   5.647   3.748 -2.3368  1.2967 -0.8785
 3306SOL    HW210497   2.947   5.567   3.872  1.1297  0.4998 -0.4181
 3307SOL     OW10498   4.056   9.770   5.026  0.4900 -0.2099 -0.2515
 3307SOL    HW110499   4.098   9.837   4.972  0.0397 -0.5201 -0.9960
 3307SOL    HW210500   4.008   9.715   4.964  1.0290 -1.3614  0.3090
 3308SOL     OW10501   6.999   5.000   3.485  0.3855 -0.5770  0.6010
 3308SOL    HW110502   7.055   4.924   3.469  2.1280  0.7026  0.3018
 3308SOL    HW210503   6.995   5.007   3.580  0.4237 -0.9133  0.6279
 3309SOL     OW10504   9.669   8.463   7.350 -0.4942  0.4803 -0.2376
 3309SOL    HW110505   9.607   8.484   7.280 -0.2157 -0.0698 -0.6558
 3309SOL    HW210506   9.669   8.541   7.406 -1.5252  0.5021 -0.2573
 3310SOL     OW10507   3.415   0.212   3.878 -0.6979  0.3376 -0.1248
 3310SOL    HW110508   3.403   0.306   3.860 -0.4779  0.6867  1.4090
 3310SOL    HW210509   3.327   0.175   3.875 -0.7790  0.5762 -0.8033
 3311SOL     OW10510   1.000   0.136   9.777 -0.8786  0.2818 -1.0668
 3311SOL    HW110511   1.071   0.198   9.760 -0.2744  0.4719  1.6947
 3311SOL    HW210512   1.044   0.060   9.816 -2.1712  0.6209  1.2028
 3312SOL     OW10513   5.331   7.558   0.564 -0.3238 -0.3598 -0.3041
 3312SOL    HW110514   5.310   7.549   0.657 -1.3115  0.2075 -0.4560
 3312SOL    HW210515   5.270   7.498   0.520  0.0398 -0.5181 -0.6002
 3313SOL     OW10516   6.229   6.297   4.675 -0.3781  0.2660 -0.2181
 3313SOL    HW110517   6.265   6.386   4.670  2.0073 -0.6718 -3.5697
 3313SOL    HW210518   6.160   6.295   4.609 -2.2281  0.1920  1.5964
 3314SOL     OW10519   6.317   1.939   8.902 -0.0812  0.1504  0.0659
 3314SOL    HW110520   6.326   2.015   8.844 -0.0062  0.4410  0.4517
 3314SOL    HW210521   6.396   1.942   8.956  0.5221 -0.9043 -0.7330
 3315SOL     OW10522   0.349   3.312   9.069  0.2958  0.0381 -0.8014
 3315SOL    HW110523   0.317   3.259   9.142  0.2714  0.9915 -0.1012
 3315SOL    HW210524   0.420   3.261   9.032  0.9761 -0.0159  0.5266
 3316SOL     OW10525   0.995   4.606   4.514  0.3510 -0.2147 -0.3147
 3316SOL    HW110526   1.004   4.594   4.608  0.6572  0.2292 -0.2809
 3316SOL    HW210527   0.982   4.700   4.503  2.3529  0.0610 -0.8333
 3317SOL     OW10528   6.131   4.455   9.395  0.5245 -0.5140  0.2515
 3317SOL    HW110529   6.201   4.516   9.372  1.2617 -1.9585 -1.5617
 3317SOL    HW210530   6.134   4.449   9.491  1.8927  0.5655  0.3028
 3318SOL     OW10531   6.015   0.046   9.134  0.2122  0.0155  0.2787
 3318SOL    HW110532   5.937  -0.007   9.148 -0.9253  1.9845  2.0602
 3318SOL    HW210533   6.002   0.085   9.047  0.5896 -1.7690 -0.6116
 3319SOL     OW10534   2.606   1.001   5.602  0.1681  0.0123  0.0701
 3319SOL    HW110535   2.608   1.093   5.575  0.7457  0.2322  0.8142
 3319SOL    HW210536   2.518   0.971   5.580  0.1721  0.5666 -0.7483
 3320SOL     OW10537   2.895   6.843   0.473  0.3594  0.3041  0.7091
 3320SOL    HW110538   2.948   6.810   0.545 -0.9068 -1.1204  1.0430
 3320SOL    HW210539   2.924   6.934   0.460  3.1773 -0.5473  0.5358
 3321SOL     OW10540   2.167   3.650   7.111  0.1338  0.3197 -0.4961
 3321SOL    HW110541   2.206   3.583   7.167 -0.6723  0.3342  0.1082
 3321SOL    HW210542   2.213   3.642   7.027  1.0718  0.0200  0.0369
 3322SOL     OW10543   1.234   4.957   1.484  0.3281 -0.5438 -0.1379
 3322SOL    HW110544   1.308   4.932   1.539 -0.4739  0.0584  1.2674
 3322SOL    HW210545   1.230   5.052   1.491 -0.1096 -0.5030 -0.8312
 3323SOL     OW10546   0.073   6.186   2.695 -0.1106 -0.0815 -0.3445
 3323SOL    HW110547   0.078   6.281   2.699  0.1039 -0.0943 -0.2890
 3323SOL    HW210548   0.150   6.156   2.743 -0.9315 -0.2965  0.8791
 3324SOL     OW10549   5.063   2.497   4.639  0.4137 -0.0211 -0.2887
 3324SOL    HW110550   5.001   2.526   4.706  0.7068 -1.6664  0.7257
 3324SOL    HW210551   5.009   2.488   4.560  0.0862  2.0149 -0.3569
 3325SOL     OW10552   6.810   2.133   6.089 -0.1267 -0.5352 -0.1528
 3325SOL    HW110553   6.761   2.053   6.107 -0.9290  0.2633  1.4226
 3325SOL    HW210554   6.795   2.188   6.166  0.5587  1.0650 -1.1179
 3326SOL     OW10555   3.472   3.694   3.352  0.1075 -0.3722 -0.3232
 3326SOL    HW110556   3.476   3.698   3.448 -0.1166  0.9347 -0.3567
 3326SOL    HW210557   3.556   3.728   3.323 -0.6603  1.3993 -0.6024
 3327SOL     OW10558   4.493   2.139   6.609 -0.3543  0.7722 -0.1923
 3327SOL    HW110559   4.509   2.044   6.615  0.5851  0.7621 -2.1152
 3327SOL    HW210560   4.578   2.179   6.625 -0.0721  1.1239 -2.3412
 3328SOL     OW10561   0.774   7.301   3.872  0.2108  0.1193  0.2416
 3328SOL    HW110562   0.743   7.352   3.796 -0.5946 -0.4413  0.1848
 3328SOL    HW210563   0.836   7.238   3.835 -0.8738 -0.7737 -0.1107
 3329SOL     OW10564   0.907   7.562   2.931  0.0167 -0.3327 -0.3813
 3329SOL    HW110565   0.989   7.552   2.980  0.2624 -2.5101 -1.1094
 3329SOL    HW210566   0.870   7.645   2.962  2.3983  0.6444  0.0930
 3330SOL     OW10567   0.316   8.765   4.458 -0.0816 -0.2680  0.2475
 3330SOL    HW110568   0.278   8.686   4.497 -0.3855 -0.7208 -0.9489
 3330SOL    HW210569   0.258   8.836   4.486 -1.6059 -0.8916 -1.1877
 3331SOL     OW10570   9.036   8.008   4.532  0.0583 -0.1886 -0.5191
 3331SOL    HW110571   9.083   8.082   4.570  2.0143 -1.3760 -0.4579
 3331SOL    HW210572   9.070   8.002   4.443  0.9439 -1.7931 -0.1038
 3332SOL     OW10573   4.189   2.760   4.879  0.5138 -0.4936 -0.0881
 3332SOL    HW110574   4.155   2.817   4.810  0.3437 -0.0819  0.3309
 3332SOL    HW210575   4.284   2.763   4.869  0.4892 -0.4463 -0.3081
 3333SOL     OW10576   4.893   1.993   3.060 -0.5127  0.0074  0.0340
 3333SOL    HW110577   4.863   2.082   3.046 -1.1478 -0.3985 -1.4394
 3333SOL    HW210578   4.833   1.939   3.008  0.5730 -1.1578 -0.0716
 3334SOL     OW10579   7.327   1.004   8.141 -0.1555  0.0430 -0.3180
 3334SOL    HW110580   7.331   0.929   8.082  1.7749 -0.3064  0.1650
 3334SOL    HW210581   7.333   1.080   8.084 -0.3657 -0.2234 -0.6985
 3335SOL     OW10582   9.028   5.848   3.168  0.0714 -0.6397 -0.5044
 3335SOL    HW110583   9.039   5.777   3.105 -0.3259 -1.2849  0.1316
 3335SOL    HW210584   8.970   5.911   3.125 -1.7345 -1.9568 -0.1105
 3336SOL     OW10585   3.573   4.956   6.941 -0.7820  0.1555  0.7685
 3336SOL    HW110586   3.530   5.034   6.976 -1.7889 -0.5467  1.1632
 3336SOL    HW210587   3.587   4.976   6.849  0.7277  1.5334  1.2489
 3337SOL     OW10588   6.880   9.374   2.491  0.0944 -0.1985 -0.2417
 3337SOL    HW110589   6.805   9.432   2.501 -0.1020 -0.4043 -0.5246
 3337SOL    HW210590   6.955   9.427   2.521 -0.0945  0.1656 -0.4061
 3338SOL     OW10591   6.208   1.731   0.031  0.3650  0.0967  0.3917
 3338SOL    HW110592   6.255   1.740   0.114 -0.8440 -0.7813  1.2121
 3338SOL    HW210593   6.152   1.808   0.028  0.0588 -0.1126  0.6383
 3339SOL     OW10594   6.867   3.527   9.776  0.1505  0.3128 -0.1742
 3339SOL    HW110595   6.819   3.600   9.816 -0.3494 -0.3111  0.3921
 3339SOL    HW210596   6.949   3.523   9.825 -0.3309 -0.2529  0.6216
 3340SOL     OW10597   9.101   1.157   4.140 -0.6025 -0.3421  0.1720
 3340SOL    HW110598   9.149   1.103   4.077 -1.0682 -1.5186  0.7939
 3340SOL    HW210599   9.098   1.244   4.100 -0.2230 -0.8802 -1.0723
 3341SOL     OW10600   4.790   9.890   0.569  0.4318 -0.2411  0.3559
 3341SOL    HW110601   4.875   9.933   0.568  0.4862 -0.3448  0.4949
 3341SOL    HW210602   4.761   9.896   0.660 -1.0718  2.4584 -0.2048
 3342SOL     OW10603   0.380   2.773   5.080  0.0687  0.7333  0.5696
 3342SOL    HW110604   0.313   2.710   5.057  0.9843 -0.0558  0.0042
 3342SOL    HW210605   0.342   2.858   5.058 -0.2805  0.2174 -0.9283
 3343SOL     OW10606   4.666   6.545   9.583 -0.4859  0.4295  0.3839
 3343SOL    HW110607   4.711   6.495   9.651  0.9097  1.1369  0.0205
 3343SOL    HW210608   4.687   6.498   9.501 -3.9292 -1.7099  0.5245
 3344SOL     OW10609   2.146   2.008   6.092  0.2966 -0.2571  0.0797
 3344SOL    HW110610   2.181   2.085   6.136  1.2012 -1.4104  1.4810
 3344SOL    HW210611   2.058   1.998   6.128 -0.0570  0.4503 -0.5654
 3345SOL     OW10612   6.659   1.568   3.742 -0.2378  0.6634  0.4710
 3345SOL    HW110613   6.719   1.497   3.762  0.3852  0.9131 -0.4376
 3345SOL    HW210614   6.614   1.586   3.825  0.7976  0.3357  1.1154
 3346SOL     OW10615   7.658   6.935   1.177 -0.4426 -0.2267 -0.0006
 3346SOL    HW110616   7.736   6.920   1.230 -1.2517 -2.4614  0.6744
 3346SOL    HW210617   7.593   6.968   1.238 -1.3960 -2.8645  0.5075
 3347SOL     OW10618   9.176   7.234   2.036 -0.0607  0.6414  0.1507
 3347SOL    HW110619   9.180   7.148   1.994 -1.5701  0.8985 -0.6044
 3347SOL    HW210620   9.254   7.280   2.006  0.4333 -0.2379  0.0562
 3348SOL     OW10621   8.529   0.543   6.633 -0.6579 -0.9192 -0.3198
 3348SOL    HW110622   8.622   0.543   6.611 -0.6701 -2.8876 -0.5991
 3348SOL    HW210623   8.527   0.546   6.729 -0.2935 -1.0623 -0.3051
 3349SOL     OW10624   8.671   4.146   3.521  0.2001 -0.0939 -0.2422
 3349SOL    HW110625   8.727   4.216   3.490  1.8573 -0.4936  1.6644
 3349SOL    HW210626   8.692   4.071   3.465 -0.5859  0.4976 -1.3869
 3350SOL     OW10627   8.473   4.842   5.098  0.4557 -0.4321 -0.0140
 3350SOL    HW110628   8.415   4.823   5.172  0.8426 -0.6363  0.2455
 3350SOL    HW210629   8.452   4.931   5.072  0.3687 -0.3322  0.3965
 3351SOL     OW10630   7.362   3.592   0.919  0.2412 -0.0917  0.1256
 3351SOL    HW110631   7.341   3.525   0.985  0.3164 -0.5151 -0.2763
 3351SOL    HW210632   7.329   3.673   0.957 -0.1544 -0.4067  0.4750
 3352SOL     OW10633   3.108   4.002   5.836  0.1141 -0.2737  0.1307
 3352SOL    HW110634   3.042   3.935   5.852 -0.8198  0.4618 -0.5481
 3352SOL    HW210635   3.163   3.966   5.767  0.7744 -1.1162  1.0723
 3353SOL     OW10636   1.509   8.656   2.232  0.6661  0.4068  0.3976
 3353SOL    HW110637   1.506   8.731   2.172  1.2406  2.2335  2.5033
 3353SOL    HW210638   1.597   8.620   2.221  0.7277  0.6540  0.0556
 3354SOL     OW10639   9.869   9.868   3.134  0.0211  0.1038 -0.3579
 3354SOL    HW110640   9.902   9.797   3.078 -0.0616  0.7042 -1.1778
 3354SOL    HW210641   9.829   9.930   3.074 -1.4015  0.0708  0.4992
 3355SOL     OW10642   4.915   0.138   3.708  0.2431 -0.4471 -0.3015
 3355SOL    HW110643   4.943   0.220   3.666  0.0857 -0.2183  0.0431
 3355SOL    HW210644   4.957   0.139   3.794 -2.7125  1.0695  1.2547
 3356SOL     OW10645   3.352   0.296   0.453 -0.1440 -0.4469 -0.6529
 3356SOL    HW110646   3.279   0.299   0.514 -0.1090 -0.6410 -0.6019
 3356SOL    HW210647   3.418   0.353   0.492 -0.0040 -0.8109 -0.3586
 3357SOL     OW10648   3.645   4.970   1.682 -0.2814  0.1891  0.1679
 3357SOL    HW110649   3.567   4.923   1.651 -0.0381  0.0675 -0.2578
 3357SOL    HW210650   3.613   5.022   1.756 -0.7002 -0.1134  0.2064
 3358SOL     OW10651   1.784   6.328   3.766  0.3651 -0.0467  0.2001
 3358SOL    HW110652   1.752   6.416   3.784 -1.6662 -0.0654 -2.6359
 3358SOL    HW210653   1.872   6.341   3.732  0.5667  0.7584  1.0057
 3359SOL     OW10654   8.632   2.791   7.570 -0.0967 -0.2200  0.7223
 3359SOL    HW110655   8.567   2.729   7.600 -1.7116  1.8787  1.8387
 3359SOL    HW210656   8.613   2.803   7.477 -1.8925  0.9501  1.1997
 3360SOL     OW10657   3.575   2.463   8.633 -0.1183 -0.2926  0.3381
 3360SOL    HW110658   3.662   2.454   8.595 -0.6011  1.4507 -1.3395
 3360SOL    HW210659   3.591   2.492   8.723  1.0390  0.1194  0.0126
 3361SOL     OW10660   4.192   4.862   7.907  0.1005  0.0001 -0.2615
 3361SOL    HW110661   4.143   4.812   7.842 -0.4936  1.9712 -1.4386
 3361SOL    HW210662   4.283   4.834   7.895 -0.3900 -1.8870  0.2127
 3362SOL     OW10663   8.152   7.259   4.391  0.1333 -0.1900  0.4240
 3362SOL    HW110664   8.093   7.332   4.373 -0.9010 -1.0855  0.1121
 3362SOL    HW210665   8.146   7.244   4.485  1.2239  0.8483  0.6754
 3363SOL     OW10666   4.878   3.937   1.149 -0.2060  0.1540 -0.1680
 3363SOL    HW110667   4.864   3.910   1.058 -0.1069  0.6659 -0.3387
 3363SOL    HW210668   4.963   3.899   1.172 -0.4060 -0.2971 -0.1629
 3364SOL     OW10669   5.573   4.974   0.151  0.2417  0.1183 -0.3716
 3364SOL    HW110670   5.635   4.978   0.224  1.2059 -0.9033 -1.1154
 3364SOL    HW210671   5.487   4.987   0.193  0.8093  0.0154  0.8826
 3365SOL     OW10672   2.263   4.764   9.557  0.0588 -0.0277 -0.2402
 3365SOL    HW110673   2.240   4.697   9.493  1.0153 -0.6232  0.0113
 3365SOL    HW210674   2.357   4.752   9.572 -0.2095 -0.1676  1.5651
 3366SOL     OW10675   6.658   1.086   1.540  0.4949  0.1270 -0.1353
 3366SOL    HW110676   6.715   1.162   1.548  0.5100  0.3219 -1.7583
 3366SOL    HW210677   6.714   1.011   1.562  0.8896  0.4605  0.0037
 3367SOL     OW10678   2.314   9.376   7.061 -0.1420 -0.1371 -0.5613
 3367SOL    HW110679   2.391   9.320   7.071  0.3918  0.5500 -0.7404
 3367SOL    HW210680   2.253   9.324   7.008  1.6425  0.6373 -3.6405
 3368SOL     OW10681   1.655   0.628   5.717 -0.1665 -0.1210  0.0763
 3368SOL    HW110682   1.633   0.715   5.752  0.3875  0.0777 -0.0546
 3368SOL    HW210683   1.620   0.567   5.782 -0.3696  0.2059  0.2802
 3369SOL     OW10684   8.559   8.365   1.528  0.1296 -0.1795 -0.2086
 3369SOL    HW110685   8.644   8.390   1.492  0.0540 -0.0876 -0.3255
 3369SOL    HW210686   8.570   8.275   1.557  0.6844  0.2747  1.0505
 3370SOL     OW10687   4.318   9.077   0.322  0.2917 -0.2827 -0.4796
 3370SOL    HW110688   4.342   9.052   0.233 -0.1285  2.1175 -1.3540
 3370SOL    HW210689   4.224   9.096   0.317  0.2990  0.0653  0.4212
 3371SOL     OW10690   0.534   8.229   0.978  0.2234  0.3387  0.1167
 3371SOL    HW110691   0.599   8.185   1.033 -0.1230  0.1218  0.3566
 3371SOL    HW210692   0.451   8.187   1.001 -0.2639  1.7434  1.0262
 3372SOL     OW10693   5.525   0.513   1.542  0.1700 -0.1722  0.2314
 3372SOL    HW110694   5.586   0.586   1.550 -0.2772  0.1588  0.6417
 3372SOL    HW210695   5.438   0.552   1.552 -0.1823 -0.4853 -1.3384
 3373SOL     OW10696   2.273   8.480   6.824  0.0778 -0.1140 -0.1066
 3373SOL    HW110697   2.180   8.503   6.827  0.1817  0.7420 -1.8977
 3373SOL    HW210698   2.315   8.555   6.780  2.2581  1.3505  3.9116
 3374SOL     OW10699   3.106   0.279   0.887 -0.0054 -0.3334  0.0069
 3374SOL    HW110700   3.049   0.313   0.956  1.1536  0.6959  0.4771
 3374SOL    HW210701   3.147   0.202   0.925  1.0312  0.5337  0.6732
 3375SOL     OW10702   7.829   1.931   4.164 -0.4792  0.3717 -0.3985
 3375SOL    HW110703   7.802   1.962   4.250 -2.0061 -1.2445 -0.2473
 3375SOL    HW210704   7.751   1.939   4.109 -0.1496 -0.6098 -1.0448
 3376SOL     OW10705   8.368   3.743   4.954 -0.0822  0.3801 -0.1196
 3376SOL    HW110706   8.375   3.677   4.886 -0.4093  1.2871 -1.0572
 3376SOL    HW210707   8.458   3.776   4.964 -0.3362  1.5083 -1.4177
 3377SOL     OW10708   9.014   0.933   8.277  0.6626  0.0198  0.0120
 3377SOL    HW110709   9.082   0.954   8.342  1.0212  2.1476 -0.9718
 3377SOL    HW210710   9.018   1.005   8.214 -1.8696 -0.3096 -0.6220
 3378SOL     OW10711   7.508   1.000   4.242 -0.0025  0.8533 -0.5042
 3378SOL    HW110712   7.483   0.908   4.250 -0.6233  1.0440 -0.2339
 3378SOL    HW210713   7.600   1.002   4.269 -0.4432  0.5586  1.1606
 3379SOL     OW10714   4.022   7.925   4.245  0.2627 -0.1758  0.2456
 3379SOL    HW110715   4.017   8.007   4.196  0.9048  2.0544  3.5443
 3379SOL    HW210716   4.094   7.877   4.205 -0.7628  0.3387 -2.4057
 3380SOL     OW10717   3.219   9.613   8.111  0.9885  0.0366 -0.1829
 3380SOL    HW110718   3.225   9.701   8.075  0.7973  0.1500  0.0581
 3380SOL    HW210719   3.263   9.557   8.047 -2.3315 -0.2951 -2.4600
 3381SOL     OW10720   9.474   7.798   2.897 -0.0712 -0.2466 -0.1291
 3381SOL    HW110721   9.420   7.858   2.846 -0.0750 -2.1018 -2.5197
 3381SOL    HW210722   9.557   7.794   2.849  0.2475 -1.4280  0.4842
 3382SOL     OW10723   5.107   0.148   7.928  0.5933  0.1927  0.1236
 3382SOL    HW110724   5.095   0.066   7.977 -0.7091  0.0183 -0.4500
 3382SOL    HW210725   5.161   0.123   7.853  2.2148  0.3708  1.1843
 3383SOL     OW10726   4.152   4.413   9.457 -0.3470 -0.2100 -0.2392
 3383SOL    HW110727   4.104   4.483   9.415 -1.8582 -0.5029  0.9374
 3383SOL    HW210728   4.207   4.376   9.387 -2.7385 -0.6754 -1.9757
 3384SOL     OW10729   0.658   1.206   5.528  0.2090 -0.3240 -0.9002
 3384SOL    HW110730   0.623   1.256   5.602 -0.9302  1.4215 -2.5539
 3384SOL    HW210731   0.695   1.272   5.470  1.2295 -1.6838 -1.8689
 3385SOL     OW10732   3.523   7.221   2.108  0.3068 -0.6234 -0.3453
 3385SOL    HW110733   3.520   7.223   2.203  1.3873  0.0322 -0.3098
 3385SOL    HW210734   3.486   7.136   2.084 -0.5848 -0.5299  0.6214
 3386SOL     OW10735   2.569   0.276   9.624  0.1626 -0.1849 -0.3080
 3386SOL    HW110736   2.571   0.317   9.537  0.0362 -0.2541 -0.3451
 3386SOL    HW210737   2.481   0.238   9.630 -0.6365  1.7107  0.7331
 3387SOL     OW10738   4.912   4.608   6.338 -0.1746 -0.4157  0.0611
 3387SOL    HW110739   4.870   4.554   6.405 -1.7022  0.0364 -0.4816
 3387SOL    HW210740   4.862   4.590   6.259 -0.2191  1.2006 -0.2985
 3388SOL     OW10741   9.794   3.863   1.337  0.0306  0.5255  0.4955
 3388SOL    HW110742   9.889   3.857   1.332 -0.0835 -1.0788 -0.4654
 3388SOL    HW210743   9.767   3.780   1.376 -1.0185  0.5242 -0.1940
 3389SOL     OW10744   0.981   0.200   0.821 -0.1371 -0.8480 -0.2252
 3389SOL    HW110745   1.009   0.291   0.834 -0.9802 -0.9739  3.3637
 3389SOL    HW210746   1.051   0.161   0.769  1.4391  1.2588  0.1663
 3390SOL     OW10747   3.713   6.535   6.810  0.5188 -0.4489  0.0320
 3390SOL    HW110748   3.775   6.608   6.800 -1.3116  1.1097 -0.6120
 3390SOL    HW210749   3.737   6.474   6.740  2.9926 -1.2336  1.4643
 3391SOL     OW10750   3.410   6.649   7.734  0.3984  0.1309 -0.0687
 3391SOL    HW110751   3.492   6.600   7.735 -0.1063 -0.8081 -1.4412
 3391SOL    HW210752   3.399   6.675   7.642 -1.6447 -1.2507 -0.2901
 3392SOL     OW10753   0.365   7.748   7.496 -0.0767  0.4451 -0.3479
 3392SOL    HW110754   0.321   7.669   7.466 -1.4881  1.1258 -0.1570
 3392SOL    HW210755   0.456   7.722   7.509 -0.4334 -1.0306 -0.6789
 3393SOL     OW10756   7.694   5.966   2.510 -0.1977  0.3167 -0.1415
 3393SOL    HW110757   7.770   5.967   2.569 -0.6610 -3.0452  0.6912
 3393SOL    HW210758   7.655   6.053   2.521  2.2510  1.3646  1.0874
 3394SOL     OW10759   3.453   5.522   7.387 -0.1556 -0.3418 -0.0555
 3394SOL    HW110760   3.456   5.431   7.418 -0.4878 -0.1740  0.5006
 3394SOL    HW210761   3.424   5.516   7.296  1.4104 -0.8893 -0.5469
 3395SOL     OW10762   0.356   3.156   7.336 -0.1171 -0.3556 -0.1429
 3395SOL    HW110763   0.383   3.179   7.247 -1.6165 -1.7801 -1.0189
 3395SOL    HW210764   0.385   3.065   7.347  0.3298 -0.0903  0.9465
 3396SOL     OW10765   3.104   7.793   8.906 -0.5678 -0.1229  0.3680
 3396SOL    HW110766   3.133   7.870   8.858 -1.1635 -0.4158 -0.4679
 3396SOL    HW210767   3.151   7.720   8.865  0.9543 -0.1018  1.9508
 3397SOL     OW10768   4.823   6.367   9.734  0.4037  0.1345 -0.2198
 3397SOL    HW110769   4.868   6.283   9.741 -1.5162 -0.8508  1.7731
 3397SOL    HW210770   4.890   6.429   9.705  2.8357 -1.3566  1.8024
 3398SOL     OW10771   6.459   2.492   2.051  0.4086  0.5471  0.4099
 3398SOL    HW110772   6.535   2.532   2.009 -0.5183  1.8191 -0.1258
 3398SOL    HW210773   6.484   2.401   2.064  2.3074  1.0863  0.9380
 3399SOL     OW10774   3.051   8.794   4.390  0.5099  0.1704 -0.4102
 3399SOL    HW110775   3.142   8.823   4.395 -0.5748  3.8126  1.5821
 3399SOL    HW210776   3.034   8.753   4.475  0.5077 -1.4630 -1.1683
 3400SOL     OW10777   4.944   3.704   2.741 -0.3192  0.1001  0.4972
 3400SOL    HW110778   4.902   3.766   2.800  0.0805  1.1028 -0.2524
 3400SOL    HW210779   4.906   3.723   2.655 -0.8211 -1.2718  0.3904
 3401SOL     OW10780   1.882   9.851   0.628 -0.3049 -0.3243 -0.2168
 3401SOL    HW110781   1.824   9.923   0.602  0.0052 -0.2045 -0.5834
 3401SOL    HW210782   1.901   9.805   0.546 -0.1502 -0.5640 -0.0467
 3402SOL     OW10783   0.550   8.386   8.841  0.5957  0.0028  0.0894
 3402SOL    HW110784   0.529   8.479   8.837  1.9236  0.2848 -1.3300
 3402SOL    HW210785   0.639   8.380   8.805  1.3761 -1.5632  2.0682
 3403SOL     OW10786   1.489   6.809   9.269 -0.1674 -0.0212  0.1949
 3403SOL    HW110787   1.544   6.830   9.194 -0.1364  2.2959  0.7711
 3403SOL    HW210788   1.522   6.726   9.302  1.6050  0.2709 -0.7481
 3404SOL     OW10789   4.077   4.103   1.835 -0.3313  0.0623 -0.3990
 3404SOL    HW110790   4.146   4.139   1.779  0.5087 -1.4908 -0.4206
 3404SOL    HW210791   4.105   4.124   1.924  1.5670 -2.6812 -0.2269
 3405SOL     OW10792   3.659   5.592   7.090 -0.1554  0.1572  0.0415
 3405SOL    HW110793   3.614   5.579   7.173  0.9283 -1.1282  0.4662
 3405SOL    HW210794   3.677   5.686   7.086  2.2538 -0.0460  2.6339
 3406SOL     OW10795   3.385   7.234   9.401 -0.0407  0.7005 -0.8095
 3406SOL    HW110796   3.401   7.310   9.458 -0.3622 -0.3242  0.6922
 3406SOL    HW210797   3.469   7.189   9.397 -0.3695 -0.0065  0.0424
 3407SOL     OW10798   4.681   1.259   4.163 -0.2536 -0.2530 -0.4924
 3407SOL    HW110799   4.592   1.259   4.199  0.2549  1.6584  0.9408
 3407SOL    HW210800   4.736   1.228   4.235  0.2763 -1.3271 -1.3396
 3408SOL     OW10801   8.921   4.278   7.907  0.0265 -0.4907 -0.0519
 3408SOL    HW110802   8.850   4.263   7.845  0.2165  0.3271 -0.4801
 3408SOL    HW210803   8.936   4.373   7.904  0.9551 -0.6178  0.2230
 3409SOL     OW10804   7.413   4.232   8.061 -0.1106  0.0820  0.4546
 3409SOL    HW110805   7.497   4.244   8.106 -0.8994  1.4360  1.6531
 3409SOL    HW210806   7.357   4.189   8.124  0.2022 -2.7489 -1.0420
 3410SOL     OW10807   7.627   4.752   5.914 -0.4031  0.6259 -0.3038
 3410SOL    HW110808   7.538   4.773   5.943 -0.3064  1.3755 -0.5310
 3410SOL    HW210809   7.615   4.691   5.841 -0.7113  0.4550 -0.1148
 3411SOL     OW10810   3.566   6.005   6.379 -0.0089  0.5696  0.2284
 3411SOL    HW110811   3.508   5.930   6.393  2.2664 -0.9791  2.0386
 3411SOL    HW210812   3.591   6.034   6.467  0.5821  2.3374 -0.4706
 3412SOL     OW10813   7.812   0.014   4.837  0.5712 -0.0341 -0.1196
 3412SOL    HW110814   7.722   0.016   4.806  0.4332 -0.6868  0.2345
 3412SOL    HW210815   7.843   0.104   4.825 -0.1178  0.1884 -0.2659
 3413SOL     OW10816   5.073   9.340   2.730 -0.2448 -0.4951 -0.3277
 3413SOL    HW110817   5.077   9.374   2.640  1.0086 -1.9608 -0.8666
 3413SOL    HW210818   5.098   9.248   2.722 -2.9619 -1.4704  1.1695
 3414SOL     OW10819   1.646   4.022   6.498 -0.4526  0.2699  0.7394
 3414SOL    HW110820   1.593   4.098   6.477 -2.3347 -1.3205 -0.6614
 3414SOL    HW210821   1.607   3.985   6.577  0.7024  0.9285  1.6504
 3415SOL     OW10822   5.913   3.843   6.386  0.9468 -0.6699  0.0862
 3415SOL    HW110823   5.856   3.838   6.309 -0.3431 -1.1253  1.0345
 3415SOL    HW210824   5.966   3.921   6.371  0.8818 -0.8683 -1.3612
 3416SOL     OW10825   7.238   9.449   1.535 -0.0659 -0.2729 -0.7231
 3416SOL    HW110826   7.266   9.512   1.468  0.3624 -0.6733 -0.9224
 3416SOL    HW210827   7.305   9.381   1.534  1.7067  1.1950  2.2441
 3417SOL     OW10828   1.017   4.574   0.616  0.4122 -0.3161  0.0076
 3417SOL    HW110829   1.073   4.527   0.554 -0.6796  0.1234 -1.3590
 3417SOL    HW210830   0.991   4.653   0.569 -0.0324  0.2795  1.2336
 3418SOL     OW10831   0.035   8.714   0.588 -0.4724  0.5849  0.1648
 3418SOL    HW110832  -0.000   8.697   0.675 -0.8294  3.6228  0.7099
 3418SOL    HW210833   0.124   8.746   0.604 -0.4629  0.9613 -0.6074
 3419SOL     OW10834   6.583   0.243   4.025 -0.2536  0.0440 -0.2022
 3419SOL    HW110835   6.579   0.149   4.011  1.2018 -0.0292 -0.3055
 3419SOL    HW210836   6.591   0.280   3.936  0.4956  0.1608 -0.0935
 3420SOL     OW10837   4.545   5.626   8.240  0.5737  0.1354  0.4432
 3420SOL    HW110838   4.470   5.645   8.297  1.1393  0.3868  1.1085
 3420SOL    HW210839   4.581   5.713   8.218 -0.5249  0.1613 -1.5358
 3421SOL     OW10840   9.534   5.060   0.381  0.3400 -0.1634  0.0190
 3421SOL    HW110841   9.504   4.973   0.357  0.1092 -0.6371  1.9254
 3421SOL    HW210842   9.624   5.048   0.411  0.5788  0.3873 -0.4478
 3422SOL     OW10843   3.483   2.407   6.024  0.0204 -0.3885  0.3118
 3422SOL    HW110844   3.446   2.449   6.102 -1.5237 -2.0258  0.5210
 3422SOL    HW210845   3.407   2.385   5.971  1.0256  0.2529 -1.4755
 3423SOL     OW10846   9.297   0.693   1.852  0.2489  0.1446 -0.0305
 3423SOL    HW110847   9.350   0.703   1.773  1.5707 -1.0834  0.6434
 3423SOL    HW210848   9.338   0.751   1.917 -0.2442  0.4365  0.0200
 3424SOL     OW10849   9.452   7.781   1.291 -0.5612 -0.5920 -0.0321
 3424SOL    HW110850   9.471   7.873   1.310  0.5117 -0.3279 -2.1624
 3424SOL    HW210851   9.364   7.782   1.252 -0.3235 -0.3999 -0.5629
 3425SOL     OW10852   1.382   3.262   1.189 -0.8045  0.2510  0.2178
 3425SOL    HW110853   1.416   3.178   1.158  0.9848  1.5786 -1.6973
 3425SOL    HW210854   1.290   3.262   1.163 -0.1421 -0.0067 -2.4589
 3426SOL     OW10855   9.271   1.798   7.816 -0.6849 -0.4794 -0.3766
 3426SOL    HW110856   9.251   1.889   7.838 -0.5591  0.0965 -2.5030
 3426SOL    HW210857   9.358   1.801   7.775 -0.0925 -1.7594  0.6929
 3427SOL     OW10858   5.556   4.478   5.138  0.2328 -0.4845  0.0348
 3427SOL    HW110859   5.499   4.536   5.087  0.4924 -1.2344 -1.1583
 3427SOL    HW210860   5.641   4.484   5.095  0.0968 -2.2793 -0.5903
 3428SOL     OW10861   6.166   8.503   1.055  0.3789  0.0786 -0.1346
 3428SOL    HW110862   6.197   8.413   1.053  0.3077  0.0592 -0.3678
 3428SOL    HW210863   6.171   8.528   1.148 -0.8171 -0.5821  0.1251
 3429SOL     OW10864   6.030   7.394   0.420 -0.3626  0.5651  0.4015
 3429SOL    HW110865   5.962   7.364   0.480 -0.3206 -1.8962 -0.6468
 3429SOL    HW210866   6.015   7.343   0.340 -0.0841  3.2961 -1.5128
 3430SOL     OW10867   4.786   2.998   8.964  0.4288  0.2032  0.1148
 3430SOL    HW110868   4.754   3.007   8.875  1.4654  1.3859 -0.1623
 3430SOL    HW210869   4.773   2.905   8.985 -0.1319 -0.0185 -1.1372
 3431SOL     OW10870   4.932   2.356   0.929 -0.0033 -0.2486  0.0478
 3431SOL    HW110871   5.009   2.357   0.986 -0.0411  1.4727  0.1136
 3431SOL    HW210872   4.956   2.297   0.857  0.5170 -1.4614  1.1641
 3432SOL     OW10873   0.817   1.989   4.150  0.5081 -0.3015 -0.1245
 3432SOL    HW110874   0.877   1.915   4.160 -0.3582 -0.9471  0.4482
 3432SOL    HW210875   0.772   1.972   4.067  0.5010 -0.2843 -0.1242
 3433SOL     OW10876   5.614   7.372   8.970  1.0635  0.1169  0.1791
 3433SOL    HW110877   5.579   7.461   8.974 -0.5765 -0.5249  0.7697
 3433SOL    HW210878   5.563   7.329   8.902  1.3405 -0.5782  0.4022
 3434SOL     OW10879   1.870   3.061   5.823 -0.0346 -0.2623 -0.4897
 3434SOL    HW110880   1.882   3.090   5.914 -0.8399 -0.8964 -0.1657
 3434SOL    HW210881   1.941   2.998   5.809  0.7126  0.5908 -0.6538
 3435SOL     OW10882   0.743   8.124   2.176 -0.0080  0.1627 -0.4758
 3435SOL    HW110883   0.659   8.086   2.205  0.5214 -0.3576  0.4579
 3435SOL    HW210884   0.725   8.217   2.165 -0.5922  0.1519  0.2536
 3436SOL     OW10885   7.613   4.413   1.023  0.2012  0.3227 -0.4621
 3436SOL    HW110886   7.571   4.356   0.958  0.7430 -0.9825  0.2923
 3436SOL    HW210887   7.595   4.502   0.992  0.0942 -0.2541 -2.1757
 3437SOL     OW10888   8.847   1.271   4.217 -0.3663 -0.3062 -0.2464
 3437SOL    HW110889   8.928   1.223   4.202  0.1234 -0.0858  1.4360
 3437SOL    HW210890   8.779   1.204   4.217 -0.0621 -0.6194 -0.7382
 3438SOL     OW10891   2.737   6.729   0.287  0.0432 -0.1769 -0.5320
 3438SOL    HW110892   2.781   6.780   0.355 -2.6527  0.7877  0.6479
 3438SOL    HW210893   2.740   6.639   0.319 -1.3291  0.2829  1.0369
 3439SOL     OW10894   8.866   2.402   1.911  0.3008 -0.7284  0.0735
 3439SOL    HW110895   8.927   2.360   1.971 -0.2676 -1.2829  0.2760
 3439SOL    HW210896   8.781   2.362   1.931  0.0558 -0.7259 -0.9157
 3440SOL     OW10897   7.658   4.201   6.784 -1.0142 -0.0419 -0.2079
 3440SOL    HW110898   7.750   4.219   6.768 -0.4220  0.6993  3.1649
 3440SOL    HW210899   7.654   4.107   6.802 -0.3987  0.2973  1.9760
 3441SOL     OW10900   0.002   2.759   7.155 -0.1137  0.2483 -0.1492
 3441SOL    HW110901  -0.029   2.846   7.178  0.3774  0.4455 -0.2143
 3441SOL    HW210902   0.037   2.768   7.067  3.1169  0.8473  1.0650
 3442SOL     OW10903   8.847   2.098   8.164  0.1241  0.1110  0.0828
 3442SOL    HW110904   8.753   2.083   8.165  0.1354 -0.0377  1.6233
 3442SOL    HW210905   8.879   2.048   8.089 -0.7459 -1.7382  0.8956
 3443SOL     OW10906   2.739   2.604   2.680 -0.0148  0.0087 -0.3644
 3443SOL    HW110907   2.672   2.642   2.737  0.7208  0.9017 -0.0794
 3443SOL    HW210908   2.811   2.582   2.740  0.2876 -0.1719 -0.7892
 3444SOL     OW10909   5.130   6.540   9.929 -0.1966  0.2621  0.2558
 3444SOL    HW110910   5.169   6.580   9.851 -1.1960  1.1763  0.2021
 3444SOL    HW210911   5.164   6.450   9.930  0.2866  0.4187 -0.9034
 3445SOL     OW10912   7.656   9.730   3.560  0.0192 -0.2499 -0.1143
 3445SOL    HW110913   7.716   9.656   3.572  0.5746  0.3041  0.6623
 3445SOL    HW210914   7.646   9.737   3.465  0.9431 -0.5663 -0.2529
 3446SOL     OW10915   6.611   5.265   7.910  0.5012 -0.1797  0.1788
 3446SOL    HW110916   6.651   5.317   7.841 -0.7502  0.7481  0.1133
 3446SOL    HW210917   6.678   5.258   7.978  0.7867  1.2899  0.0640
 3447SOL     OW10918   4.812   5.103   9.763 -0.4164 -0.3563 -0.0529
 3447SOL    HW110919   4.754   5.044   9.812  1.0489 -1.2963  0.6118
 3447SOL    HW210920   4.847   5.049   9.692  0.1137  0.0283 -0.0877
 3448SOL     OW10921   0.638   8.440   6.218 -0.3697 -0.3331 -0.0496
 3448SOL    HW110922   0.695   8.431   6.295  1.8785 -2.0645 -1.7630
 3448SOL    HW210923   0.591   8.522   6.232  1.0476  0.1493  2.4461
 3449SOL     OW10924   0.635   8.242   6.876 -0.3555  0.2357  0.1618
 3449SOL    HW110925   0.570   8.313   6.869  0.1475  0.7683  0.7284
 3449SOL    HW210926   0.617   8.202   6.961 -0.9645 -0.6669 -0.3718
 3450SOL     OW10927   5.160   7.563   3.210 -0.1961 -0.1980  0.6369
 3450SOL    HW110928   5.125   7.476   3.230  0.2364 -0.2950  0.9824
 3450SOL    HW210929   5.086   7.610   3.172 -0.2938 -0.8818 -0.0406
 3451SOL     OW10930   4.188   2.631   8.954 -0.2698 -0.1318 -0.4157
 3451SOL    HW110931   4.232   2.551   8.982 -2.0382 -0.7908  0.6713
 3451SOL    HW210932   4.164   2.676   9.035  3.0465  2.9940 -0.9361
 3452SOL     OW10933   8.434   9.530   5.854  0.0715 -0.2116 -0.6512
 3452SOL    HW110934   8.418   9.436   5.849 -1.3405 -0.1536  1.3974
 3452SOL    HW210935   8.386   9.567   5.780  0.2179 -1.0448 -1.1789
 3453SOL     OW10936   6.890   9.362   1.822 -0.5695 -0.0305  0.1005
 3453SOL    HW110937   6.823   9.414   1.866  0.1523  0.8153  0.2151
 3453SOL    HW210938   6.918   9.298   1.887 -2.4965 -1.5673 -0.5016
 3454SOL     OW10939   9.686   8.441   8.719  0.5365  0.1482 -0.6786
 3454SOL    HW110940   9.659   8.415   8.631  0.1896 -0.7439 -0.3236
 3454SOL    HW210941   9.765   8.389   8.736 -1.0979 -2.0746  0.6825
 3455SOL     OW10942   5.503   9.575   7.979 -0.5485 -0.3004  0.2100
 3455SOL    HW110943   5.452   9.495   7.994  0.3445 -0.8015  0.6583
 3455SOL    HW210944   5.548   9.591   8.062 -0.3805  0.4257 -0.0114
 3456SOL     OW10945   2.694   9.142   7.682  0.4078 -0.6041 -0.0308
 3456SOL    HW110946   2.663   9.073   7.740 -0.3668  0.5385  0.9538
 3456SOL    HW210947   2.621   9.203   7.675  1.6648  1.0809  0.6664
 3457SOL     OW10948   7.786   4.794   5.091  0.2432 -0.8668  0.1439
 3457SOL    HW110949   7.735   4.870   5.062  0.7060  0.2475  2.0885
 3457SOL    HW210950   7.720   4.731   5.122 -0.0799 -0.7382 -0.2744
 3458SOL     OW10951   2.154   6.478   4.535 -0.6811  0.7471 -0.2890
 3458SOL    HW110952   2.235   6.466   4.584 -0.7039  2.4362  0.2519
 3458SOL    HW210953   2.088   6.494   4.603 -1.1590  0.8507 -0.7735
 3459SOL     OW10954   8.054   0.994   3.379 -0.2348 -0.1837  0.1143
 3459SOL    HW110955   8.095   0.939   3.445  0.5794 -1.5124 -1.4255
 3459SOL    HW210956   7.980   0.942   3.347 -2.0132  1.3577  1.4477
 3460SOL     OW10957   8.330   7.956   5.617  0.3846  0.5349 -0.0220
 3460SOL    HW110958   8.326   7.871   5.660 -2.1050  1.1547  1.1447
 3460SOL    HW210959   8.422   7.965   5.590  2.1442 -0.0537  4.8621
 3461SOL     OW10960   8.077   0.296   3.949  0.4133 -0.0432  0.0425
 3461SOL    HW110961   8.018   0.306   3.874  1.5996  1.5388 -0.7231
 3461SOL    HW210962   8.028   0.330   4.023 -1.1381 -2.4702  0.2632
 3462SOL     OW10963   7.614   9.367   0.341  0.2827 -0.1796 -0.2597
 3462SOL    HW110964   7.529   9.411   0.350  0.6133  0.5403 -0.5849
 3462SOL    HW210965   7.650   9.401   0.259  0.3270 -1.4484 -0.7862
 3463SOL     OW10966   6.510   8.025   9.250  0.0352 -0.0346 -0.0967
 3463SOL    HW110967   6.443   7.963   9.278 -0.8454  1.3520  1.0019
 3463SOL    HW210968   6.582   8.013   9.312 -0.4057  0.4911  0.5233
 3464SOL     OW10969   3.170   1.019   9.014 -0.0118 -0.5080  0.5016
 3464SOL    HW110970   3.152   1.098   8.964 -1.6005 -0.4519  1.1072
 3464SOL    HW210971   3.185   1.050   9.103  0.9369 -0.7800  0.4560
 3465SOL     OW10972   4.783   2.699   6.090 -0.4169 -0.2151  0.1133
 3465SOL    HW110973   4.739   2.783   6.077  0.2353  0.2672  0.9308
 3465SOL    HW210974   4.875   2.721   6.102  0.0242 -1.1780 -1.1931
 3466SOL     OW10975   7.674   7.360   4.654  0.0897  0.6571 -0.4019
 3466SOL    HW110976   7.723   7.363   4.571  1.1918  0.3462  0.2144
 3466SOL    HW210977   7.600   7.419   4.640  0.1930  0.5159 -1.6481
 3467SOL     OW10978   5.070   8.053   6.641  0.2855  0.2288 -0.0356
 3467SOL    HW110979   5.062   7.959   6.628 -2.0610  0.0886  1.8982
 3467SOL    HW210980   5.144   8.078   6.585 -0.4114 -2.3571 -2.3562
 3468SOL     OW10981   5.360   2.872   4.656  0.0104  0.0835  0.0969
 3468SOL    HW110982   5.392   2.856   4.745 -0.7685  1.7172  0.7099
 3468SOL    HW210983   5.313   2.956   4.662  0.4739  0.5412 -1.9897
 3469SOL     OW10984   9.207   0.161   7.140  0.3512  0.2298  0.1350
 3469SOL    HW110985   9.138   0.172   7.206 -1.0922 -1.0885 -1.0873
 3469SOL    HW210986   9.288   0.165   7.190 -0.6905 -2.0796  2.2538
 3470SOL     OW10987   0.613   1.686   2.732  0.0702 -0.0028 -0.3554
 3470SOL    HW110988   0.541   1.686   2.796 -0.6221 -0.4037 -1.1139
 3470SOL    HW210989   0.692   1.679   2.785 -0.5263 -0.9464  0.4376
 3471SOL     OW10990   8.128   7.818   7.804 -0.2523  0.4330  0.1076
 3471SOL    HW110991   8.050   7.860   7.841  0.7919 -0.0427  3.1018
 3471SOL    HW210992   8.178   7.789   7.880  2.8766  0.6816 -1.7119
 3472SOL     OW10993   1.447   6.042   4.067 -0.2179 -0.2456  0.0909
 3472SOL    HW110994   1.497   6.099   4.126  0.7277  0.4337 -1.3184
 3472SOL    HW210995   1.462   5.954   4.101  2.9750 -0.2289 -0.8970
 3473SOL     OW10996   3.399   3.046   6.572 -0.2916 -0.2058 -0.0797
 3473SOL    HW110997   3.419   3.108   6.642 -1.1383  0.0681 -0.0573
 3473SOL    HW210998   3.319   3.081   6.532  0.3111 -0.2189 -1.3475
 3474SOL     OW10999   6.296   9.117   1.657 -0.0522  0.0813 -0.5254
 3474SOL    HW111000   6.295   9.051   1.726  1.3636 -0.0166 -0.5714
 3474SOL    HW211001   6.375   9.169   1.674 -1.3656  2.0750 -0.2233
 3475SOL     OW11002   6.745   1.053   6.313  0.1987 -0.1325 -0.3914
 3475SOL    HW111003   6.763   1.067   6.406 -0.9986 -2.4048  0.2610
 3475SOL    HW211004   6.670   1.111   6.294  1.2181  1.2708 -0.3349
 3476SOL     OW11005   8.557   5.925   6.208 -0.1502  0.2605 -0.4700
 3476SOL    HW111006   8.488   5.886   6.260  0.4088  1.2632  1.0947
 3476SOL    HW211007   8.628   5.861   6.210 -0.8532 -0.6039 -1.7672
 3477SOL     OW11008   7.398   9.864   0.708  0.3823 -0.0735 -0.1686
 3477SOL    HW111009   7.333   9.833   0.772 -0.7097 -2.3688 -2.2274
 3477SOL    HW211010   7.348   9.873   0.626  2.5991 -1.8484 -1.8284
 3478SOL     OW11011   7.694   4.873   6.683  0.6557 -0.2772  0.0308
 3478SOL    HW111012   7.609   4.833   6.666  2.3724 -4.4557  0.1927
 3478SOL    HW211013   7.727   4.896   6.596  0.3500 -0.9512 -0.2714
 3479SOL     OW11014   4.033   5.279   3.287 -0.3122  0.0359  0.4152
 3479SOL    HW111015   3.966   5.238   3.342  0.6190 -1.7891  0.2694
 3479SOL    HW211016   3.987   5.301   3.206 -0.6704 -1.6973  0.1022
 3480SOL     OW11017   9.935   6.357   8.025 -0.1217 -0.1629 -0.1131
 3480SOL    HW111018   9.895   6.375   8.110 -3.3307  2.3552 -1.9254
 3480SOL    HW211019   9.924   6.263   8.013 -0.9099 -0.3272  1.6315
 3481SOL     OW11020   7.956   3.251   4.534  0.2321 -0.0490 -0.8521
 3481SOL    HW111021   7.863   3.271   4.549  0.3748  1.0594 -1.3378
 3481SOL    HW211022   8.003   3.319   4.582  0.8424 -1.1169  0.1317
 3482SOL     OW11023   5.439   8.148   1.542 -0.2295  0.3835 -0.3494
 3482SOL    HW111024   5.524   8.170   1.581  0.6562 -2.2420 -0.5848
 3482SOL    HW211025   5.390   8.108   1.614 -0.3909 -0.1665 -0.7611
 3483SOL     OW11026   0.262   5.579   8.202 -0.4966 -0.3011 -0.3728
 3483SOL    HW111027   0.295   5.490   8.210  0.9891  0.2169 -0.4894
 3483SOL    HW211028   0.275   5.617   8.288 -1.3638 -0.2598 -0.2517
 3484SOL     OW11029   3.295   2.903   7.059  0.5313 -0.2540 -0.5339
 3484SOL    HW111030   3.205   2.935   7.058  1.0349  1.4066 -3.1043
 3484SOL    HW211031   3.348   2.981   7.071  1.6780 -1.0851  0.0025
 3485SOL     OW11032   6.666   1.291   2.182 -0.0704  0.1765  0.6487
 3485SOL    HW111033   6.606   1.222   2.212  0.4030  0.2540  1.8189
 3485SOL    HW211034   6.734   1.294   2.249  0.3148  1.2763  0.2200
 3486SOL     OW11035   0.256   7.943   1.363 -0.1709  0.1875  0.0719
 3486SOL    HW111036   0.325   8.008   1.352  0.2121 -0.5886 -2.9651
 3486SOL    HW211037   0.297   7.860   1.336 -1.6427 -0.7072  0.4876
 3487SOL     OW11038   1.108   3.226   7.591 -0.1417 -0.3118 -0.1580
 3487SOL    HW111039   1.062   3.145   7.569  0.9210 -0.5236 -1.7688
 3487SOL    HW211040   1.093   3.237   7.685 -2.4287 -0.9984 -0.3672
 3488SOL     OW11041   6.557   1.639   6.637 -0.7325 -0.3835  0.5851
 3488SOL    HW111042   6.558   1.722   6.590  0.3725  0.3997  1.9499
 3488SOL    HW211043   6.532   1.661   6.726 -1.4414 -1.6672  0.7364
 3489SOL     OW11044   8.343   6.583   9.884  0.1395 -0.4456 -0.2779
 3489SOL    HW111045   8.418   6.551   9.834 -0.2552 -1.2844 -0.3377
 3489SOL    HW211046   8.272   6.588   9.821  0.1873  0.5919 -0.2764
 3490SOL     OW11047   3.946   0.834   3.559  0.0454  0.5850 -0.1707
 3490SOL    HW111048   3.996   0.850   3.479 -1.0156  1.7558 -0.6375
 3490SOL    HW211049   3.877   0.772   3.532 -0.4246  1.1235 -0.2221
 3491SOL     OW11050   2.566   7.812   5.294 -0.2878 -0.9258  0.1473
 3491SOL    HW111051   2.553   7.717   5.291 -0.3814 -0.8930 -0.9643
 3491SOL    HW211052   2.479   7.849   5.275  0.1295 -0.6568 -1.3850
 3492SOL     OW11053   0.516   6.224   0.874 -0.5112  0.4574  0.0381
 3492SOL    HW111054   0.609   6.242   0.875 -0.7375  1.6716  1.0103
 3492SOL    HW211055   0.484   6.264   0.794 -0.3825  1.1130  0.3080
 3493SOL     OW11056   6.793   7.661   1.923 -0.0288 -0.1740  0.1195
 3493SOL    HW111057   6.791   7.757   1.927 -1.0197 -0.2175  0.8107
 3493SOL    HW211058   6.773   7.633   2.012  0.1073 -1.0332 -0.1184
 3494SOL     OW11059   0.968   7.475   7.419  0.0579 -0.1911 -0.1411
 3494SOL    HW111060   0.874   7.466   7.404  0.4908 -0.3901 -3.4568
 3494SOL    HW211061   0.997   7.388   7.448 -0.6956 -0.2367  0.4983
 3495SOL     OW11062   7.336   4.622   7.113  0.8137  0.1625 -0.2138
 3495SOL    HW111063   7.420   4.664   7.097  1.0263 -0.1371  0.0763
 3495SOL    HW211064   7.307   4.592   7.027  0.7432  0.7399 -0.3944
 3496SOL     OW11065   1.506   0.526   8.474 -0.3013 -0.6324  0.0114
 3496SOL    HW111066   1.463   0.448   8.438  1.4510 -2.5339  1.7690
 3496SOL    HW211067   1.504   0.590   8.402 -1.6410 -2.3401 -1.5696
 3497SOL     OW11068   4.350   6.867   7.472  0.2748 -0.3175  0.2676
 3497SOL    HW111069   4.422   6.847   7.533 -0.9703 -1.4502  1.4415
 3497SOL    HW211070   4.278   6.895   7.529 -1.2719 -2.3909 -0.5607
 3498SOL     OW11071   3.430   1.204   1.600  0.4595 -0.2183 -0.4260
 3498SOL    HW111072   3.439   1.254   1.681  2.6994  1.5521 -1.6268
 3498SOL    HW211073   3.355   1.147   1.614  0.6759  0.1312  2.8022
 3499SOL     OW11074   3.506   3.734   5.386 -0.1912  0.2431  0.3273
 3499SOL    HW111075   3.530   3.648   5.419 -0.2167  0.0486 -0.1583
 3499SOL    HW211076   3.413   3.726   5.363 -0.3413  0.5597  0.7907
 3500SOL     OW11077   0.887   6.896   5.938 -0.2687  0.4987 -0.6331
 3500SOL    HW111078   0.797   6.863   5.936  0.0609 -0.4936  0.0569
 3500SOL    HW211079   0.878   6.991   5.940 -1.3244  0.3990  0.0289
 3501SOL     OW11080   8.361   5.071   5.679 -0.6126  0.4260  0.4888
 3501SOL    HW111081   8.449   5.073   5.643 -0.3713 -0.0630  1.0252
 3501SOL    HW211082   8.320   4.994   5.639  0.0046 -0.7485  1.9793
 3502SOL     OW11083   8.281   6.720   8.762  0.0677  0.5250  0.0786
 3502SOL    HW111084   8.242   6.807   8.768  0.8899  0.8849  0.4785
 3502SOL    HW211085   8.361   6.734   8.711  0.8258  0.2459  1.1641
 3503SOL     OW11086   7.695   9.242   9.059 -0.1131 -0.1860  0.4532
 3503SOL    HW111087   7.614   9.211   9.099  0.1080  0.3891  1.3831
 3503SOL    HW211088   7.666   9.292   8.982 -0.8321  2.1152  2.1355
 3504SOL     OW11089   0.734   5.763   0.338 -0.1427 -0.1291  0.2960
 3504SOL    HW111090   0.799   5.697   0.316 -1.8830 -1.7742 -0.1588
 3504SOL    HW211091   0.785   5.843   0.353  2.0418 -1.5696  0.9793
 3505SOL     OW11092   4.656   2.389   7.603  0.5885 -0.3668  0.8655
 3505SOL    HW111093   4.740   2.345   7.613  0.7364 -1.4424 -3.2161
 3505SOL    HW211094   4.678   2.482   7.601  1.2751 -0.4705  2.3262
 3506SOL     OW11095   6.365   4.055   0.415 -0.2932  0.8583 -0.3312
 3506SOL    HW111096   6.454   4.091   0.420 -0.0171  0.1342  0.1177
 3506SOL    HW211097   6.347   4.023   0.503 -0.1472 -0.9503 -0.9014
 3507SOL     OW11098   2.144   1.957   8.447  0.0844  0.1798 -0.1072
 3507SOL    HW111099   2.236   1.985   8.445 -0.4286  2.1748  1.0627
 3507SOL    HW211100   2.115   1.963   8.356  1.6371 -2.6192 -0.8842
 3508SOL     OW11101   4.188   3.925   6.484 -0.3693  0.2710  0.5496
 3508SOL    HW111102   4.128   3.981   6.533 -0.2952  2.1976 -1.4033
 3508SOL    HW211103   4.150   3.919   6.396  1.6277  0.5810 -0.4152
 3509SOL     OW11104   0.958   9.290   1.812  0.0645 -0.1063 -0.5785
 3509SOL    HW111105   0.941   9.253   1.899 -1.1997 -0.7766 -1.0847
 3509SOL    HW211106   1.052   9.311   1.813  0.2913 -1.0490  0.5905
 3510SOL     OW11107   3.847   1.306   4.433 -0.1937 -0.1537 -0.1432
 3510SOL    HW111108   3.809   1.391   4.412  1.4511  0.8727  0.8567
 3510SOL    HW211109   3.802   1.244   4.375  0.5575  1.7638 -2.9344
 3511SOL     OW11110   1.777   5.693   8.884 -1.1219 -0.0828 -0.2446
 3511SOL    HW111111   1.714   5.650   8.942 -1.2135  0.0084 -0.2759
 3511SOL    HW211112   1.723   5.735   8.817 -0.9674 -1.2533 -1.1337
 3512SOL     OW11113   9.511   5.115   6.427  1.0940 -0.2862  0.0817
 3512SOL    HW111114   9.490   5.083   6.515  0.6144 -0.3601 -0.0568
 3512SOL    HW211115   9.602   5.089   6.413  1.2024 -0.1997  0.5891
 3513SOL     OW11116   3.217   9.719   5.619  0.0276  0.0795 -0.4506
 3513SOL    HW111117   3.162   9.660   5.669  1.1881 -0.0203  0.7607
 3513SOL    HW211118   3.232   9.794   5.676  2.6883 -0.7515  0.0764
 3514SOL     OW11119   1.079   0.961   9.764  0.3914 -0.1145  0.2325
 3514SOL    HW111120   1.086   1.043   9.813  1.9166 -0.1271  0.0725
 3514SOL    HW211121   1.003   0.975   9.707  1.5565  1.8443 -0.9559
 3515SOL     OW11122   4.254   1.671   9.879 -0.2345  0.2534  0.2376
 3515SOL    HW111123   4.237   1.592   9.930  0.6121 -0.1045 -0.0109
 3515SOL    HW211124   4.223   1.742   9.935  0.2747 -0.1609  1.0815
 3516SOL     OW11125   7.476   2.736   9.009 -0.4170 -0.1345 -0.1157
 3516SOL    HW111126   7.445   2.827   9.015 -0.9298 -0.3863  1.1600
 3516SOL    HW211127   7.533   2.725   9.085 -1.3770 -1.2605  0.4624
 3517SOL     OW11128   4.635   6.434   5.431 -0.3646  0.2263  0.2909
 3517SOL    HW111129   4.689   6.399   5.502 -2.2317 -1.5894  0.9408
 3517SOL    HW211130   4.692   6.433   5.354  1.1142  0.3455  1.3464
 3518SOL     OW11131   7.729   7.204   0.510 -0.3681 -0.1878 -0.4277
 3518SOL    HW111132   7.691   7.121   0.538 -1.8987  0.1862 -1.2977
 3518SOL    HW211133   7.735   7.197   0.415 -1.4026  1.0259 -0.6116
 3519SOL     OW11134   8.640   2.585   6.067  0.7400 -0.2073 -0.2190
 3519SOL    HW111135   8.599   2.511   6.112  0.7599 -0.3051 -0.3618
 3519SOL    HW211136   8.732   2.560   6.060  0.9221  0.2147  0.5172
 3520SOL     OW11137   7.003   3.196   5.917  0.5342  0.0085  0.2443
 3520SOL    HW111138   7.037   3.144   5.990  0.5000  1.7237  1.5561
 3520SOL    HW211139   6.909   3.179   5.917  0.7050 -1.0491 -0.3155
 3521SOL     OW11140   0.855   0.708   8.055  0.6203 -0.1864 -0.7440
 3521SOL    HW111141   0.880   0.616   8.046  0.4017 -0.5360  1.5454
 3521SOL    HW211142   0.852   0.741   7.965  0.4720 -2.4616 -1.6511
 3522SOL     OW11143   4.957   4.068   2.827  0.2945 -0.4776 -0.6271
 3522SOL    HW111144   4.898   4.101   2.759  1.0105 -1.4234 -1.7434
 3522SOL    HW211145   4.901   4.057   2.904 -0.5248  0.6707 -1.0298
 3523SOL     OW11146   1.119   4.471   0.353  0.2174  0.2020  0.3303
 3523SOL    HW111147   1.058   4.456   0.281 -0.5916 -1.4068  1.2966
 3523SOL    HW211148   1.191   4.520   0.313 -0.7472  0.3704 -1.2978
 3524SOL     OW11149   4.876   9.296   4.037 -0.2759  0.0543  0.6818
 3524SOL    HW111150   4.896   9.384   4.005 -1.9522  0.2988  0.2211
 3524SOL    HW211151   4.793   9.305   4.083 -0.9269 -1.4320 -0.1136
 3525SOL     OW11152   3.267   9.664   0.488 -0.1288 -0.0689  0.1156
 3525SOL    HW111153   3.182   9.695   0.455  0.2799  0.2020 -0.7053
 3525SOL    HW211154   3.275   9.705   0.574 -2.0239 -2.1983  1.4205
 3526SOL     OW11155   1.636   5.599   1.519 -0.0658 -0.3797  0.0596
 3526SOL    HW111156   1.610   5.674   1.572 -1.1481 -1.3343  0.9455
 3526SOL    HW211157   1.636   5.631   1.429 -0.5702  0.6620  0.4206
 3527SOL     OW11158   1.599   3.685   7.937  0.2900 -0.1252  0.6300
 3527SOL    HW111159   1.587   3.779   7.931 -1.5076 -0.2875  1.1316
 3527SOL    HW211160   1.542   3.649   7.869 -0.3185 -0.8961  1.5217
 3528SOL     OW11161   0.050   2.597   5.399 -0.0184 -0.4010  0.7546
 3528SOL    HW111162  -0.046   2.600   5.392 -0.2196  0.2828  2.9692
 3528SOL    HW211163   0.079   2.569   5.312 -2.3042 -2.5120  0.5328
 3529SOL     OW11164   9.701   7.911   3.177  0.0378 -0.5076 -0.4197
 3529SOL    HW111165   9.758   7.872   3.110 -0.2073 -1.6369  0.0107
 3529SOL    HW211166   9.662   7.836   3.222 -2.6801  0.1777 -1.4213
 3530SOL     OW11167   5.194   9.849   1.300  0.5341 -0.0677  0.3205
 3530SOL    HW111168   5.183   9.943   1.282  0.6925  0.2811  1.8949
 3530SOL    HW211169   5.115   9.825   1.348 -0.4511 -1.2472 -1.7503
 3531SOL     OW11170   8.110   2.196   1.312  0.4983 -0.0666 -0.1519
 3531SOL    HW111171   8.153   2.247   1.243  0.2738 -1.7877 -1.6227
 3531SOL    HW211172   8.171   2.125   1.331  0.7355  0.5791  1.7718
 3532SOL     OW11173   9.816   8.941   3.263  0.6323 -0.1997  0.1694
 3532SOL    HW111174   9.804   8.901   3.176 -1.7158  1.8815 -0.5932
 3532SOL    HW211175   9.902   8.912   3.291  1.8899 -0.2378 -3.2882
 3533SOL     OW11176   1.179   9.350   8.138  0.4020 -0.0776  0.4331
 3533SOL    HW111177   1.254   9.380   8.188  1.1362  0.3151 -0.8661
 3533SOL    HW211178   1.213   9.281   8.082 -0.3686 -0.3973  0.3385
 3534SOL     OW11179   4.018   5.565   9.511 -0.0849  0.2317 -0.1334
 3534SOL    HW111180   4.008   5.651   9.469 -0.6893 -0.4638 -1.5025
 3534SOL    HW211181   4.048   5.508   9.440  1.3277 -0.4807  0.9966
 3535SOL     OW11182   1.543   5.024   9.707 -0.3091  0.0727  0.1436
 3535SOL    HW111183   1.453   5.031   9.675 -0.0984 -0.0856 -0.5068
 3535SOL    HW211184   1.596   5.011   9.628  0.0086 -2.4312  0.6931
 3536SOL     OW11185   9.128   7.444   3.327  0.5717  0.5989  0.4687
 3536SOL    HW111186   9.065   7.506   3.363  1.7832  1.8275  0.5425
 3536SOL    HW211187   9.191   7.498   3.280 -0.0135 -0.8252 -2.1253
 3537SOL     OW11188   7.800   9.493   1.479 -0.3706  0.2915 -0.1390
 3537SOL    HW111189   7.797   9.561   1.412 -0.0685 -0.4579 -0.9451
 3537SOL    HW211190   7.818   9.412   1.429  0.2348 -0.2242  0.8921
 3538SOL     OW11191   6.199   1.533   6.043 -0.6083  0.8694  0.1109
 3538SOL    HW111192   6.215   1.474   6.118 -0.1273  1.5831  0.5811
 3538SOL    HW211193   6.283   1.536   5.997 -0.5453  1.4208  0.2587
 3539SOL     OW11194   7.269   0.888   6.214  0.0435  0.0813 -0.2372
 3539SOL    HW111195   7.316   0.815   6.173  0.1412  0.4295 -0.7558
 3539SOL    HW211196   7.330   0.920   6.282  0.2375  0.0415 -0.3906
 3540SOL     OW11197   2.612   8.261   7.407  0.1495 -0.3575 -0.3241
 3540SOL    HW111198   2.539   8.316   7.378  0.3472  0.5724  0.8567
 3540SOL    HW211199   2.686   8.290   7.353  0.3736  0.9561  0.6062
 3541SOL     OW11200   9.526   3.368   9.094  0.2500 -0.1768 -0.1142
 3541SOL    HW111201   9.496   3.288   9.050  2.2529 -0.3217 -1.3525
 3541SOL    HW211202   9.586   3.336   9.162  0.4109  0.2336 -0.0609
 3542SOL     OW11203   6.197   1.319   0.473 -0.5963  0.4694  0.1732
 3542SOL    HW111204   6.126   1.336   0.535 -0.1023  0.0978  0.8647
 3542SOL    HW211205   6.180   1.230   0.442 -0.1285  0.1584  0.7802
 3543SOL     OW11206   3.066   8.546   2.813 -0.1143  0.2536  0.3503
 3543SOL    HW111207   2.992   8.600   2.787 -0.1374 -0.2781 -0.7319
 3543SOL    HW211208   3.130   8.557   2.743  0.0606 -0.7624  0.3336
 3544SOL     OW11209   9.915   3.328   1.043 -0.0429  0.5934 -0.1719
 3544SOL    HW111210   9.874   3.373   0.968  2.8126 -0.3430 -2.4760
 3544SOL    HW211211   9.899   3.235   1.025 -0.4374  0.3945  1.1415
 3545SOL     OW11212   7.657   8.797   9.298 -0.2562 -0.0677 -0.4890
 3545SOL    HW111213   7.728   8.755   9.346 -0.8167 -0.7472 -0.2385
 3545SOL    HW211214   7.593   8.820   9.365 -0.8674 -0.6690 -0.8566
 3546SOL     OW11215   1.880   1.309   1.006 -0.1648  0.6142 -0.1159
 3546SOL    HW111216   1.863   1.222   1.042  1.8139 -0.7945 -2.2717
 3546SOL    HW211217   1.816   1.366   1.049 -1.2988 -1.8119  1.6456
 3547SOL     OW11218   2.950   8.224   5.336  0.3276  0.4350 -0.2827
 3547SOL    HW111219   2.956   8.319   5.342  0.6308  0.3636  0.6879
 3547SOL    HW211220   2.925   8.195   5.424 -0.0472 -0.3637 -0.6381
 3548SOL     OW11221   2.199   8.087   1.478  0.4457 -0.1040  0.2317
 3548SOL    HW111222   2.136   8.073   1.549  0.4685  1.1936  0.5323
 3548SOL    HW211223   2.212   8.000   1.440 -1.5690 -0.4142  0.1188
 3549SOL     OW11224   3.090   0.931   6.531  0.5783  0.3701 -0.1156
 3549SOL    HW111225   3.025   0.872   6.491 -1.0575  1.8306  0.2596
 3549SOL    HW211226   3.173   0.886   6.520 -0.3376 -1.0587 -1.6828
 3550SOL     OW11227   7.639   0.634   7.071  0.3106  0.1313 -0.1483
 3550SOL    HW111228   7.696   0.669   7.140  0.1124 -0.1572  0.1683
 3550SOL    HW211229   7.653   0.692   6.996 -1.2711  1.9449  0.8576
 3551SOL     OW11230   9.428   4.605   9.499 -0.3175 -0.3302  0.1747
 3551SOL    HW111231   9.432   4.684   9.444 -0.7472  1.8100  3.0108
 3551SOL    HW211232   9.507   4.556   9.476  0.8064  1.7134 -0.5940
 3552SOL     OW11233   0.517   9.397   7.949  0.4723 -0.0768 -0.0434
 3552SOL    HW111234   0.557   9.330   8.005 -0.4432 -2.0597 -1.6250
 3552SOL    HW211235   0.524   9.478   7.999  2.3761 -1.1801  1.6206
 3553SOL     OW11236   4.177   9.946   4.870 -0.4685  0.1391 -0.3160
 3553SOL    HW111237   4.247   9.986   4.817 -1.8036  0.3614 -1.9769
 3553SOL    HW211238   4.127   9.894   4.808  0.0114 -2.6103  1.4114
 3554SOL     OW11239   0.159   6.843   0.804  0.2369 -0.0925 -0.1906
 3554SOL    HW111240   0.114   6.836   0.889 -0.4617 -0.3286 -0.5749
 3554SOL    HW211241   0.158   6.936   0.785 -1.0208 -0.1879 -0.6790
 3555SOL     OW11242   7.564   7.150   9.432  0.6272  0.3640 -0.6690
 3555SOL    HW111243   7.506   7.213   9.390  0.4016 -0.0942 -1.0497
 3555SOL    HW211244   7.518   7.125   9.513 -0.7589 -1.6078 -1.9849
 3556SOL     OW11245   0.160   4.908   6.183 -0.7201 -0.0251  0.0654
 3556SOL    HW111246   0.077   4.885   6.223 -0.6065  1.0343  0.9460
 3556SOL    HW211247   0.169   4.848   6.109 -2.2788 -0.1186 -0.0704
 3557SOL     OW11248   9.756   4.765   2.254  0.2946 -0.8174 -0.0789
 3557SOL    HW111249   9.709   4.749   2.335 -0.7676 -1.5484 -0.8090
 3557SOL    HW211250   9.710   4.839   2.214  0.6840 -0.5904 -0.1126
 3558SOL     OW11251   5.001   1.804   3.654  0.1748  0.3827 -0.5411
 3558SOL    HW111252   5.013   1.723   3.703  0.7020  0.9851  0.3627
 3558SOL    HW211253   5.059   1.795   3.578  0.0947 -0.1517 -0.5418
 3559SOL     OW11254   0.803   4.108   9.387  0.1097  0.9797 -0.3462
 3559SOL    HW111255   0.823   4.059   9.466 -0.6718  1.5732  0.2343
 3559SOL    HW211256   0.758   4.187   9.417 -1.0686  0.7663 -1.4102
 3560SOL     OW11257   2.623   6.183   9.031  0.0088 -0.0429 -0.2835
 3560SOL    HW111258   2.561   6.233   9.084  0.8916  0.8355 -0.0536
 3560SOL    HW211259   2.687   6.247   9.002  1.2030 -1.0438  0.0496
 3561SOL     OW11260   1.801   4.002   9.967  0.4275  0.4792 -0.0507
 3561SOL    HW111261   1.719   4.037   9.933 -0.5896 -0.6078  1.1735
 3561SOL    HW211262   1.828   3.936   9.903 -0.2038  0.1269  0.0393
 3562SOL     OW11263   0.667   8.046   6.668  0.3358 -0.5547  0.1670
 3562SOL    HW111264   0.692   8.103   6.741 -0.9241 -0.3007  0.4298
 3562SOL    HW211265   0.576   8.070   6.650  1.1394  0.6775 -2.7021
 3563SOL     OW11266   2.300   5.737   2.640  0.2296 -0.2883  0.6301
 3563SOL    HW111267   2.279   5.644   2.637  1.3358 -0.5613  1.0044
 3563SOL    HW211268   2.264   5.768   2.723  0.4153 -0.5231  0.7976
 3564SOL     OW11269   0.610   3.372   1.904  0.2070  0.9199 -0.0305
 3564SOL    HW111270   0.578   3.364   1.814  2.3120  1.2855 -0.8627
 3564SOL    HW211271   0.533   3.400   1.954 -1.0504  0.5628 -1.6720
 3565SOL     OW11272   4.440   1.482   5.897 -0.2821  0.3464  0.6459
 3565SOL    HW111273   4.460   1.398   5.939  0.9122  0.1302 -0.2995
 3565SOL    HW211274   4.485   1.478   5.813  1.7262  2.7998  1.4659
 3566SOL     OW11275   3.311   5.830   1.737  0.5775  0.2758  0.0042
 3566SOL    HW111276   3.279   5.884   1.809 -0.6726  0.1293 -0.4224
 3566SOL    HW211277   3.307   5.740   1.770  2.0464  0.3466  0.4828
 3567SOL     OW11278   5.570   6.590   7.828  0.0331 -0.1785  0.0656
 3567SOL    HW111279   5.663   6.576   7.813  0.2160 -0.7547  1.5598
 3567SOL    HW211280   5.566   6.634   7.913 -1.0335  0.3337 -0.2401
 3568SOL     OW11281   4.418   6.319   4.390 -0.1568 -0.3616  0.2753
 3568SOL    HW111282   4.394   6.227   4.399 -0.7289 -0.2202  0.2451
 3568SOL    HW211283   4.430   6.332   4.296 -0.2380 -0.3705  0.2633
 3569SOL     OW11284   3.496   6.001   1.228  0.0323 -0.2883 -0.2721
 3569SOL    HW111285   3.567   6.058   1.199  1.3861 -0.9040  1.6475
 3569SOL    HW211286   3.486   5.938   1.156 -0.0127  1.0206 -1.4600
 3570SOL     OW11287   9.619   2.788   3.380 -0.5074  0.2527  0.0551
 3570SOL    HW111288   9.567   2.821   3.454 -0.6769  1.2164 -0.4777
 3570SOL    HW211289   9.562   2.726   3.336 -0.1360 -0.9287  1.1529
 3571SOL     OW11290   3.652   2.721   3.652 -0.5915 -0.3557 -0.4706
 3571SOL    HW111291   3.578   2.728   3.713 -0.8896 -2.8941 -0.4353
 3571SOL    HW211292   3.615   2.686   3.572  0.4254 -0.7648 -0.7824
 3572SOL     OW11293   7.918   3.937   3.359 -0.4254  0.0775  0.3462
 3572SOL    HW111294   7.934   3.846   3.337 -0.4714  0.4665 -1.3850
 3572SOL    HW211295   7.848   3.965   3.301 -0.1586  1.3254  0.5939
 3573SOL     OW11296   2.545   1.315   2.526  0.2110  0.0949  0.3110
 3573SOL    HW111297   2.604   1.289   2.596  1.0575 -0.3871 -0.5614
 3573SOL    HW211298   2.594   1.379   2.474  0.6417 -1.4907 -1.3607
 3574SOL     OW11299   7.694   6.308   9.271  0.3165 -0.3635  0.1610
 3574SOL    HW111300   7.758   6.245   9.304  0.6973  0.0593  0.2317
 3574SOL    HW211301   7.724   6.329   9.183  1.5317  1.4858  0.9551
 3575SOL     OW11302   1.804   3.958   7.210  0.5633 -0.0978  0.8523
 3575SOL    HW111303   1.899   3.946   7.208  0.5778 -0.1813  1.5778
 3575SOL    HW211304   1.769   3.869   7.201  0.5572 -0.0674  0.5869
 3576SOL     OW11305   7.614   7.572   3.948 -0.0730 -0.1016 -0.6621
 3576SOL    HW111306   7.580   7.645   3.895 -1.1231  0.1034  0.2560
 3576SOL    HW211307   7.709   7.576   3.936 -0.2661  0.1061 -2.2906
 3577SOL     OW11308   6.080   6.781   9.663  0.0021 -0.2004  0.3217
 3577SOL    HW111309   6.115   6.832   9.736  0.2734  0.2352 -0.1133
 3577SOL    HW211310   6.099   6.690   9.687  1.1702  0.0106  0.2248
 3578SOL     OW11311   2.024   9.885   8.718 -0.3434  0.3023  0.1340
 3578SOL    HW111312   2.006   9.872   8.624  0.3892 -1.1379  0.1784
 3578SOL    HW211313   2.117   9.865   8.728 -0.3323  0.7782  1.1312
 3579SOL     OW11314   1.732   5.053   8.305  0.0426  0.3054 -0.3462
 3579SOL    HW111315   1.762   5.137   8.271 -0.0366  0.3713 -0.2543
 3579SOL    HW211316   1.812   5.001   8.314  0.2307  0.7247  0.5674
 3580SOL     OW11317   9.921   3.561   4.738  0.3107  0.3384  0.1258
 3580SOL    HW111318   9.989   3.567   4.805  1.4643  1.5753 -1.0747
 3580SOL    HW211319   9.839   3.570   4.785  1.1158  1.7914  1.3169
 3581SOL     OW11320   3.256   2.866   0.733 -0.2037 -0.0065  0.0526
 3581SOL    HW111321   3.164   2.856   0.757 -0.1669 -0.3787  0.0411
 3581SOL    HW211322   3.263   2.829   0.645  0.2373 -1.2968  0.6107
 3582SOL     OW11323   0.412   6.758   5.718 -0.1148  0.2099  0.0693
 3582SOL    HW111324   0.369   6.679   5.752  1.8909 -0.8044  0.4077
 3582SOL    HW211325   0.439   6.734   5.629  0.1062  0.6903  0.0039
 3583SOL     OW11326   0.663   0.940   6.056  0.0122  0.6409 -0.3977
 3583SOL    HW111327   0.656   0.849   6.084 -0.6210  0.9692  0.5846
 3583SOL    HW211328   0.611   0.946   5.976  0.4851  0.0423 -0.7580
 3584SOL     OW11329   9.788   6.452   2.335 -0.0047 -0.2382 -0.4051
 3584SOL    HW111330   9.721   6.401   2.382  0.6186 -1.2215 -0.5324
 3584SOL    HW211331   9.868   6.400   2.346  0.8418  1.1291  0.1214
 3585SOL     OW11332   6.372   3.696   0.509  0.3197 -0.4721  0.2456
 3585SOL    HW111333   6.462   3.662   0.515  0.5970  0.1515 -0.3757
 3585SOL    HW211334   6.374   3.777   0.560 -0.1724 -0.9931  1.1330
 3586SOL     OW11335   8.219   6.613   8.004  0.0463  0.4128  0.1693
 3586SOL    HW111336   8.221   6.665   8.085 -0.1797  0.4072  0.1779
 3586SOL    HW211337   8.239   6.524   8.033 -1.1952  0.1895  0.3902
 3587SOL     OW11338   1.481   4.768   4.749 -0.5712 -0.0128 -0.4361
 3587SOL    HW111339   1.549   4.818   4.705 -1.5658  1.8281 -0.0063
 3587SOL    HW211340   1.419   4.746   4.680 -0.8910  0.7116 -0.3897
 3588SOL     OW11341   0.709   7.598   7.188  0.3087  0.3529 -0.3051
 3588SOL    HW111342   0.726   7.524   7.130 -0.1123 -0.3801  0.4839
 3588SOL    HW211343   0.677   7.667   7.130  0.9565  0.0103 -1.0893
 3589SOL     OW11344   8.234   3.790   3.616  0.2970 -0.0790  0.3533
 3589SOL    HW111345   8.148   3.773   3.655  0.1064  0.0818  0.0065
 3589SOL    HW211346   8.260   3.876   3.650 -0.0517  0.2458 -0.1852
 3590SOL     OW11347   0.453   8.916   5.668 -0.1231  0.7682  0.5187
 3590SOL    HW111348   0.381   8.892   5.727  0.2453 -0.1843  0.5857
 3590SOL    HW211349   0.533   8.896   5.717  0.2072 -0.9348 -0.6093
 3591SOL     OW11350   2.324   2.694   3.729 -0.4434  0.2533 -0.0568
 3591SOL    HW111351   2.417   2.671   3.738 -0.0727  1.8277  0.3974
 3591SOL    HW211352   2.279   2.630   3.785  0.5727  0.8101  1.4704
 3592SOL     OW11353   4.875   7.043   0.879 -0.8454  0.6314  0.3114
 3592SOL    HW111354   4.814   6.971   0.890 -0.2247  0.0586  0.0443
 3592SOL    HW211355   4.897   7.042   0.786  0.8186 -0.2149  0.6705
 3593SOL     OW11356   9.739   6.370   5.325 -0.4203 -0.1456  0.0091
 3593SOL    HW111357   9.683   6.447   5.334  0.7250  0.7205 -0.1298
 3593SOL    HW211358   9.766   6.370   5.233  0.9424  0.2686  0.3849
 3594SOL     OW11359   6.721   8.614   8.247  0.6346 -0.1477 -0.7484
 3594SOL    HW111360   6.769   8.655   8.175  0.6556  0.5114 -0.3673
 3594SOL    HW211361   6.630   8.639   8.233  0.5678 -0.4135 -0.8048
 3595SOL     OW11362   8.102   4.247   1.852 -0.2509 -0.1694 -0.8691
 3595SOL    HW111363   8.094   4.311   1.780 -0.8538 -0.3081 -0.9373
 3595SOL    HW211364   8.122   4.164   1.808 -2.2379 -0.6034 -1.0580
 3596SOL     OW11365   1.421   8.156   0.263  0.1026  0.2570  0.0067
 3596SOL    HW111366   1.418   8.062   0.281  1.4762 -0.0736 -1.3537
 3596SOL    HW211367   1.380   8.196   0.340  1.9628 -1.2904  1.9103
 3597SOL     OW11368   1.973   6.085   5.891  0.0712 -0.1905  0.3707
 3597SOL    HW111369   1.905   6.046   5.837 -0.1345  0.7233 -0.0452
 3597SOL    HW211370   2.018   6.146   5.833  1.4482 -0.9914  0.5541
 3598SOL     OW11371   7.577   0.202   4.370  0.0629 -0.3370 -0.2821
 3598SOL    HW111372   7.489   0.231   4.395 -0.4355 -0.4701 -1.8187
 3598SOL    HW211373   7.565   0.111   4.342  0.7828 -0.5035 -0.0754
 3599SOL     OW11374   5.552   8.699   1.606  0.3319 -0.1508 -0.2822
 3599SOL    HW111375   5.578   8.791   1.597 -1.7650  0.4860 -0.3055
 3599SOL    HW211376   5.539   8.669   1.516 -0.7630  0.0947 -0.2142
 3600SOL     OW11377   5.623   3.470   1.871 -0.4032 -0.2545 -0.0939
 3600SOL    HW111378   5.659   3.470   1.782  0.6422  0.2861  0.3033
 3600SOL    HW211379   5.594   3.381   1.886  0.9346 -0.7611 -0.3951
 3601SOL     OW11380   8.580   3.476   5.136 -0.2161  0.3377  1.0030
 3601SOL    HW111381   8.673   3.453   5.137 -0.3080 -0.4038  3.8728
 3601SOL    HW211382   8.576   3.563   5.175 -0.6819  0.6880  0.1894
 3602SOL     OW11383   7.515   9.467   7.597  0.1826 -0.3016  0.3559
 3602SOL    HW111384   7.511   9.480   7.691  0.6382  0.2188  0.3106
 3602SOL    HW211385   7.606   9.487   7.573 -0.1738  0.6079 -0.3245
 3603SOL     OW11386   0.090   9.824   6.899  0.6875 -0.3947 -0.2413
 3603SOL    HW111387   0.007   9.787   6.928  0.5312 -0.0435 -0.2450
 3603SOL    HW211388   0.101   9.789   6.810 -0.0882  0.5817 -0.7382
 3604SOL     OW11389   9.330   8.780   7.678 -0.4856 -0.4136  0.9699
 3604SOL    HW111390   9.249   8.815   7.713  0.6411  1.9815  1.3827
 3604SOL    HW211391   9.379   8.749   7.754 -1.1081 -2.2384  0.6870
 3605SOL     OW11392   7.900   1.436   9.280  0.4056  0.2670 -0.0628
 3605SOL    HW111393   7.928   1.457   9.191  1.2726 -0.6773 -0.0302
 3605SOL    HW211394   7.959   1.366   9.308  1.3786  1.7399  1.9010
 3606SOL     OW11395   6.067   4.087   4.499 -0.1798 -0.8145  0.0312
 3606SOL    HW111396   6.084   3.995   4.479  1.3391 -0.2416 -1.5093
 3606SOL    HW211397   5.998   4.113   4.439  2.2854  0.0883 -2.6428
 3607SOL     OW11398   7.389   2.661   5.040  0.0230 -0.0998 -0.6368
 3607SOL    HW111399   7.314   2.703   4.999 -0.6925 -1.4463 -0.7746
 3607SOL    HW211400   7.352   2.613   5.115  0.8580 -0.1444 -0.2441
 3608SOL     OW11401   4.211   1.386   9.939  0.1822 -0.6515  0.5665
 3608SOL    HW111402   4.298   1.358   9.968  1.2682  1.5011 -0.3685
 3608SOL    HW211403   4.210   1.368   9.845 -0.0584  0.0575  0.4238
 3609SOL     OW11404   7.666   8.491   9.425 -0.0427 -0.0626  0.7099
 3609SOL    HW111405   7.628   8.555   9.484  0.1923 -0.6711  1.5381
 3609SOL    HW211406   7.598   8.425   9.413 -0.0943  0.0661  0.2941
 3610SOL     OW11407   7.974   4.190   0.338  0.0292 -0.6443 -0.5887
 3610SOL    HW111408   7.911   4.257   0.367 -0.2042 -1.7216  1.5778
 3610SOL    HW211409   7.968   4.122   0.404  1.0388 -2.3518 -2.1810
 3611SOL     OW11410   8.578   6.620   7.151 -0.1482 -0.2828 -0.1857
 3611SOL    HW111411   8.508   6.555   7.144 -0.8090  0.4682 -0.6516
 3611SOL    HW211412   8.567   6.676   7.075 -0.5290  1.2975  0.9857
 3612SOL     OW11413   6.527   4.579   2.046 -0.2901 -0.1790  0.0067
 3612SOL    HW111414   6.521   4.486   2.067  2.0988 -0.2913  0.4230
 3612SOL    HW211415   6.507   4.623   2.129 -0.3352 -0.3533  0.0903
 3613SOL     OW11416   1.362   0.988   3.712  0.4801 -0.4448 -0.0994
 3613SOL    HW111417   1.310   1.026   3.783 -0.4973 -3.6013  1.0248
 3613SOL    HW211418   1.449   0.975   3.751  0.8949  0.7742 -0.5708
 3614SOL     OW11419   7.518   8.105   4.991 -0.1882  0.1310  0.5766
 3614SOL    HW111420   7.559   8.047   5.055  1.3669 -2.7707 -2.7784
 3614SOL    HW211421   7.573   8.098   4.913 -3.2369  1.6161 -1.8984
 3615SOL     OW11422   2.438   5.608   3.327 -0.1065 -0.4172  0.1759
 3615SOL    HW111423   2.477   5.679   3.377  0.0455 -1.3251  1.4106
 3615SOL    HW211424   2.505   5.582   3.264 -0.6386  1.3596 -1.2296
 3616SOL     OW11425   8.635   2.585   5.622  0.6572 -0.0620  0.0151
 3616SOL    HW111426   8.647   2.658   5.561 -3.7336  1.2364  0.3741
 3616SOL    HW211427   8.644   2.507   5.568  0.6446  0.9292 -1.4763
 3617SOL     OW11428   2.677   0.308   8.676  0.0717 -0.1025 -0.3210
 3617SOL    HW111429   2.641   0.370   8.740  1.2723 -1.3126  1.6548
 3617SOL    HW211430   2.691   0.228   8.727  2.6815 -0.6150 -1.6950
 3618SOL     OW11431   7.824   5.925   9.604 -0.0378  0.0702  0.3695
 3618SOL    HW111432   7.822   5.969   9.519  0.4671 -2.4432 -1.0704
 3618SOL    HW211433   7.906   5.953   9.644  0.4294  0.1600 -0.6368
 3619SOL     OW11434   4.928   4.984   7.361  0.5088  0.1914 -0.4179
 3619SOL    HW111435   4.901   5.069   7.395 -0.6279 -0.7042  1.0569
 3619SOL    HW211436   4.847   4.935   7.352  1.2868 -1.3987  0.6937
 3620SOL     OW11437   8.317   4.992   1.625 -0.2299  0.3740  0.0288
 3620SOL    HW111438   8.360   5.029   1.702 -0.5260 -0.5677  0.6441
 3620SOL    HW211439   8.348   4.902   1.620  1.3764  0.9336 -2.1060
 3621SOL     OW11440   7.717   4.556   9.564  0.3777 -0.3457  0.4652
 3621SOL    HW111441   7.737   4.606   9.485  0.9862  0.7826  1.2998
 3621SOL    HW211442   7.623   4.540   9.560  0.1242  1.1059  0.2961
 3622SOL     OW11443   2.733   2.793   2.032  0.0212  0.0106  0.1602
 3622SOL    HW111444   2.784   2.859   1.985 -0.6424  1.6133  1.6149
 3622SOL    HW211445   2.798   2.748   2.087  0.3636 -0.0994 -0.3272
 3623SOL     OW11446   6.614   3.763   8.415  0.1276  0.4223 -0.4141
 3623SOL    HW111447   6.560   3.731   8.487  3.0810 -1.1854  1.3211
 3623SOL    HW211448   6.572   3.731   8.336 -1.4579 -0.6995  0.8273
 3624SOL     OW11449   6.762   8.184   2.016 -0.0690  0.3146  0.2236
 3624SOL    HW111450   6.752   8.146   1.929  1.3432 -2.1299  1.0537
 3624SOL    HW211451   6.844   8.233   2.011  1.0325 -1.4175  0.6546
 3625SOL     OW11452   0.694   6.405   9.832 -0.7197 -0.6843 -0.2359
 3625SOL    HW111453   0.666   6.325   9.875 -0.3172 -0.6860  0.0233
 3625SOL    HW211454   0.787   6.413   9.852 -0.4426 -0.8650 -1.3843
 3626SOL     OW11455   3.466   2.119   7.839  0.3210  0.4105  0.2203
 3626SOL    HW111456   3.542   2.115   7.780 -1.0440  2.2187 -1.8368
 3626SOL    HW211457   3.396   2.075   7.790 -0.4795  0.6166  1.1636
 3627SOL     OW11458   2.769   1.448   2.397 -0.1083  0.0563 -0.0810
 3627SOL    HW111459   2.818   1.405   2.326  1.5288  1.9210 -0.1617
 3627SOL    HW211460   2.728   1.524   2.356 -0.7534  0.0823  0.5919
 3628SOL     OW11461   7.879   5.273   0.450  0.2022  0.4193 -0.1777
 3628SOL    HW111462   7.969   5.301   0.438  0.0650  0.6992 -0.6054
 3628SOL    HW211463   7.831   5.318   0.380  0.2460 -2.2660 -2.0801
 3629SOL     OW11464   4.971   7.835   9.826  0.4707  0.1987 -0.6477
 3629SOL    HW111465   4.974   7.844   9.731 -1.6977  2.3687 -0.5988
 3629SOL    HW211466   4.978   7.924   9.859  1.5941 -0.5337  1.3028
 3630SOL     OW11467   8.653   2.219   2.262 -0.1963  0.4858  0.3841
 3630SOL    HW111468   8.609   2.207   2.178 -0.1092 -1.0887  0.5306
 3630SOL    HW211469   8.692   2.133   2.282 -0.2148  0.8115  2.0236
 3631SOL     OW11470   7.438   0.745   4.267 -0.1665 -0.0998 -0.3575
 3631SOL    HW111471   7.377   0.749   4.340 -0.2692 -0.3286 -0.4282
 3631SOL    HW211472   7.524   0.744   4.307 -0.1495  1.4300 -0.2841
 3632SOL     OW11473   4.689   7.860   6.299 -0.1086  0.1379 -0.1506
 3632SOL    HW111474   4.713   7.944   6.339 -0.1056  0.4529 -0.7938
 3632SOL    HW211475   4.773   7.819   6.278 -0.1018  0.6781 -1.2520
 3633SOL     OW11476   3.090   2.713   5.987  0.2039  0.0720 -0.2774
 3633SOL    HW111477   3.146   2.685   6.060  0.2117 -0.2092 -0.3919
 3633SOL    HW211478   3.059   2.632   5.947  2.1792  0.1362 -2.1338
 3634SOL     OW11479   2.635   8.786   8.360 -0.4906 -0.4816 -0.0007
 3634SOL    HW111480   2.591   8.751   8.282  0.7672 -1.9032 -0.1186
 3634SOL    HW211481   2.658   8.708   8.411  0.5367  0.3078  0.7796
 3635SOL     OW11482   6.224   3.394   1.271 -0.5476  0.0818 -0.3199
 3635SOL    HW111483   6.187   3.361   1.353 -0.2242 -1.6213 -0.8300
 3635SOL    HW211484   6.187   3.483   1.262 -1.0592  0.0664  1.3459
 3636SOL     OW11485   3.391   3.430   6.983  0.3243  0.0524 -0.0960
 3636SOL    HW111486   3.329   3.406   7.053 -0.3923 -2.7132 -1.5369
 3636SOL    HW211487   3.452   3.491   7.025  0.0891 -1.6597  3.0449
 3637SOL     OW11488   8.532   3.890   3.738 -0.1292 -0.0300  0.0704
 3637SOL    HW111489   8.543   3.976   3.780  3.2752 -0.7015  0.8557
 3637SOL    HW211490   8.503   3.910   3.649  0.4135  1.9581  0.2844
 3638SOL     OW11491   3.464   9.041   5.187 -0.9928 -0.7203 -0.0698
 3638SOL    HW111492   3.471   8.946   5.202  3.5527 -0.9502 -2.1663
 3638SOL    HW211493   3.531   9.079   5.243 -1.4132  1.0517 -0.7207
 3639SOL     OW11494   0.453   2.104   3.059  0.2591 -0.8545 -0.1017
 3639SOL    HW111495   0.436   2.121   2.966  2.5108 -1.9364 -0.7826
 3639SOL    HW211496   0.465   2.192   3.096 -1.5654 -0.3544 -0.5931
 3640SOL     OW11497   5.263   6.782   1.919 -0.1249  0.7659  0.0121
 3640SOL    HW111498   5.315   6.862   1.910 -1.4747  1.7675  0.6931
 3640SOL    HW211499   5.252   6.772   2.013 -1.2259  0.6381 -0.1205
 3641SOL     OW11500   5.175   9.126   4.920  0.4141 -0.0672 -0.1084
 3641SOL    HW111501   5.187   9.060   4.989  0.0674  0.4842  0.4834
 3641SOL    HW211502   5.208   9.083   4.840 -0.4221 -1.2003  0.1357
 3642SOL     OW11503   0.367   3.273   7.038 -0.1173 -0.5691 -0.1186
 3642SOL    HW111504   0.437   3.337   7.054  0.3827 -1.2030  0.2913
 3642SOL    HW211505   0.372   3.256   6.944  1.4450 -1.8817  0.1449
 3643SOL     OW11506   5.787   8.304   1.232 -0.2568  0.0455  0.1615
 3643SOL    HW111507   5.871   8.271   1.263 -0.8041 -0.4674  1.1859
 3643SOL    HW211508   5.778   8.390   1.274  0.5532  0.9390 -1.4126
 3644SOL     OW11509   1.783   5.572   9.862  0.2701 -0.4401 -0.1359
 3644SOL    HW111510   1.731   5.543   9.936  0.3967 -0.2829  0.0162
 3644SOL    HW211511   1.830   5.494   9.833  0.1601 -0.5193 -0.1000
 3645SOL     OW11512   4.362   8.791   7.880 -0.0585  0.0529  0.6542
 3645SOL    HW111513   4.422   8.750   7.818 -2.3346  1.3393 -2.6389
 3645SOL    HW211514   4.285   8.735   7.880  0.4856 -0.9442  3.9420
 3646SOL     OW11515   0.743   3.431   7.746 -0.0152 -0.3440  0.0642
 3646SOL    HW111516   0.660   3.432   7.699  1.7397 -1.3202 -3.4306
 3646SOL    HW211517   0.729   3.371   7.819 -2.6920  0.5483  0.3747
 3647SOL     OW11518   9.661   7.635   4.715 -0.1186 -0.1748  0.0569
 3647SOL    HW111519   9.754   7.642   4.735  0.1379  0.3113 -1.2648
 3647SOL    HW211520   9.657   7.608   4.624 -1.2489  2.5621 -0.7912
 3648SOL     OW11521   7.431   4.551   3.084  0.3599  0.1508 -0.5446
 3648SOL    HW111522   7.394   4.636   3.061 -0.8577 -0.0602  0.5770
 3648SOL    HW211523   7.363   4.507   3.134  1.7370 -0.6764  0.6804
 3649SOL     OW11524   6.158   3.304   4.888  0.3641  0.0384 -0.2115
 3649SOL    HW111525   6.123   3.344   4.968  1.6057  2.1765 -0.6538
 3649SOL    HW211526   6.110   3.221   4.880 -1.4924  0.8546  1.4472
 3650SOL     OW11527   2.489   7.009   6.404 -0.0631 -0.2348 -0.0364
 3650SOL    HW111528   2.437   7.052   6.472  0.6982  2.2291 -0.8671
 3650SOL    HW211529   2.480   6.916   6.421 -1.9538  0.2223  1.8732
 3651SOL     OW11530   4.985   0.645   1.879  0.1479 -0.8425 -0.3113
 3651SOL    HW111531   5.032   0.684   1.953 -2.3259  0.6166  0.5971
 3651SOL    HW211532   5.008   0.700   1.804  1.0213 -1.0642 -0.2238
 3652SOL     OW11533   9.128   9.234   9.924 -0.6324 -0.3639 -0.0343
 3652SOL    HW111534   9.043   9.245   9.965  0.2503  0.2571  1.7276
 3652SOL    HW211535   9.148   9.320   9.887 -0.9625 -0.6400 -0.8751
 3653SOL     OW11536   6.814   3.959   4.156  0.4755  0.4361 -0.3185
 3653SOL    HW111537   6.732   3.967   4.107  0.1810  0.4608  0.1743
 3653SOL    HW211538   6.882   3.987   4.094 -0.0056  1.5598 -0.3615
 3654SOL     OW11539   2.670   8.396   6.534 -0.2482  0.1541  0.0430
 3654SOL    HW111540   2.602   8.331   6.551  0.9429 -1.1064  0.1592
 3654SOL    HW211541   2.689   8.386   6.440  0.7021 -0.4730  0.2846
 3655SOL     OW11542   9.890   9.562   2.051  0.2011  0.2538 -0.3788
 3655SOL    HW111543   9.805   9.522   2.036 -0.4373  1.5750 -0.3665
 3655SOL    HW211544   9.891   9.640   1.997  1.1609  0.5953  0.0991
 3656SOL     OW11545   2.759   7.497   2.789  1.0368 -0.3101 -0.5143
 3656SOL    HW111546   2.850   7.467   2.783  1.3824  0.8436 -1.3196
 3656SOL    HW211547   2.758   7.582   2.745 -0.6984 -0.8687 -1.6874
 3657SOL     OW11548   3.457   9.939   9.682 -0.0872 -0.2187  0.0636
 3657SOL    HW111549   3.408  10.021   9.674 -0.8240 -0.3899  2.0705
 3657SOL    HW211550   3.547   9.966   9.700 -0.0325  0.1234 -0.6841
 3658SOL     OW11551   8.112   5.179   4.608 -0.4447 -0.5541  0.4107
 3658SOL    HW111552   8.096   5.272   4.619 -0.2753 -0.1907 -1.9473
 3658SOL    HW211553   8.207   5.169   4.621 -0.4293 -0.3643  0.4398
 3659SOL     OW11554   4.134   1.171   6.580 -0.3324 -0.8468  0.0058
 3659SOL    HW111555   4.155   1.127   6.497  0.1645 -1.7423  0.5937
 3659SOL    HW211556   4.213   1.163   6.632 -0.4223  0.2885  0.3469
 3660SOL     OW11557   6.065   2.401   9.713 -0.1475  0.2270 -0.3475
 3660SOL    HW111558   6.079   2.349   9.633 -1.4563 -0.6451 -0.0312
 3660SOL    HW211559   6.146   2.451   9.722  0.5238 -0.5710 -1.5491
 3661SOL     OW11560   0.532   3.092   2.644  0.6830 -0.2645 -0.0317
 3661SOL    HW111561   0.440   3.072   2.630  0.3934  0.0783  1.2464
 3661SOL    HW211562   0.553   3.156   2.576 -0.3894  0.6443  0.4681
 3662SOL     OW11563   7.114   5.896   5.704  0.5096 -0.6638  0.0393
 3662SOL    HW111564   7.157   5.816   5.673  0.5474 -0.9954  0.9253
 3662SOL    HW211565   7.049   5.865   5.768  0.4167  0.0007  0.2680
 3663SOL     OW11566   6.335   4.414   2.791  0.2196  0.6920 -0.9705
 3663SOL    HW111567   6.261   4.373   2.746 -0.0363 -2.0925  1.6403
 3663SOL    HW211568   6.401   4.428   2.723 -0.5753 -2.1501 -2.4710
 3664SOL     OW11569   9.697   4.264   3.337 -0.0158  0.8010  0.2570
 3664SOL    HW111570   9.635   4.194   3.357  1.7885 -0.5682  1.4163
 3664SOL    HW211571   9.719   4.303   3.421 -0.0256  1.9417 -0.2415
 3665SOL     OW11572   2.220   9.402   2.173 -0.2899  0.0729 -0.1725
 3665SOL    HW111573   2.305   9.430   2.208 -0.6250  0.3818  0.4145
 3665SOL    HW211574   2.219   9.436   2.083  1.1513 -1.9024 -1.0192
 3666SOL     OW11575   1.774   1.096   0.778 -0.4679  0.2359  0.3114
 3666SOL    HW111576   1.763   1.104   0.872 -1.7646 -0.7458  0.2640
 3666SOL    HW211577   1.849   1.152   0.758  0.1455  0.0689  1.9870
 3667SOL     OW11578   6.366   3.826   6.615  0.3409  0.2857 -0.7779
 3667SOL    HW111579   6.355   3.763   6.544 -1.5256 -0.6892  0.2935
 3667SOL    HW211580   6.289   3.881   6.611 -0.4755 -0.5984  1.1991
 3668SOL     OW11581   4.440   8.360   5.575 -0.1125 -0.3629  0.0421
 3668SOL    HW111582   4.472   8.401   5.656 -0.7175  0.2445 -0.0155
 3668SOL    HW211583   4.429   8.433   5.514 -0.8257 -0.6567 -0.1943
 3669SOL     OW11584   1.963   6.811   5.585 -0.3371  0.0361 -0.2838
 3669SOL    HW111585   1.948   6.891   5.636 -0.4876 -0.0928 -0.1295
 3669SOL    HW211586   2.056   6.816   5.560 -0.3355  0.2381 -0.2388
 3670SOL     OW11587   7.835   9.966   7.489 -0.3203 -0.2741 -0.0339
 3670SOL    HW111588   7.752  10.014   7.492 -0.3631 -0.0670 -2.6074
 3670SOL    HW211589   7.825   9.897   7.555 -2.6143 -0.3890 -0.4259
 3671SOL     OW11590   6.220   2.473   1.866  0.2269 -0.4122  0.3305
 3671SOL    HW111591   6.161   2.544   1.890  0.3027 -0.4802  0.7352
 3671SOL    HW211592   6.293   2.481   1.928  0.7841 -0.1525 -0.3519
 3672SOL     OW11593   8.288   4.687   5.274 -0.0238  0.0165 -0.3074
 3672SOL    HW111594   8.252   4.611   5.321 -1.6367 -0.5637 -2.3433
 3672SOL    HW211595   8.212   4.740   5.253  0.8375  1.0461 -0.9107
 3673SOL     OW11596   4.455   0.698   7.859 -0.1324  0.1981  0.4430
 3673SOL    HW111597   4.518   0.626   7.866 -0.2839  0.0125 -0.0701
 3673SOL    HW211598   4.482   0.760   7.927  1.4198  0.7258 -0.5811
 3674SOL     OW11599   0.191   9.170   6.877 -0.2248 -0.4854  0.7822
 3674SOL    HW111600   0.223   9.155   6.789  0.6451  0.5814  0.9067
 3674SOL    HW211601   0.120   9.106   6.887 -0.5010 -0.4613 -0.7608
 3675SOL     OW11602   8.550   2.439   0.737 -0.2857 -0.2699  0.4520
 3675SOL    HW111603   8.597   2.516   0.768 -0.8249 -0.3748  1.6086
 3675SOL    HW211604   8.610   2.366   0.752 -0.6970 -0.3764  1.7210
 3676SOL     OW11605   3.898   5.542   4.219 -0.0087  0.6111  0.3187
 3676SOL    HW111606   3.883   5.574   4.130 -0.7746 -0.1087  0.1687
 3676SOL    HW211607   3.883   5.448   4.212  1.2606  0.3415  0.9350
 3677SOL     OW11608   6.700   4.837   4.074  0.4765 -0.4428 -0.4152
 3677SOL    HW111609   6.700   4.805   4.164  1.3297  1.9450  0.5345
 3677SOL    HW211610   6.732   4.927   4.082 -0.2772  0.1147 -3.0233
 3678SOL     OW11611   1.804   3.728   0.711  0.9903  0.0162 -0.3661
 3678SOL    HW111612   1.733   3.787   0.688  1.0384  0.3954  0.4118
 3678SOL    HW211613   1.840   3.699   0.627  2.4441  2.8584 -0.8624
 3679SOL     OW11614   2.653   7.522   0.332 -0.2203 -0.0543  0.0439
 3679SOL    HW111615   2.742   7.545   0.359  0.4934  0.5187 -2.5773
 3679SOL    HW211616   2.627   7.593   0.273 -1.3384 -1.5929 -1.3920
 3680SOL     OW11617   0.159   0.521   2.909  0.1384 -0.4169  0.2644
 3680SOL    HW111618   0.232   0.466   2.882  1.2366  1.4208 -0.7402
 3680SOL    HW211619   0.096   0.514   2.837  0.5529  0.0942 -0.1560
 3681SOL     OW11620   9.027   0.122   9.952  0.2307  0.3092 -0.0979
 3681SOL    HW111621   9.076   0.086   9.878 -0.2499  1.2919 -0.9201
 3681SOL    HW211622   8.938   0.086   9.941  0.5445 -0.8576  0.9529
 3682SOL     OW11623   7.954   5.831   6.600 -0.1369  0.3619  0.1788
 3682SOL    HW111624   7.971   5.827   6.506  0.2021 -0.7715  0.2753
 3682SOL    HW211625   7.961   5.924   6.622 -0.5471  0.6792 -0.9684
 3683SOL     OW11626   7.851   7.814   8.572 -0.0627 -0.2729 -0.2721
 3683SOL    HW111627   7.867   7.888   8.513 -0.7287  0.2910  0.2227
 3683SOL    HW211628   7.920   7.821   8.638 -0.6215  0.4571  0.2652
 3684SOL     OW11629   7.534   0.392   8.521  0.2731  0.2446 -0.0704
 3684SOL    HW111630   7.450   0.432   8.544  1.3828  1.6712  1.8055
 3684SOL    HW211631   7.565   0.354   8.603  0.6994 -1.8468 -1.1241
 3685SOL     OW11632   4.057   7.295   7.115 -0.9074 -0.0116  0.2745
 3685SOL    HW111633   4.085   7.302   7.024  1.6436  0.6853  1.0119
 3685SOL    HW211634   4.063   7.385   7.149 -0.1319 -0.4898  1.5128
 3686SOL     OW11635   0.711   9.918   0.000 -0.3005  0.7026  0.0216
 3686SOL    HW111636   0.658   9.843   0.026 -0.8293  0.5405 -1.4515
 3686SOL    HW211637   0.681   9.989   0.057 -2.8558  0.8751 -1.3834
 3687SOL     OW11638   3.570   3.554   6.728  0.3772  0.1226  0.8442
 3687SOL    HW111639   3.577   3.561   6.633 -1.0581  0.6405  0.7522
 3687SOL    HW211640   3.533   3.638   6.756  0.7122 -0.0517  1.8486
 3688SOL     OW11641   9.584   4.517   4.048  0.0896 -0.2514  0.5425
 3688SOL    HW111642   9.620   4.542   4.133  0.3026  0.7295  0.1736
 3688SOL    HW211643   9.521   4.586   4.027  0.1859 -0.3754 -0.1823
 3689SOL     OW11644   6.955   9.978   4.139  0.2467 -0.2703  0.0441
 3689SOL    HW111645   6.861   9.970   4.155 -0.0530 -0.2846 -1.5546
 3689SOL    HW211646   6.995   9.959   4.224 -1.0453 -3.7412  0.0580
 3690SOL     OW11647   4.306   3.770   8.960 -0.2738  0.3834 -0.8781
 3690SOL    HW111648   4.218   3.769   8.923 -0.5364  1.2495 -0.3185
 3690SOL    HW211649   4.297   3.821   9.041  0.7765  0.6359 -0.9082
 3691SOL     OW11650   6.487   8.043   2.648  0.3450  0.2481 -0.1852
 3691SOL    HW111651   6.426   8.090   2.705 -0.8524  1.2375 -2.1729
 3691SOL    HW211652   6.511   8.107   2.580  1.5488 -0.9400 -0.9338
 3692SOL     OW11653   5.178   3.278   7.628  0.3440  0.2172  0.1097
 3692SOL    HW111654   5.148   3.369   7.618 -1.5094 -0.4103 -0.5589
 3692SOL    HW211655   5.265   3.277   7.590  0.5535  1.7878  0.4639
 3693SOL     OW11656   5.872   0.562   1.313 -0.0589  0.9573 -0.4176
 3693SOL    HW111657   5.796   0.619   1.297 -1.1997 -0.2098  0.6334
 3693SOL    HW211658   5.845   0.505   1.385  2.5036  1.7309  1.3193
 3694SOL     OW11659   3.915   2.045   7.799 -0.7732  0.1190  0.3436
 3694SOL    HW111660   3.944   2.079   7.883  0.8855  0.1645 -0.2223
 3694SOL    HW211661   3.877   1.959   7.820 -2.3188  1.0084  1.3821
 3695SOL     OW11662   8.634   0.680   8.333 -0.3268 -0.0968 -0.3007
 3695SOL    HW111663   8.698   0.706   8.399  0.1404 -1.5284 -0.1372
 3695SOL    HW211664   8.569   0.750   8.333 -0.2255  0.0617  1.5512
 3696SOL     OW11665   4.592   3.928   0.775  0.2467 -0.1906  0.3213
 3696SOL    HW111666   4.558   3.858   0.718  1.0489  0.1986 -0.6688
 3696SOL    HW211667   4.662   3.886   0.825  0.7788 -0.0903 -0.3271
 3697SOL     OW11668   7.085   5.449   1.685  0.0381 -0.6745 -0.7641
 3697SOL    HW111669   7.125   5.503   1.754 -0.5891  1.5209 -2.0239
 3697SOL    HW211670   7.158   5.398   1.649  0.9073  0.2353 -0.3371
 3698SOL     OW11671   7.149   4.347   1.498 -0.4453 -0.0328  0.3075
 3698SOL    HW111672   7.204   4.330   1.575 -3.3637 -0.1299  2.5656
 3698SOL    HW211673   7.179   4.284   1.433  2.2009  0.0869  1.2594
 3699SOL     OW11674   5.829   0.236   3.132 -0.0827 -0.0156 -0.2525
 3699SOL    HW111675   5.896   0.259   3.068  0.0675  0.7466  0.1667
 3699SOL    HW211676   5.754   0.208   3.079  0.3980 -0.4297 -0.7325
 3700SOL     OW11677   3.425   5.615   5.479 -0.9118 -0.3808 -0.3849
 3700SOL    HW111678   3.422   5.669   5.400 -0.8732 -1.4711 -1.1428
 3700SOL    HW211679   3.393   5.673   5.548 -0.7985  0.6376 -1.1573
 3701SOL     OW11680   5.694   8.753   8.939 -0.2947  0.6526  0.1090
 3701SOL    HW111681   5.754   8.701   8.886 -0.7133  0.7387 -0.4535
 3701SOL    HW211682   5.727   8.743   9.029  0.1516  0.1427 -0.1049
 3702SOL     OW11683   3.282   1.048   6.043 -0.5006  0.4910  0.2720
 3702SOL    HW111684   3.339   1.016   6.113 -0.1041  0.2577 -0.1603
 3702SOL    HW211685   3.327   1.125   6.008 -1.2732  1.3343  1.0607
 3703SOL     OW11686   6.195   5.479   1.484  0.5403  0.3306 -0.2741
 3703SOL    HW111687   6.232   5.567   1.486  1.2765  0.0554 -1.1954
 3703SOL    HW211688   6.102   5.491   1.505  0.7881  1.2255  0.3533
 3704SOL     OW11689   6.132   8.041   1.907  0.2233 -0.0701 -0.3684
 3704SOL    HW111690   6.100   8.031   1.817 -0.9464  1.9952 -0.2460
 3704SOL    HW211691   6.227   8.040   1.899  0.1644 -2.1384 -1.3040
 3705SOL     OW11692   5.721   8.316   5.416 -0.3835 -0.3498  0.3579
 3705SOL    HW111693   5.754   8.318   5.326 -2.9387 -0.1901 -0.6614
 3705SOL    HW211694   5.767   8.388   5.459  0.8598 -0.3880 -0.8194
 3706SOL     OW11695   7.619   8.678   9.060 -0.3919 -0.1055  0.1153
 3706SOL    HW111696   7.653   8.742   9.124 -0.9287 -0.8711  1.1908
 3706SOL    HW211697   7.568   8.616   9.113 -0.5290 -0.9797 -1.0164
 3707SOL     OW11698   5.517   8.873   0.048 -0.4212 -0.2657 -0.1173
 3707SOL    HW111699   5.497   8.782   0.068  2.4927 -1.3497 -1.5133
 3707SOL    HW211700   5.582   8.899   0.113  0.8957 -0.1858 -1.4134
 3708SOL     OW11701   6.960   2.410   4.216 -0.1637 -0.2212 -0.5719
 3708SOL    HW111702   7.004   2.494   4.225  0.2918 -0.4698 -0.4408
 3708SOL    HW211703   7.031   2.347   4.201 -0.5020 -0.5743 -0.7121
 3709SOL     OW11704   6.524   1.060   5.343  0.4001 -0.2217  0.1147
 3709SOL    HW111705   6.465   1.038   5.270  0.4105  0.8220 -0.2224
 3709SOL    HW211706   6.472   1.042   5.422  0.7554 -2.4108 -0.0808
 3710SOL     OW11707   5.106   8.504   6.075  0.3555 -0.2763  0.4134
 3710SOL    HW111708   5.093   8.594   6.105 -1.6145 -0.6210  0.7580
 3710SOL    HW211709   5.188   8.506   6.026 -1.0249  2.3531 -2.0758
 3711SOL     OW11710   5.036   5.748   5.229  0.1361  0.6728 -0.1218
 3711SOL    HW111711   5.047   5.762   5.323  0.1028  2.9732 -0.3816
 3711SOL    HW211712   4.944   5.768   5.213 -0.2126 -1.0603 -0.4840
 3712SOL     OW11713   3.317   2.618   7.834  0.0856  0.0930 -0.5252
 3712SOL    HW111714   3.342   2.527   7.849  0.1112  0.1181 -0.4131
 3712SOL    HW211715   3.330   2.632   7.740 -2.0632 -0.6756 -0.9864
 3713SOL     OW11716   0.275   7.047   3.266 -0.2020 -0.0940  0.6068
 3713SOL    HW111717   0.368   7.066   3.255  0.5652 -2.7988  1.6428
 3713SOL    HW211718   0.255   7.075   3.355 -0.6141  1.1403  0.1510
 3714SOL     OW11719   2.186   1.653   1.048 -0.5449  0.5454 -0.7495
 3714SOL    HW111720   2.108   1.618   1.091 -1.4561  2.2123 -0.9580
 3714SOL    HW211721   2.179   1.623   0.958 -0.4946 -0.0241 -0.5649
 3715SOL     OW11722   0.410   9.576   2.107 -0.9221  0.1689 -0.0793
 3715SOL    HW111723   0.324   9.542   2.132 -1.0271 -1.2038 -2.0562
 3715SOL    HW211724   0.396   9.669   2.094 -1.4981  0.4300  1.9681
 3716SOL     OW11725   8.495   8.311   6.662  0.2652 -0.3436  0.0306
 3716SOL    HW111726   8.407   8.283   6.636  0.8387 -2.3164  0.0840
 3716SOL    HW211727   8.540   8.327   6.579  0.0513  0.0789 -0.0077
 3717SOL     OW11728   0.081   2.205   1.646 -0.4843 -0.6815 -0.1518
 3717SOL    HW111729   0.157   2.263   1.654 -0.6907 -0.2694 -1.0683
 3717SOL    HW211730   0.059   2.182   1.736  1.1154 -1.3296  0.1148
 3718SOL     OW11731   2.879   3.795   9.167  0.5107  0.3518  0.2760
 3718SOL    HW111732   2.899   3.742   9.090  1.6539  0.0649  0.7612
 3718SOL    HW211733   2.946   3.864   9.167  0.3775  0.4820  0.8953
 3719SOL     OW11734   9.756   8.506   1.803 -0.0635  0.4748 -0.3709
 3719SOL    HW111735   9.760   8.591   1.846 -1.2833  0.3272  0.0686
 3719SOL    HW211736   9.795   8.521   1.717 -0.5857  1.5751 -0.4388
 3720SOL     OW11737   7.924   4.088   8.451  0.3707 -0.5977 -0.2838
 3720SOL    HW111738   7.850   4.038   8.485  0.4890 -0.6929 -0.1675
 3720SOL    HW211739   7.979   4.105   8.527  0.3848 -0.3808 -0.3412
 3721SOL     OW11740   7.810   5.096   0.645  0.1901  0.3100 -0.8503
 3721SOL    HW111741   7.883   5.126   0.700  0.5488 -1.4917 -0.2603
 3721SOL    HW211742   7.817   5.148   0.565  1.6707  0.7044 -0.4998
 3722SOL     OW11743   7.886   9.379   7.891 -0.0537  0.0018 -0.4103
 3722SOL    HW111744   7.958   9.373   7.955 -1.7356  0.7864  1.6901
 3722SOL    HW211745   7.915   9.326   7.817  2.4119 -0.2039  0.6081
 3723SOL     OW11746   9.679   1.207   2.766  0.5511  0.4114  0.4528
 3723SOL    HW111747   9.679   1.273   2.696  0.0000 -0.6014 -0.5431
 3723SOL    HW211748   9.736   1.138   2.733  1.6388  0.6356  1.7681
 3724SOL     OW11749   8.118   1.298   5.874 -0.2992 -0.1733  0.1562
 3724SOL    HW111750   8.168   1.228   5.832 -0.7384  1.3650 -3.2434
 3724SOL    HW211751   8.166   1.378   5.855 -2.2778  0.9790 -0.3370
 3725SOL     OW11752   1.876   9.831   9.429  0.6509 -0.0457 -0.1553
 3725SOL    HW111753   1.841   9.898   9.369 -1.4246  0.6326  1.6563
 3725SOL    HW211754   1.801   9.774   9.447  2.1201 -2.3178 -0.8366
 3726SOL     OW11755   0.344   2.802   0.657 -0.3000  0.4856 -0.4488
 3726SOL    HW111756   0.375   2.851   0.734 -0.3996 -0.5292  0.2564
 3726SOL    HW211757   0.422   2.755   0.627 -0.6290 -0.3802  0.0206
 3727SOL     OW11758   0.952   8.915   9.099  0.0896  0.8708  0.1558
 3727SOL    HW111759   0.961   8.866   9.181 -1.1976 -0.3139 -0.3749
 3727SOL    HW211760   1.037   8.959   9.089  1.4437 -1.4662  0.5392
 3728SOL     OW11761   1.264   3.248   2.250 -0.2213  0.2908  0.2030
 3728SOL    HW111762   1.351   3.283   2.269  1.0817 -2.2183 -0.7078
 3728SOL    HW211763   1.241   3.287   2.166  1.0197 -0.5931 -0.5912
 3729SOL     OW11764   5.919   1.176   7.602 -0.4845 -0.1805 -0.5196
 3729SOL    HW111765   5.948   1.262   7.630  0.0068 -0.2326 -0.8554
 3729SOL    HW211766   5.835   1.192   7.559 -0.1958  0.1916 -0.9531
 3730SOL     OW11767   3.775   7.437   9.014 -0.4509 -0.1095  0.1875
 3730SOL    HW111768   3.694   7.463   8.970  1.8416 -0.5070 -4.8916
 3730SOL    HW211769   3.774   7.341   9.010  0.1180 -0.1265  0.4300
 3731SOL     OW11770   8.994   4.627   8.577 -0.1793 -0.1948 -0.2484
 3731SOL    HW111771   8.961   4.555   8.631 -0.2985 -0.0760 -0.1651
 3731SOL    HW211772   8.929   4.638   8.508 -1.8281  1.9535  1.5244
 3732SOL     OW11773   2.468   1.696   1.019 -0.0821 -0.4732 -0.9216
 3732SOL    HW111774   2.375   1.684   1.036  0.2016 -1.6797 -0.0948
 3732SOL    HW211775   2.488   1.633   0.950  0.1120 -0.1897 -1.1261
 3733SOL     OW11776   4.801   5.817   5.949 -0.5086 -0.3168 -0.0547
 3733SOL    HW111777   4.750   5.747   5.989  0.9116  0.0057  2.5728
 3733SOL    HW211778   4.790   5.892   6.008 -0.0784  0.9579 -1.5111
 3734SOL     OW11779   5.082   0.667   3.627 -0.3537 -0.7757 -0.1222
 3734SOL    HW111780   5.071   0.760   3.606  0.5565 -0.6123  0.0904
 3734SOL    HW211781   4.996   0.640   3.659 -0.4171  0.2085  0.6077
 3735SOL     OW11782   6.978   8.396   2.000  0.4074  0.2258  0.5704
 3735SOL    HW111783   6.921   8.452   1.947  0.4154 -0.5025 -0.2363
 3735SOL    HW211784   6.956   8.418   2.090  0.1598  1.2639  0.2671
 3736SOL     OW11785   0.043   9.449   8.881  0.4070 -0.3030 -0.3404
 3736SOL    HW111786  -0.027   9.384   8.873  0.3090 -0.3459  0.7639
 3736SOL    HW211787   0.014   9.522   8.826  0.2319 -0.9367 -1.1098
 3737SOL     OW11788   7.451   2.855   0.985 -0.3369 -0.1640 -0.0358
 3737SOL    HW111789   7.416   2.803   0.913 -0.8978  0.2597 -0.0847
 3737SOL    HW211790   7.409   2.819   1.063  1.6587 -1.8365  0.3438
 3738SOL     OW11791   6.429   5.758   4.788  0.3686 -0.0342  0.4197
 3738SOL    HW111792   6.508   5.803   4.760 -0.1129  1.0733  0.7709
 3738SOL    HW211793   6.456   5.708   4.865  0.9275 -0.4048 -0.0109
 3739SOL     OW11794   3.975   5.724   3.095  0.8043  0.0382  0.7341
 3739SOL    HW111795   3.965   5.760   3.183 -3.3657  0.7814  0.1885
 3739SOL    HW211796   4.007   5.797   3.043  1.6199  0.0995  1.3082
 3740SOL     OW11797   0.477   5.744   9.436  0.0766 -0.1987 -0.8464
 3740SOL    HW111798   0.564   5.722   9.402  0.9773  0.9381  0.5655
 3740SOL    HW211799   0.451   5.822   9.387  0.3773  0.1182 -0.5157
 3741SOL     OW11800   3.244   4.510   6.765  0.0949  0.3722  0.1067
 3741SOL    HW111801   3.238   4.424   6.807 -0.7900  0.3840  0.0128
 3741SOL    HW211802   3.187   4.566   6.817  0.7666  0.9475  0.2458
 3742SOL     OW11803   9.343   8.930   0.150 -0.4302 -0.3657 -0.1465
 3742SOL    HW111804   9.257   8.911   0.112 -0.2243 -1.8234  0.0540
 3742SOL    HW211805   9.327   8.934   0.244 -0.0641 -2.1646  0.0289
 3743SOL     OW11806   0.219   5.207   6.787 -0.1270  0.4378 -0.4003
 3743SOL    HW111807   0.307   5.175   6.804  0.2340  1.0599 -1.0270
 3743SOL    HW211808   0.161   5.138   6.818  0.6176 -1.3243 -2.6720
 3744SOL     OW11809   2.496   5.207   4.627  0.0087  0.2377 -0.0542
 3744SOL    HW111810   2.486   5.150   4.551  1.3686 -1.7076  1.1070
 3744SOL    HW211811   2.587   5.234   4.625  0.0061  0.3351  0.7583
 3745SOL     OW11812   9.245   0.303   0.915 -0.1231  0.4592 -0.1401
 3745SOL    HW111813   9.245   0.388   0.872  1.1254  0.2197 -0.6608
 3745SOL    HW211814   9.246   0.322   1.008  1.5842  1.0741 -0.2410
 3746SOL     OW11815   8.799   7.713   5.651  0.3375  0.1567  0.7833
 3746SOL    HW111816   8.843   7.769   5.716  1.4102 -0.4960  0.6350
 3746SOL    HW211817   8.856   7.637   5.642 -1.6036 -1.5393  1.7817
 3747SOL     OW11818   7.069   1.909   4.720 -0.2098  0.1891 -0.3859
 3747SOL    HW111819   7.006   1.911   4.792 -0.4213 -2.1295 -0.4234
 3747SOL    HW211820   7.025   1.861   4.650 -0.0283  2.4448 -2.1766
 3748SOL     OW11821   8.414   5.082   6.671  0.3384 -0.1883  0.6951
 3748SOL    HW111822   8.491   5.027   6.657  0.3211 -0.6675  2.2385
 3748SOL    HW211823   8.404   5.132   6.590  1.3971 -1.1848 -0.0793
 3749SOL     OW11824   4.495   1.621   5.245 -0.3772 -0.2081  0.4131
 3749SOL    HW111825   4.572   1.582   5.286 -0.3017  0.0854  0.5506
 3749SOL    HW211826   4.516   1.625   5.152  0.5016  1.5306  0.6632
 3750SOL     OW11827   7.643   1.228  -0.004  0.0572  0.4207  0.6123
 3750SOL    HW111828   7.567   1.228   0.053  0.1108  0.0664  0.6911
 3750SOL    HW211829   7.718   1.226   0.055  0.1119 -2.5310  0.6036
 3751SOL     OW11830   0.238   7.826   8.448  0.6792  0.1574  0.0802
 3751SOL    HW111831   0.281   7.745   8.477 -1.4798 -1.1623 -0.1699
 3751SOL    HW211832   0.239   7.820   8.352 -0.6197 -0.2523  0.0725
 3752SOL     OW11833   2.113   8.574   7.805  0.3474  0.7177  0.0740
 3752SOL    HW111834   2.145   8.656   7.842 -0.3375  0.8825  0.3183
 3752SOL    HW211835   2.110   8.514   7.879 -2.9257  1.6041  0.8154
 3753SOL     OW11836   7.870   8.734   9.718  0.6729 -0.0916 -0.4101
 3753SOL    HW111837   7.905   8.738   9.628 -1.5319  2.7590 -1.2893
 3753SOL    HW211838   7.948   8.728   9.773  2.1151 -2.1049 -2.4325
 3754SOL     OW11839   4.536   5.230   4.386  0.0792 -0.1834 -0.0165
 3754SOL    HW111840   4.537   5.196   4.475 -1.1141 -3.2306 -1.0281
 3754SOL    HW211841   4.443   5.240   4.365  0.1446 -2.2330 -1.7282
 3755SOL     OW11842   5.634   4.652   1.983 -0.1932 -0.1845  0.5534
 3755SOL    HW111843   5.695   4.716   2.019 -0.8013  0.5446  0.3267
 3755SOL    HW211844   5.548   4.695   1.988 -0.2947  0.0689 -1.9227
 3756SOL     OW11845   8.642   0.040   8.427 -0.4022 -0.4904 -0.0368
 3756SOL    HW111846   8.721   0.013   8.476 -0.0913 -0.1251 -0.3311
 3756SOL    HW211847   8.674   0.055   8.338 -0.7061  0.1994 -0.0269
 3757SOL     OW11848   0.293   0.625   1.180  0.2539  0.0293  0.1527
 3757SOL    HW111849   0.215   0.678   1.160  0.4339  1.0439  1.9113
 3757SOL    HW211850   0.283   0.604   1.272  1.3828 -1.0391  0.0414
 3758SOL     OW11851   9.687   3.737   1.072 -0.5808 -0.1124  0.2780
 3758SOL    HW111852   9.676   3.685   1.152 -2.9110  0.0479  0.1098
 3758SOL    HW211853   9.730   3.817   1.101 -1.2151 -0.1398  1.3367
 3759SOL     OW11854   1.152   8.832   0.879  0.1769  0.3026  0.4253
 3759SOL    HW111855   1.137   8.887   0.956  1.3172  0.7227  0.3638
 3759SOL    HW211856   1.246   8.836   0.865  0.4182 -2.2702  0.8633
 3760SOL     OW11857   2.804   8.966   9.648  0.7295  0.1327 -0.2307
 3760SOL    HW111858   2.859   9.032   9.607  0.6145  0.4203  0.0711
 3760SOL    HW211859   2.842   8.953   9.735 -0.5643  1.4719  0.5777
 3761SOL     OW11860   7.635   3.563   1.232  0.5539  0.0713 -0.1532
 3761SOL    HW111861   7.590   3.647   1.243  0.1551  0.1370 -1.9544
 3761SOL    HW211862   7.611   3.535   1.144  1.1531 -1.6664  0.1986
 3762SOL     OW11863   4.653   1.664   0.933 -0.2536  0.0863  0.0476
 3762SOL    HW111864   4.594   1.722   0.982  0.3729 -0.0465  0.9947
 3762SOL    HW211865   4.629   1.677   0.841  0.7945  2.9709  0.0749
 3763SOL     OW11866   3.009   3.452   6.637  0.1637 -0.6725 -0.1598
 3763SOL    HW111867   3.093   3.475   6.678 -0.7589 -1.3869  2.3158
 3763SOL    HW211868   2.990   3.526   6.579  2.4236 -0.4525 -0.7510
 3764SOL     OW11869   8.353   1.492   7.031 -0.7288  0.3783 -0.2511
 3764SOL    HW111870   8.409   1.438   6.974 -0.3155  0.5463 -0.0058
 3764SOL    HW211871   8.402   1.498   7.113 -2.1110 -1.3579  0.7641
 3765SOL     OW11872   0.944   2.172   7.804  0.3651  0.1088 -0.3919
 3765SOL    HW111873   0.863   2.146   7.762 -0.5824 -0.8919  1.9025
 3765SOL    HW211874   0.930   2.264   7.827  0.2166  0.1626 -0.6865
 3766SOL     OW11875   9.606   8.439   6.032  0.3053 -0.5395  0.0375
 3766SOL    HW111876   9.604   8.349   6.064 -0.8748 -0.6972 -0.4222
 3766SOL    HW211877   9.628   8.430   5.939 -0.3047 -0.4059 -0.1260
 3767SOL     OW11878   1.317   8.316   9.888  0.2216  0.3075  0.5272
 3767SOL    HW111879   1.365   8.237   9.911  0.9612  0.1760 -1.3378
 3767SOL    HW211880   1.241   8.285   9.839 -0.0131  0.7018  0.6365
 3768SOL     OW11881   0.704   3.542   2.512 -0.5500 -0.2687  0.3543
 3768SOL    HW111882   0.626   3.510   2.466 -0.3134 -0.1310 -0.1466
 3768SOL    HW211883   0.716   3.481   2.584  0.6381 -2.1110 -1.3171
 3769SOL     OW11884   1.822   1.866   5.571  0.2027  0.0791  0.4603
 3769SOL    HW111885   1.851   1.956   5.556  2.7159 -0.7554 -0.1537
 3769SOL    HW211886   1.727   1.869   5.559  0.2743  2.5293 -0.0298
 3770SOL     OW11887   8.153   9.349   0.164  0.8805  0.4210 -0.1884
 3770SOL    HW111888   8.192   9.308   0.087 -1.0886  1.2449 -1.7158
 3770SOL    HW211889   8.166   9.443   0.150 -0.7657  0.6669 -0.3055
 3771SOL     OW11890   9.104   9.057   4.827 -0.0686 -0.0239  0.5808
 3771SOL    HW111891   9.196   9.029   4.824 -0.0800 -0.0467  0.4369
 3771SOL    HW211892   9.109   9.152   4.829 -0.0560 -0.0013 -0.1771
 3772SOL     OW11893   0.412   9.865   4.539  0.1132 -0.4928 -0.0995
 3772SOL    HW111894   0.437   9.855   4.448 -1.2858 -2.2405 -0.3437
 3772SOL    HW211895   0.349   9.938   4.539 -0.5356 -1.0428 -0.6863
 3773SOL     OW11896   6.159   7.373   9.829  0.1886 -0.0497  0.5613
 3773SOL    HW111897   6.089   7.428   9.794  0.2007 -1.3705 -1.7295
 3773SOL    HW211898   6.239   7.421   9.809  0.0823  0.2638  0.8738
 3774SOL     OW11899   1.189   5.709   4.361 -0.0348 -0.0876  0.0059
 3774SOL    HW111900   1.258   5.770   4.387  0.2585 -0.0842 -0.7710
 3774SOL    HW211901   1.108   5.750   4.391  0.3114 -0.3006  1.3400
 3775SOL     OW11902   2.724   7.388   2.384  0.2228 -0.3635  0.0848
 3775SOL    HW111903   2.775   7.466   2.403  0.1325  0.5983 -3.1022
 3775SOL    HW211904   2.777   7.316   2.418  1.2197  0.9333  1.3878
 3776SOL     OW11905   8.055   4.595   2.039 -0.1424 -0.2864  0.2328
 3776SOL    HW111906   8.127   4.572   1.981 -0.1544 -0.6044  0.3383
 3776SOL    HW211907   7.996   4.519   2.035  0.3102 -0.7328  1.3631
 3777SOL     OW11908   2.893   4.028   3.074 -0.3282  0.0009  0.1837
 3777SOL    HW111909   2.912   4.004   3.165 -0.0426 -2.1811 -0.3884
 3777SOL    HW211910   2.915   4.121   3.068  3.3887 -0.6465  1.4184
 3778SOL     OW11911   2.095   7.613   2.580 -0.2254  0.5963  0.0376
 3778SOL    HW111912   2.106   7.593   2.487  1.6575 -1.8603  0.6794
 3778SOL    HW211913   2.183   7.639   2.610 -0.2723 -0.7618  1.5144
 3779SOL     OW11914   8.237   6.643   3.857 -0.0919 -0.0059  0.1540
 3779SOL    HW111915   8.192   6.693   3.789  0.0141  0.6750  0.5739
 3779SOL    HW211916   8.325   6.630   3.824  0.0437  0.5769  0.2818
 3780SOL     OW11917   3.184   6.163   2.074  0.1024 -0.1708 -0.1032
 3780SOL    HW111918   3.269   6.202   2.096  0.6978 -2.4249  2.2196
 3780SOL    HW211919   3.119   6.224   2.109  0.9013  0.1431  0.8757
 3781SOL     OW11920   4.948   0.648   4.484 -0.2999 -0.7699 -0.3198
 3781SOL    HW111921   4.921   0.625   4.395 -0.3850 -1.4209 -0.1323
 3781SOL    HW211922   5.040   0.622   4.489 -0.1265 -0.1871 -0.4004
 3782SOL     OW11923   1.908   5.686   6.877  0.0091 -0.0621 -0.0413
 3782SOL    HW111924   1.852   5.743   6.929 -1.1116 -1.6576  0.5638
 3782SOL    HW211925   1.849   5.648   6.812  1.0150  0.4670 -1.3099
 3783SOL     OW11926   4.772   1.050   3.568  0.6452 -0.0921 -0.3751
 3783SOL    HW111927   4.858   1.023   3.600  0.2370 -1.4672 -0.3698
 3783SOL    HW211928   4.717   1.052   3.646  1.2932  3.8001  0.1758
 3784SOL     OW11929   6.686   3.179   0.126 -0.0153  0.8964 -0.4178
 3784SOL    HW111930   6.740   3.237   0.073  1.3221 -0.0096 -0.0939
 3784SOL    HW211931   6.668   3.104   0.069 -0.7193  1.0575 -0.4245
 3785SOL     OW11932   5.148   1.951   5.564 -0.2246 -0.5166 -0.6154
 3785SOL    HW111933   5.234   1.931   5.525 -0.4202  0.9209 -1.8690
 3785SOL    HW211934   5.154   1.916   5.653  2.5055  1.4595  0.1195
 3786SOL     OW11935   1.181   4.759   6.808  0.1675  0.1105 -0.4279
 3786SOL    HW111936   1.178   4.671   6.770 -0.2438  0.3926 -1.0758
 3786SOL    HW211937   1.236   4.809   6.747  0.3820  0.3122 -0.0740
 3787SOL     OW11938   9.578   8.462   0.506  0.2356  0.3189  0.0646
 3787SOL    HW111939   9.493   8.421   0.492  0.1908  0.7082 -0.9015
 3787SOL    HW211940   9.569   8.549   0.467  1.3278  0.0645 -0.8217
 3788SOL     OW11941   2.368   8.728   9.062 -0.3668 -0.4062 -0.4557
 3788SOL    HW111942   2.441   8.770   9.016 -0.7180  0.2088 -0.4609
 3788SOL    HW211943   2.351   8.648   9.012  0.5611 -0.7552 -0.2235
 3789SOL     OW11944   5.384   8.911   8.141 -0.0579  0.0045 -0.9400
 3789SOL    HW111945   5.410   8.952   8.224 -0.4547  0.3389 -0.9750
 3789SOL    HW211946   5.367   8.820   8.164 -0.6545  0.2043 -0.5416
 3790SOL     OW11947   3.012   9.702   2.262  0.3851 -0.1645  0.0552
 3790SOL    HW111948   3.024   9.761   2.337  0.8286  0.1576 -0.2673
 3790SOL    HW211949   3.067   9.739   2.193  1.9257 -1.8348  0.3445
 3791SOL     OW11950   1.028   0.687   9.059 -0.2908 -0.0632  0.4677
 3791SOL    HW111951   0.942   0.655   9.084 -1.4710 -1.4775 -4.3150
 3791SOL    HW211952   1.021   0.782   9.065 -2.3189 -0.1341  0.0018
 3792SOL     OW11953   4.701   4.192   1.709 -0.3438  0.4552  0.6028
 3792SOL    HW111954   4.646   4.228   1.779 -0.3754  2.5410 -0.4050
 3792SOL    HW211955   4.776   4.252   1.705  0.2999 -0.3861 -0.2865
 3793SOL     OW11956   3.297   7.796   4.441 -0.3495 -0.2819 -0.4495
 3793SOL    HW111957   3.375   7.748   4.468  0.4323  2.1925  2.2413
 3793SOL    HW211958   3.226   7.757   4.492 -0.4145 -0.9460 -1.0461
 3794SOL     OW11959   5.075   4.888   9.135  0.6548  0.4219 -0.3506
 3794SOL    HW111960   5.129   4.850   9.205  1.3430  2.1113  0.0711
 3794SOL    HW211961   5.105   4.844   9.055 -0.4613 -1.8870  0.3997
 3795SOL     OW11962   7.560   9.665   9.023 -0.0275  0.3870 -0.1448
 3795SOL    HW111963   7.517   9.734   8.971  0.3049  0.4913 -0.2896
 3795SOL    HW211964   7.544   9.585   8.974  0.4550  0.5144 -0.5194
 3796SOL     OW11965   4.229   6.861   2.247  0.0161  0.3134  0.4336
 3796SOL    HW111966   4.140   6.884   2.275 -0.1692  1.0332 -0.6952
 3796SOL    HW211967   4.217   6.789   2.186  0.4002 -1.0769  1.9319
 3797SOL     OW11968   4.034   8.508   4.227  0.3209  0.0501 -0.0403
 3797SOL    HW111969   4.084   8.456   4.164  0.7321  1.0108 -0.5440
 3797SOL    HW211970   4.022   8.451   4.302  1.6197 -0.4309 -0.1720
 3798SOL     OW11971   9.590   5.020   5.026 -0.0236 -0.0664 -0.1757
 3798SOL    HW111972   9.683   5.011   5.010  0.0964 -1.9519  1.1089
 3798SOL    HW211973   9.575   4.968   5.106 -2.4560 -1.4603 -1.4240
 3799SOL     OW11974   5.912   1.714   5.382 -0.3094  0.2267  0.3549
 3799SOL    HW111975   5.979   1.781   5.399 -1.1427  0.7504  1.6808
 3799SOL    HW211976   5.860   1.750   5.310 -0.6864  0.9762  0.9867
 3800SOL     OW11977   8.668   4.893   4.899  0.1138  0.1237  0.2523
 3800SOL    HW111978   8.596   4.862   4.954  0.3418  0.5909  0.8244
 3800SOL    HW211979   8.689   4.980   4.935  0.4405  0.3193 -0.4050
 3801SOL     OW11980   0.559   9.105   5.523  0.0401 -0.4070 -0.6401
 3801SOL    HW111981   0.513   9.046   5.583  1.2798  0.4945  1.2950
 3801SOL    HW211982   0.643   9.062   5.507  0.0287 -0.2582 -1.1010
 3802SOL     OW11983   1.514   3.549   3.089 -0.4225  0.0132  0.5707
 3802SOL    HW111984   1.529   3.516   3.178  1.8332  1.0572  0.6283
 3802SOL    HW211985   1.478   3.637   3.102  0.9713  0.6188  0.5056
 3803SOL     OW11986   4.479   6.992   9.359 -0.3783 -0.3140  0.0524
 3803SOL    HW111987   4.444   6.975   9.446 -0.7143 -0.2931 -0.0772
 3803SOL    HW211988   4.488   7.087   9.355 -0.7219 -0.2840 -0.0693
 3804SOL     OW11989   4.730   9.852   1.543 -0.0827 -0.2331  0.3814
 3804SOL    HW111990   4.699   9.782   1.600 -0.7895  0.4404  0.8418
 3804SOL    HW211991   4.654   9.909   1.531  0.7965  1.1585  1.0931
 3805SOL     OW11992   8.945   2.051   1.090 -0.0890  0.3858 -0.2406
 3805SOL    HW111993   9.027   2.097   1.071  0.8676 -1.4843 -0.8649
 3805SOL    HW211994   8.945   1.976   1.031 -0.3021 -1.8924  2.4467
 3806SOL     OW11995   1.203   5.564   6.619 -0.5019  0.1676 -0.1776
 3806SOL    HW111996   1.259   5.520   6.683  0.2527  0.2255 -0.7732
 3806SOL    HW211997   1.145   5.496   6.586 -0.9506  0.1596  0.6261
 3807SOL     OW11998   2.543   5.614   5.187  0.1688  0.3297 -0.6127
 3807SOL    HW111999   2.579   5.586   5.271 -1.3435 -0.4293 -0.1845
 3807SOL    HW212000   2.604   5.578   5.122  0.6677 -0.1712  0.1128
 3808SOL     OW12001   2.354   2.983   4.357  0.1259 -0.0252 -0.3369
 3808SOL    HW112002   2.354   2.888   4.348  0.5278 -0.0818  0.1989
 3808SOL    HW212003   2.277   3.002   4.410 -0.2882  0.0052 -0.9399
 3809SOL     OW12004   2.058   8.847   1.576 -0.5659  0.0040 -0.1649
 3809SOL    HW112005   2.076   8.842   1.482  0.3585 -1.1751  0.0500
 3809SOL    HW212006   2.101   8.770   1.613  1.4878  1.8542  1.5874
 3810SOL     OW12007   5.010   2.635   5.772  0.5776 -0.1126 -0.0687
 3810SOL    HW112008   4.957   2.557   5.788 -0.2532  0.5139  0.2894
 3810SOL    HW212009   5.022   2.674   5.859  1.3099 -0.0380 -0.1933
 3811SOL     OW12010   4.079   3.584   6.180 -0.1014  0.7692 -0.2499
 3811SOL    HW112011   4.150   3.592   6.243  1.7922 -0.6936 -2.0478
 3811SOL    HW212012   4.056   3.674   6.156  1.5346  1.2759 -0.0118
 3812SOL     OW12013   9.206   6.332   4.363 -0.1933  0.1113 -0.4415
 3812SOL    HW112014   9.115   6.315   4.338 -0.7569  0.7187  1.0603
 3812SOL    HW212015   9.224   6.269   4.433  0.1266  0.7658  0.0832
 3813SOL     OW12016   5.805   2.557   4.917  0.0817  0.0186 -0.5059
 3813SOL    HW112017   5.787   2.476   4.964  0.2893  0.9665  1.3061
 3813SOL    HW212018   5.719   2.588   4.888  0.1306 -1.5183 -2.4751
 3814SOL     OW12019   1.579   6.591   3.315  0.3486  0.0387  0.1364
 3814SOL    HW112020   1.566   6.601   3.221 -0.5937 -1.8898  0.0066
 3814SOL    HW212021   1.626   6.508   3.325  1.9144  1.0035  1.3105
 3815SOL     OW12022   7.612   9.318   7.975 -0.0490  0.5738 -0.2203
 3815SOL    HW112023   7.701   9.337   7.945  0.4462 -0.6962  0.3925
 3815SOL    HW212024   7.606   9.359   8.061  0.4695 -0.5920  0.3921
 3816SOL     OW12025   8.785   8.301   0.936  0.4883  0.1544 -0.0757
 3816SOL    HW112026   8.728   8.277   1.009  0.5739 -0.3561 -0.1692
 3816SOL    HW212027   8.726   8.343   0.873  0.7607  2.4316  1.1079
 3817SOL     OW12028   7.499   3.171   2.812  0.0520  0.1193  0.6473
 3817SOL    HW112029   7.593   3.164   2.793 -0.3265 -1.8343 -0.9160
 3817SOL    HW212030   7.491   3.146   2.904  0.9076 -1.8707  0.2409
 3818SOL     OW12031   4.719   5.968   7.139 -0.4492  0.5426  0.6437
 3818SOL    HW112032   4.628   5.952   7.117  0.3512 -1.3737 -1.7593
 3818SOL    HW212033   4.762   5.983   7.054  1.9251 -1.4299  1.3774
 3819SOL     OW12034   6.088   6.198   1.677  0.0581 -0.1385 -0.1560
 3819SOL    HW112035   6.109   6.110   1.707 -0.9066 -0.6183 -0.8435
 3819SOL    HW212036   6.105   6.254   1.753  1.0523 -0.8562  0.1618
 3820SOL     OW12037   5.701   7.606   7.211 -0.4245 -0.0823  0.3421
 3820SOL    HW112038   5.687   7.700   7.199 -1.1059 -0.2021  0.1030
 3820SOL    HW212039   5.795   7.593   7.199  0.0551  0.8750  2.6109
 3821SOL     OW12040   1.020   5.745   5.735  0.0265 -0.0701  0.3085
 3821SOL    HW112041   1.101   5.709   5.771 -0.3154 -2.1213 -0.8719
 3821SOL    HW212042   0.978   5.787   5.811  1.8976  0.6060  1.0515
 3822SOL     OW12043   2.097   3.369   6.110  0.5884  0.2707  0.0885
 3822SOL    HW112044   2.092   3.273   6.105  1.2872  0.2867 -1.5802
 3822SOL    HW212045   2.043   3.399   6.037  2.0561  1.0839 -0.6993
 3823SOL     OW12046   3.623   2.319   6.922 -0.1974  0.1340  0.4079
 3823SOL    HW112047   3.587   2.383   6.861 -1.3141  0.0160  0.9273
 3823SOL    HW212048   3.550   2.263   6.944  0.0178  0.5391  2.3292
 3824SOL     OW12049   0.408   4.257   9.266  0.4118 -0.1074  0.0060
 3824SOL    HW112050   0.434   4.312   9.192 -1.7385  0.7371 -0.1962
 3824SOL    HW212051   0.317   4.281   9.283  0.6324 -0.7649  2.5207
 3825SOL     OW12052   8.215   7.147   7.431 -0.3104  0.2422 -0.0975
 3825SOL    HW112053   8.215   7.062   7.386  0.9335  0.4093 -0.4543
 3825SOL    HW212054   8.131   7.150   7.477 -0.2394 -1.3143  0.1793
 3826SOL     OW12055   1.154   6.543   4.266 -0.1901 -0.2889  0.2877
 3826SOL    HW112056   1.248   6.559   4.267  0.5371 -2.8356 -3.5878
 3826SOL    HW212057   1.117   6.620   4.221  0.4416 -0.4315 -0.4943
 3827SOL     OW12058   4.477   0.796   4.564  0.1991  0.1136 -0.1070
 3827SOL    HW112059   4.523   0.754   4.492  0.4053 -0.2690  0.2421
 3827SOL    HW212060   4.542   0.853   4.605  0.3198 -0.2983  0.2819
 3828SOL     OW12061   0.560   8.019   9.037  0.3676  0.1881  0.6708
 3828SOL    HW112062   0.514   8.093   8.996 -1.7195 -1.7022 -0.6140
 3828SOL    HW212063   0.529   8.019   9.128  0.5596  1.0202  0.7415
 3829SOL     OW12064   1.122   9.601   3.359 -0.2979 -0.3382 -0.0823
 3829SOL    HW112065   1.175   9.521   3.354 -0.4006 -0.5662  1.6167
 3829SOL    HW212066   1.116   9.619   3.453 -1.4450  0.8900 -0.3617
 3830SOL     OW12067   4.860   8.598   6.770 -0.1398 -0.6924 -0.3378
 3830SOL    HW112068   4.840   8.599   6.676 -0.2517 -0.2905 -0.3132
 3830SOL    HW212069   4.776   8.579   6.812  0.3286 -3.2576 -0.4021
 3831SOL     OW12070   0.769   4.257   5.855  0.2530  0.2902 -0.0965
 3831SOL    HW112071   0.797   4.348   5.869  2.1943 -0.4832  1.5649
 3831SOL    HW212072   0.808   4.234   5.770 -0.2820  1.0006 -0.5489
 3832SOL     OW12073   1.026   5.408   4.514  0.0005  0.0504 -0.4274
 3832SOL    HW112074   1.033   5.315   4.533 -1.1776 -0.0381 -0.3443
 3832SOL    HW212075   1.114   5.434   4.488  0.3927 -1.0334 -0.2276
 3833SOL     OW12076   4.122   9.506   0.714 -0.0538 -0.0606  0.0833
 3833SOL    HW112077   4.029   9.487   0.724 -0.3525  0.9911 -0.4549
 3833SOL    HW212078   4.145   9.468   0.630  0.0973 -0.6341  0.3805
 3834SOL     OW12079   5.912   6.211   0.206  0.0373 -0.7384 -0.3555
 3834SOL    HW112080   5.839   6.264   0.239  0.0968 -0.0327 -1.3077
 3834SOL    HW212081   5.990   6.260   0.230  0.0961 -0.3985 -1.1886
 3835SOL     OW12082   5.139   5.943   4.107 -0.0959  0.0424  0.0625
 3835SOL    HW112083   5.182   5.863   4.134 -1.3175 -0.8607 -0.5627
 3835SOL    HW212084   5.205   6.011   4.118  0.6982 -0.9111  1.3825
 3836SOL     OW12085   7.552   0.898   4.941 -0.5379  0.2323 -0.2919
 3836SOL    HW112086   7.462   0.920   4.964 -1.0635 -0.4662 -1.5620
 3836SOL    HW212087   7.550   0.805   4.918  0.6448  0.0450  0.2957
 3837SOL     OW12088   1.236   1.742   0.192  0.2629 -0.1517  0.3751
 3837SOL    HW112089   1.150   1.779   0.171  0.0867 -0.1011  1.1191
 3837SOL    HW212090   1.232   1.727   0.287  1.2505  0.3110  0.5055
 3838SOL     OW12091   3.826   7.901   5.700  0.6231 -0.0340 -0.4669
 3838SOL    HW112092   3.819   7.863   5.612 -0.0848 -1.6035  0.2316
 3838SOL    HW212093   3.920   7.895   5.721  1.3639  3.1120 -2.2139
 3839SOL     OW12094   5.628   0.608   7.838  0.0328  0.4003 -0.2250
 3839SOL    HW112095   5.622   0.624   7.743  1.8688 -0.0572 -0.4428
 3839SOL    HW212096   5.721   0.600   7.856 -0.3430 -1.2233  1.3414
 3840SOL     OW12097   3.654   4.861   5.344 -0.0105 -0.0163 -0.2149
 3840SOL    HW112098   3.570   4.897   5.315 -0.9447 -1.5021  0.4718
 3840SOL    HW212099   3.678   4.914   5.420 -1.1453 -0.5237  0.5297
 3841SOL     OW12100   2.854   9.176   4.932  0.0904  0.1102  0.1196
 3841SOL    HW112101   2.791   9.178   5.004 -1.7692  0.7835 -1.4219
 3841SOL    HW212102   2.892   9.088   4.936 -1.1285 -0.4103  0.9879
 3842SOL     OW12103   5.728   1.490   2.892 -0.0486  0.4159 -0.0956
 3842SOL    HW112104   5.766   1.521   2.810 -1.5678  2.7063 -0.0104
 3842SOL    HW212105   5.772   1.543   2.960 -0.8767  0.6287  0.2885
 3843SOL     OW12106   1.081   8.474   9.308  0.2544  0.3670  0.6821
 3843SOL    HW112107   0.997   8.514   9.284 -0.4535 -1.0728  0.6911
 3843SOL    HW212108   1.147   8.531   9.268 -0.7944  0.0177 -1.6932
 3844SOL     OW12109   0.385   0.119   1.300  0.2116  0.2705  0.6103
 3844SOL    HW112110   0.382   0.196   1.356 -0.9286 -0.0374  0.9957
 3844SOL    HW212111   0.295   0.109   1.269  0.1237 -1.4603  1.3361
 3845SOL     OW12112   8.664   3.008   4.417  0.2986 -0.6425  0.1373
 3845SOL    HW112113   8.655   3.078   4.352  0.7887 -0.4499  0.2754
 3845SOL    HW212114   8.758   2.990   4.421  0.4019  0.0694  1.5472
 3846SOL     OW12115   0.865   5.638   9.204 -0.8842 -0.4734  0.2844
 3846SOL    HW112116   0.795   5.649   9.140 -0.8450  2.8795  0.6631
 3846SOL    HW212117   0.933   5.700   9.177  0.4558 -1.1542  1.8915
 3847SOL     OW12118   1.943   4.668   3.227  0.6450  0.1675  0.1565
 3847SOL    HW112119   1.864   4.637   3.273 -0.6522  2.9728  0.0317
 3847SOL    HW212120   1.910   4.703   3.144  1.8605  2.2550  0.4905
 3848SOL     OW12121   0.159   5.079   3.697  0.1196 -0.0997 -0.8913
 3848SOL    HW112122   0.108   5.124   3.764 -0.6310 -0.7937 -0.9822
 3848SOL    HW212123   0.187   5.149   3.637 -2.1848  0.1403 -1.7938
 3849SOL     OW12124   9.919   0.218   7.038 -0.3284  0.3093 -0.1439
 3849SOL    HW112125   9.920   0.298   7.092 -0.7788 -0.2245  0.6651
 3849SOL    HW212126   9.840   0.227   6.984 -0.1572  0.6000 -0.3492
 3850SOL     OW12127   2.949   0.160   9.226  0.0447 -0.1118 -0.4194
 3850SOL    HW112128   2.924   0.114   9.305  0.0879  1.5084  0.5861
 3850SOL    HW212129   2.942   0.095   9.156 -2.7616 -0.8379  0.4500
 3851SOL     OW12130   2.524   4.914   6.389 -0.8006 -0.1787  0.4846
 3851SOL    HW112131   2.558   5.001   6.370  0.0632 -0.3546  1.1112
 3851SOL    HW212132   2.491   4.920   6.479 -0.7477 -0.4842  0.5271
 3852SOL     OW12133   4.615   6.620   3.713 -0.0581 -0.2985  0.6009
 3852SOL    HW112134   4.656   6.598   3.796  0.6081 -1.3702  0.0041
 3852SOL    HW212135   4.607   6.537   3.667 -1.6473  0.0807  0.1226
 3853SOL     OW12136   7.444   7.522   1.493  0.0016 -0.2795  0.1375
 3853SOL    HW112137   7.425   7.510   1.585 -1.0397 -1.1360 -0.1786
 3853SOL    HW212138   7.539   7.533   1.489  0.1791 -1.3076  1.1983
 3854SOL     OW12139   3.465   3.804   5.837  0.4073  0.2341 -0.0976
 3854SOL    HW112140   3.421   3.886   5.859  1.9564  0.9671  0.3419
 3854SOL    HW212141   3.447   3.747   5.912 -0.0144  0.4128 -0.0562
 3855SOL     OW12142   6.964   7.494   7.473  0.1071 -0.3242 -0.3670
 3855SOL    HW112143   7.055   7.519   7.488 -0.4454  1.9941 -0.4049
 3855SOL    HW212144   6.957   7.489   7.377  0.2406 -0.6732 -0.3576
 3856SOL     OW12145   5.596   8.368   6.998  0.5799 -0.4588 -0.1729
 3856SOL    HW112146   5.571   8.299   6.937  0.5832  0.5138 -1.3144
 3856SOL    HW212147   5.540   8.355   7.075  1.6201 -2.6243  0.2991
 3857SOL     OW12148   3.215   8.980   7.213  0.3752  0.2133 -0.0745
 3857SOL    HW112149   3.210   8.928   7.132 -0.0892  0.5677 -0.2818
 3857SOL    HW212150   3.308   9.002   7.221  0.8148 -1.7234  0.7197
 3858SOL     OW12151   8.043   9.526   6.866 -0.6098  0.0477 -0.1012
 3858SOL    HW112152   7.976   9.487   6.921  0.5264  0.3603  1.5987
 3858SOL    HW212153   8.081   9.596   6.920  1.6642 -0.6923 -0.6131
 3859SOL     OW12154   2.041   1.934   5.251 -0.0322 -0.2901  0.2676
 3859SOL    HW112155   1.985   1.963   5.323  0.0684  2.6132 -0.6970
 3859SOL    HW212156   1.990   1.953   5.172 -0.0813 -3.2462 -0.5470
 3860SOL     OW12157   3.025   4.784   9.134 -0.0529 -0.3796 -0.0621
 3860SOL    HW112158   3.029   4.806   9.227 -1.6410 -1.8605  0.3975
 3860SOL    HW212159   2.958   4.842   9.099 -0.1329 -0.4764 -0.0701
 3861SOL     OW12160   7.443   5.703   8.222  0.1231  0.1016  0.1770
 3861SOL    HW112161   7.385   5.701   8.146  1.1831  0.7608 -0.6849
 3861SOL    HW212162   7.473   5.613   8.232  1.6058  0.3469 -1.5298
 3862SOL     OW12163   1.994   3.642   9.574 -0.0481 -0.2708 -0.2666
 3862SOL    HW112164   2.065   3.598   9.527  0.9123 -0.0468  0.9033
 3862SOL    HW212165   1.947   3.691   9.507 -0.7262 -2.4669 -1.4966
 3863SOL     OW12166   5.130   0.680   2.707  0.4699 -0.1546  0.4095
 3863SOL    HW112167   5.190   0.698   2.635  0.9206  1.4710  1.1543
 3863SOL    HW212168   5.178   0.621   2.764  0.6308 -0.3595  0.0634
 3864SOL     OW12169   7.382   7.382   8.955 -0.5306 -0.2196 -0.1753
 3864SOL    HW112170   7.308   7.322   8.957 -0.4769 -0.2630  0.8714
 3864SOL    HW212171   7.348   7.464   8.990 -0.1249 -0.1960  0.1776
 3865SOL     OW12172   5.721   4.205   7.898  0.2581  0.5874 -0.2818
 3865SOL    HW112173   5.717   4.300   7.885 -2.7058  0.5495 -0.2019
 3865SOL    HW212174   5.704   4.169   7.811  0.2313  0.1419 -0.0904
 3866SOL     OW12175   7.925   3.396   3.131  0.3418  0.0832 -0.1702
 3866SOL    HW112176   7.908   3.421   3.040  1.5291 -0.8676 -0.6742
 3866SOL    HW212177   7.837   3.385   3.169 -0.2498 -1.9949 -1.9240
 3867SOL     OW12178   2.132   7.920   2.962 -0.0021 -0.2365  0.0092
 3867SOL    HW112179   2.136   7.825   2.959  1.6441 -0.1649 -1.6796
 3867SOL    HW212180   2.169   7.949   2.878  0.7293  1.8908  0.9793
 3868SOL     OW12181   0.233   3.885   8.646 -0.0938  0.0693 -0.0773
 3868SOL    HW112182   0.255   3.875   8.739 -0.6248  0.8700  0.1424
 3868SOL    HW212183   0.304   3.840   8.600  0.5086  0.2126  0.6927
 3869SOL     OW12184   2.229   8.845   1.354 -0.1662  0.4391  0.3575
 3869SOL    HW112185   2.275   8.928   1.364 -1.0913  0.9699  0.3108
 3869SOL    HW212186   2.172   8.858   1.278  0.5763 -0.6649 -0.4127
 3870SOL     OW12187   5.076   1.477   5.420 -0.1103 -0.9856 -0.0075
 3870SOL    HW112188   5.014   1.404   5.411 -0.4775 -0.5569 -1.3121
 3870SOL    HW212189   5.106   1.493   5.330 -0.5478  0.8892  0.1344
 3871SOL     OW12190   9.679   5.339   6.206  0.5664  0.2763  0.8640
 3871SOL    HW112191   9.749   5.283   6.239  1.8861  1.2623 -0.1704
 3871SOL    HW212192   9.602   5.283   6.207  1.3913 -0.8995  1.8480
 3872SOL     OW12193   8.801   9.117   8.897 -0.4327  0.6274  0.2262
 3872SOL    HW112194   8.763   9.090   8.981 -1.3294 -0.4460 -0.5049
 3872SOL    HW212195   8.848   9.198   8.917  0.5766 -0.3476  2.0627
 3873SOL     OW12196   0.898   2.809   9.550 -0.4051 -0.6119 -0.1805
 3873SOL    HW112197   0.833   2.875   9.570  0.0427  0.1858 -1.3037
 3873SOL    HW212198   0.980   2.857   9.541 -0.3102 -1.0965 -2.3979
 3874SOL     OW12199   0.880   6.371   9.176 -0.1851 -0.3701  1.4214
 3874SOL    HW112200   0.966   6.339   9.204 -0.4373 -1.9768  0.4722
 3874SOL    HW212201   0.889   6.467   9.178  1.2651 -0.4895  2.3864
 3875SOL     OW12202   4.620   2.241   9.911 -0.3154  0.1522 -0.2893
 3875SOL    HW112203   4.663   2.254   9.827 -1.9371 -0.1216 -1.1974
 3875SOL    HW212204   4.602   2.330   9.943 -0.4805  0.2508 -0.6545
 3876SOL     OW12205   9.183   6.413   4.702  0.8802 -0.1041 -0.3186
 3876SOL    HW112206   9.244   6.339   4.697  0.0919 -0.8964  1.0931
 3876SOL    HW212207   9.206   6.458   4.784  1.3425  1.2398 -1.1539
 3877SOL     OW12208   8.288   0.241   3.348  0.0098  0.0624 -0.6226
 3877SOL    HW112209   8.232   0.273   3.277  0.2495 -0.0331 -0.8587
 3877SOL    HW212210   8.348   0.180   3.305 -0.1292 -0.3352 -0.2606
 3878SOL     OW12211   3.843   8.315   4.567  0.0116 -0.4637 -0.4025
 3878SOL    HW112212   3.899   8.240   4.585  0.0421 -0.4776 -0.5604
 3878SOL    HW212213   3.897   8.373   4.513  0.6928  0.5586  1.2920
 3879SOL     OW12214   2.401   2.045   8.330  0.1159  0.5996 -0.8126
 3879SOL    HW112215   2.482   2.004   8.359 -0.4712  0.1991  0.3237
 3879SOL    HW212216   2.426   2.095   8.252  1.1465 -0.6872 -1.3378
 3880SOL     OW12217   5.145   7.502   2.163 -0.3043 -0.0086  0.2188
 3880SOL    HW112218   5.185   7.490   2.077 -1.0489 -1.6008  0.0534
 3880SOL    HW212219   5.215   7.480   2.225 -0.7793 -2.7344 -0.0692
 3881SOL     OW12220   7.165   7.792   8.528 -0.5634 -0.4693 -0.0264
 3881SOL    HW112221   7.090   7.758   8.576 -0.9545  0.7633  0.2561
 3881SOL    HW212222   7.241   7.753   8.571 -1.0079 -1.2231  0.0851
 3882SOL     OW12223   7.508   0.150   2.789  0.2036 -0.1532  0.1321
 3882SOL    HW112224   7.465   0.066   2.772  0.6406 -0.4088  0.2953
 3882SOL    HW212225   7.450   0.215   2.749 -0.4860 -0.4731  0.5970
 3883SOL     OW12226   5.178   6.072   3.802 -0.7243 -0.0819  0.2470
 3883SOL    HW112227   5.084   6.067   3.820 -0.8993  0.5823 -0.4780
 3883SOL    HW212228   5.218   6.067   3.889 -1.2993 -2.5818  0.4681
 3884SOL     OW12229   0.652   9.195   4.237  0.0671 -0.7739  0.2058
 3884SOL    HW112230   0.644   9.250   4.314 -1.5987  0.0051 -0.4868
 3884SOL    HW212231   0.705   9.247   4.176  1.1339 -1.2694  0.6726
 3885SOL     OW12232   9.395   7.552   0.916  0.1240 -0.5348 -0.1622
 3885SOL    HW112233   9.366   7.513   0.998 -1.6726  1.0551  0.0461
 3885SOL    HW212234   9.467   7.496   0.886 -0.9530 -2.7330  1.1018
 3886SOL     OW12235   2.850   5.803   0.642 -0.0492  0.2567  0.1505
 3886SOL    HW112236   2.798   5.748   0.584 -0.2976  1.4322 -0.7948
 3886SOL    HW212237   2.806   5.888   0.639  1.5422  1.1036 -0.1643
 3887SOL     OW12238   3.507   6.970   2.018  0.2033 -0.4286 -0.3174
 3887SOL    HW112239   3.483   6.897   2.075 -1.6606 -0.0605 -0.5775
 3887SOL    HW212240   3.481   6.943   1.930  1.0726 -0.1178 -0.6856
 3888SOL     OW12241   5.036   3.174   4.872  0.1630  0.4227  0.5568
 3888SOL    HW112242   4.988   3.107   4.921 -1.0691  0.9081  0.0488
 3888SOL    HW212243   5.035   3.251   4.928  0.0650  0.5327  0.4052
 3889SOL     OW12244   7.944   6.778   5.522  0.4052 -0.2590 -0.1338
 3889SOL    HW112245   7.862   6.811   5.485  0.3448 -0.4129 -0.1366
 3889SOL    HW212246   7.959   6.832   5.599  0.9191  0.5607 -0.7962
 3890SOL     OW12247   1.018   7.405   9.752 -0.2496  0.1180 -0.0719
 3890SOL    HW112248   1.060   7.491   9.747 -0.7454  0.4048  0.6314
 3890SOL    HW212249   1.016   7.374   9.661 -0.0857  0.8501 -0.3316
 3891SOL     OW12250   2.505   9.397   8.526 -0.0865  0.0347  0.1165
 3891SOL    HW112251   2.506   9.333   8.598 -1.3938 -0.9666 -0.7116
 3891SOL    HW212252   2.515   9.344   8.447 -1.1074  0.8690 -0.5873
 3892SOL     OW12253   4.788   2.987   3.293 -0.9367  0.1290  0.6106
 3892SOL    HW112254   4.805   2.896   3.267  0.3836  0.2187  1.1062
 3892SOL    HW212255   4.831   2.996   3.378 -1.5595  1.0629  0.8366
 3893SOL     OW12256   4.995   4.402   6.705  0.4594 -0.3182  0.1980
 3893SOL    HW112257   5.038   4.385   6.622  3.0066 -0.5314  1.4711
 3893SOL    HW212258   4.968   4.315   6.736  2.1257 -0.6410  0.8702
 3894SOL     OW12259   8.828   0.380   7.402 -0.0112 -0.1044 -0.0668
 3894SOL    HW112260   8.885   0.308   7.376 -1.3011 -1.6679  1.1970
 3894SOL    HW212261   8.792   0.413   7.320  2.3213  0.6667 -0.8663
 3895SOL     OW12262   7.170   6.143   1.748 -0.0587 -0.6702 -0.5711
 3895SOL    HW112263   7.182   6.070   1.688 -0.7893 -1.8458  0.6271
 3895SOL    HW212264   7.075   6.157   1.750  0.0935  0.5352 -1.0169
 3896SOL     OW12265   6.538   3.209   8.110 -0.2031  0.0847 -0.3380
 3896SOL    HW112266   6.448   3.218   8.142  0.5785  1.6394  1.6783
 3896SOL    HW212267   6.591   3.253   8.176  1.9160  0.5556 -2.2243
 3897SOL     OW12268   7.997   2.841   0.766  0.0709  0.7459 -1.0509
 3897SOL    HW112269   7.940   2.818   0.839  1.9637 -1.5844 -0.1887
 3897SOL    HW212270   8.054   2.910   0.801 -0.0315  0.7327 -0.8551
 3898SOL     OW12271   5.355   5.254   9.806  0.3082  0.3045  0.1931
 3898SOL    HW112272   5.312   5.174   9.835  1.0999 -0.2692 -0.1571
 3898SOL    HW212273   5.358   5.311   9.883 -0.5783  0.1378  0.3485
 3899SOL     OW12274   8.819   6.033   8.903  0.3851  0.0200  0.1354
 3899SOL    HW112275   8.754   6.071   8.963 -0.0245  0.1558 -0.3799
 3899SOL    HW212276   8.903   6.056   8.942  0.3252  4.2089 -1.6551
 3900SOL     OW12277   0.431   3.140   9.588  0.3119 -0.2889 -0.8310
 3900SOL    HW112278   0.503   3.167   9.644 -0.2959  1.8556 -1.0074
 3900SOL    HW212279   0.357   3.130   9.647  0.2012 -0.1970 -0.9541
 3901SOL     OW12280   6.864   8.936   0.657  0.1556  0.0360 -0.1522
 3901SOL    HW112281   6.889   8.855   0.613 -2.0094 -1.9956  2.0757
 3901SOL    HW212282   6.867   8.915   0.750 -1.0999  2.3482  0.4980
 3902SOL     OW12283   3.575   3.992   4.812  0.6131  0.0376 -0.3457
 3902SOL    HW112284   3.665   4.016   4.834 -0.5636  2.7975  2.1797
 3902SOL    HW212285   3.555   3.919   4.871  0.5163  1.0242  0.8940
 3903SOL     OW12286   0.543   4.193   7.667  0.7295 -0.1803  0.0823
 3903SOL    HW112287   0.589   4.233   7.741  1.0474 -1.1971  0.4617
 3903SOL    HW212288   0.462   4.243   7.658  1.1557  0.5951  0.4618
 3904SOL     OW12289   8.375   5.540   0.544 -0.0564 -1.0776  0.0001
 3904SOL    HW112290   8.383   5.605   0.474  2.0670 -2.2767 -0.9673
 3904SOL    HW212291   8.376   5.591   0.625 -1.7335  0.2783 -0.7795
 3905SOL     OW12292   2.668   5.021   1.418  0.2423  0.5441 -0.5485
 3905SOL    HW112293   2.649   5.059   1.332 -1.0541  2.9485  0.6969
 3905SOL    HW212294   2.720   5.087   1.463 -1.5937  0.7282  1.5080
 3906SOL     OW12295   0.500   9.930   7.907  0.4271 -0.4683  0.1538
 3906SOL    HW112296   0.525   9.852   7.858  0.8725 -0.9071  1.0424
 3906SOL    HW212297   0.444   9.897   7.977 -0.3548  0.1668 -0.1557
 3907SOL     OW12298   7.110   4.371   4.441  0.5667 -0.3574 -0.0803
 3907SOL    HW112299   7.136   4.448   4.491 -1.5224  1.6258 -1.7866
 3907SOL    HW212300   7.099   4.302   4.506  0.1457  1.4500  1.8799
 3908SOL     OW12301   0.732   1.053   6.554 -0.4224 -0.3282  0.0587
 3908SOL    HW112302   0.646   1.020   6.581 -0.4332  0.2060  0.6918
 3908SOL    HW212303   0.713   1.115   6.484 -0.4722 -0.9086 -0.4597
 3909SOL     OW12304   4.128   2.514   2.061 -0.0917 -0.1095 -0.1100
 3909SOL    HW112305   4.195   2.581   2.074 -0.3157  0.1831 -0.4621
 3909SOL    HW212306   4.050   2.562   2.034  0.0800 -0.5952 -1.5949
 3910SOL     OW12307   6.642   1.941   6.146 -0.6052  0.2378  0.3651
 3910SOL    HW112308   6.571   1.972   6.090 -0.7267 -0.1012  0.3248
 3910SOL    HW212309   6.626   1.847   6.154 -0.1579  0.1593  0.3562
 3911SOL     OW12310   3.902   8.717   0.844 -0.5608  0.4111  0.1397
 3911SOL    HW112311   3.836   8.700   0.777 -1.2697 -0.5555  1.0593
 3911SOL    HW212312   3.966   8.774   0.801 -0.2205 -1.3635 -1.8338
 3912SOL     OW12313   3.948   5.422   8.464 -0.5045 -0.0503 -0.3596
 3912SOL    HW112314   3.964   5.371   8.385 -2.0014 -2.7458  0.9240
 3912SOL    HW212315   3.949   5.358   8.535 -0.7627  2.0104  1.6425
 3913SOL     OW12316   7.974   8.988   4.240  0.3531  0.1482  0.4993
 3913SOL    HW112317   8.053   9.042   4.245  0.2223  0.4027 -0.1868
 3913SOL    HW212318   7.902   9.051   4.234  0.3543  0.0081 -3.4002
 3914SOL     OW12319   8.371   2.544   2.956 -0.1650 -0.4245 -0.2151
 3914SOL    HW112320   8.410   2.524   2.870 -0.9620 -0.1651 -0.6466
 3914SOL    HW212321   8.380   2.639   2.965 -0.8577 -0.3322 -0.4122
 3915SOL     OW12322   1.414   3.727   5.534 -0.2473 -0.6421  0.0813
 3915SOL    HW112323   1.466   3.786   5.479  0.7723  1.2292  2.8575
 3915SOL    HW212324   1.333   3.775   5.549 -0.0733 -0.6432  1.0560
 3916SOL     OW12325   1.778   1.516   6.592 -0.0825  0.2263  0.5273
 3916SOL    HW112326   1.849   1.544   6.650 -0.5263 -0.3103  1.3454
 3916SOL    HW212327   1.776   1.421   6.601  0.8040 -0.0435 -1.5150
 3917SOL     OW12328   9.531   5.442   1.235 -0.4083  0.1240 -0.2929
 3917SOL    HW112329   9.486   5.526   1.225 -0.0751  0.4854  1.0778
 3917SOL    HW212330   9.623   5.467   1.251 -0.1379 -0.5314 -0.8168
 3918SOL     OW12331   4.454   0.317   6.461  0.0343 -0.4570  0.5777
 3918SOL    HW112332   4.501   0.295   6.381  0.2537  1.6411  0.0865
 3918SOL    HW212333   4.388   0.248   6.469  1.1669 -1.7213 -0.3859
 3919SOL     OW12334   3.229   5.754   8.485  0.3404 -0.3594 -0.3328
 3919SOL    HW112335   3.278   5.835   8.469  0.2510 -0.4188 -0.9472
 3919SOL    HW212336   3.296   5.691   8.511  0.5347 -0.3191 -0.7262
 3920SOL     OW12337   3.961   0.061   8.050 -0.6845  0.4065  0.0139
 3920SOL    HW112338   3.982   0.076   7.958  0.0787 -0.7251 -0.0124
 3920SOL    HW212339   4.042   0.027   8.088 -0.8733  1.2449  1.2025
 3921SOL     OW12340   6.172   5.558   1.063  0.0945  0.0768  1.0482
 3921SOL    HW112341   6.086   5.594   1.085  0.2631  1.3814 -0.2521
 3921SOL    HW212342   6.227   5.580   1.138 -0.2407  1.0341  1.0314
 3922SOL     OW12343   6.303   7.293   0.792  0.9451 -0.6392 -0.4579
 3922SOL    HW112344   6.242   7.221   0.808 -0.1348  0.2535 -0.4085
 3922SOL    HW212345   6.252   7.358   0.743  2.2820 -0.4708 -1.7060
 3923SOL     OW12346   5.008   1.796   9.591  0.0267 -0.4533 -0.3729
 3923SOL    HW112347   4.926   1.804   9.542  0.8172  0.5957 -1.6140
 3923SOL    HW212348   5.034   1.887   9.610  0.7921 -0.7733  0.1766
 3924SOL     OW12349   0.231   7.965   1.775 -0.1014 -0.0141  0.0129
 3924SOL    HW112350   0.183   7.947   1.856 -1.4654 -1.3601 -1.0294
 3924SOL    HW212351   0.211   8.056   1.755  0.5704  0.4576  1.3702
 3925SOL     OW12352   2.217   8.615   2.251 -0.1134 -0.0892 -0.2655
 3925SOL    HW112353   2.133   8.629   2.295 -0.0790 -1.2719  0.2048
 3925SOL    HW212354   2.253   8.703   2.239 -0.0522  0.2829  2.1995
 3926SOL     OW12355   4.952   5.939   2.014 -0.0071  0.6692 -0.2319
 3926SOL    HW112356   4.930   5.852   2.046 -0.7869  0.4092 -1.3997
 3926SOL    HW212357   4.876   5.965   1.962  0.5408  1.7244 -0.5344
 3927SOL     OW12358   6.887   6.802   2.349  0.0977  0.0805 -0.4302
 3927SOL    HW112359   6.934   6.751   2.415 -1.3236 -1.5968 -0.6433
 3927SOL    HW212360   6.797   6.769   2.353 -0.9153  2.6142 -0.5963
 3928SOL     OW12361   5.951   5.003   1.275  0.0326  0.0432 -0.8028
 3928SOL    HW112362   6.013   4.931   1.286  0.1718  0.2445 -0.2722
 3928SOL    HW212363   5.945   5.043   1.361 -1.2638 -0.3140 -0.7105
 3929SOL     OW12364   4.828   6.841   6.139 -0.0448  0.0847 -0.6628
 3929SOL    HW112365   4.795   6.756   6.167 -1.4175  0.5576 -0.8019
 3929SOL    HW212366   4.819   6.898   6.215  0.5175  0.2179 -0.6860
 3930SOL     OW12367   8.991   6.633   3.000  0.2486 -0.1197 -0.0654
 3930SOL    HW112368   8.994   6.668   2.911  2.8627  1.4550  0.5162
 3930SOL    HW212369   9.078   6.596   3.014  0.4721  1.0976  2.3181
 3931SOL     OW12370   9.958   2.802   8.986  0.3472 -0.9264  1.0609
 3931SOL    HW112371   9.959   2.895   9.011 -1.0341 -0.2085 -1.2022
 3931SOL    HW212372   9.865   2.778   8.991  0.6279 -2.0320  1.0648
 3932SOL     OW12373   0.043   4.215   8.936 -0.0105  0.1753  0.1953
 3932SOL    HW112374   0.059   4.155   8.864 -0.9684  1.6510 -1.3252
 3932SOL    HW212375   0.131   4.239   8.967  0.4078 -0.6627 -0.2960
 3933SOL     OW12376   2.159   2.563   3.895 -0.3079  0.0293  0.1488
 3933SOL    HW112377   2.167   2.472   3.870  1.0087  0.6142 -1.7196
 3933SOL    HW212378   2.069   2.586   3.873 -0.2030 -0.4214 -0.7745
 3934SOL     OW12379   5.353   6.703   0.590 -0.1227  0.5458 -0.0185
 3934SOL    HW112380   5.374   6.641   0.520  2.3375  0.1377  0.9676
 3934SOL    HW212381   5.300   6.770   0.548  1.4095  0.4073 -2.3268
 3935SOL     OW12382   7.161   1.390   2.107 -0.2860 -0.5152 -0.4828
 3935SOL    HW112383   7.194   1.300   2.097  0.4657 -0.3208  0.1654
 3935SOL    HW212384   7.084   1.393   2.050 -0.0529 -1.4322 -0.8749
 3936SOL     OW12385   8.184   4.885   1.117 -0.0284  0.0176 -0.3262
 3936SOL    HW112386   8.238   4.964   1.124 -2.3964  1.7910 -0.6422
 3936SOL    HW212387   8.154   4.869   1.207 -1.0321  0.6485 -0.5294
 3937SOL     OW12388   0.075   6.197   4.542  0.7536  0.0832 -0.0725
 3937SOL    HW112389   0.104   6.128   4.483  1.7076  0.5536 -0.1761
 3937SOL    HW212390   0.131   6.272   4.521 -1.6173  1.6108 -1.4487
 3938SOL     OW12391   9.555   6.898   2.873  1.1378 -0.3260  0.3789
 3938SOL    HW112392   9.570   6.888   2.779  0.7803  0.1819  0.2628
 3938SOL    HW212393   9.638   6.873   2.914  1.5231  0.1502 -0.1093
 3939SOL     OW12394   5.007   7.470   0.050  0.5445 -0.4765 -0.0366
 3939SOL    HW112395   5.041   7.511  -0.030 -1.5350 -0.3611 -0.9152
 3939SOL    HW212396   4.912   7.484   0.046  0.3781 -0.4831  2.4644
 3940SOL     OW12397   0.346   4.146   4.348 -0.2121 -0.4101  0.0096
 3940SOL    HW112398   0.259   4.107   4.344  0.1723 -1.2830 -0.2337
 3940SOL    HW212399   0.362   4.159   4.441 -1.1873  1.1739 -0.0097
 3941SOL     OW12400   4.393   8.106   7.889 -0.6075  0.0430 -0.3916
 3941SOL    HW112401   4.345   8.181   7.923 -0.5489 -0.1664  0.1628
 3941SOL    HW212402   4.429   8.136   7.805 -2.2021  0.0255 -1.1297
 3942SOL     OW12403   7.414   9.730   1.499 -0.0579 -0.3976 -0.2268
 3942SOL    HW112404   7.433   9.691   1.584 -2.2158  0.0440  0.5110
 3942SOL    HW212405   7.357   9.668   1.455 -2.6176  1.2775  0.5159
 3943SOL     OW12406   6.652   7.972   7.948  0.4029  0.2082 -0.1865
 3943SOL    HW112407   6.605   7.994   7.867 -0.9758 -2.4137 -0.2180
 3943SOL    HW212408   6.595   8.005   8.018  0.5631  0.6557 -0.2670
 3944SOL     OW12409  -0.024   8.162   9.358 -0.1056  0.3587  0.3750
 3944SOL    HW112410   0.020   8.087   9.399  1.9985  1.5895  0.4645
 3944SOL    HW212411   0.046   8.218   9.327 -1.6327  2.1595 -0.0309
 3945SOL     OW12412   8.864   8.258   3.912  0.0463 -0.7011 -0.0608
 3945SOL    HW112413   8.929   8.188   3.924  1.0527  0.3774  1.0010
 3945SOL    HW212414   8.911   8.338   3.934 -1.4555  0.1862  0.0277
 3946SOL     OW12415   1.594   9.841   3.113 -0.5665 -0.3317  0.3386
 3946SOL    HW112416   1.561   9.867   3.027 -1.9654 -2.2788  0.2562
 3946SOL    HW212417   1.516   9.828   3.166  0.2887  1.2431  2.0800
 3947SOL     OW12418   2.753   4.883   9.740 -0.3129  0.5761  0.0701
 3947SOL    HW112419   2.700   4.945   9.790 -0.9472 -0.2866  0.4866
 3947SOL    HW212420   2.824   4.859   9.800  0.6622  1.8316 -0.5333
 3948SOL     OW12421   1.796   7.661   2.591 -0.2382 -0.2012 -0.0665
 3948SOL    HW112422   1.790   7.593   2.659  1.9928 -0.1703  0.2430
 3948SOL    HW212423   1.890   7.673   2.578 -0.5001  3.2978  0.3689
 3949SOL     OW12424   9.880   9.601   7.061 -0.3377 -0.2497  0.4456
 3949SOL    HW112425   9.948   9.606   7.128 -0.7145  0.3900  0.7872
 3949SOL    HW212426   9.896   9.517   7.017  1.9013  0.7187 -0.7846
 3950SOL     OW12427   6.483   9.270   1.288  0.0209 -0.2489  0.2250
 3950SOL    HW112428   6.394   9.242   1.309 -0.3596 -0.6782 -1.7400
 3950SOL    HW212429   6.537   9.192   1.303 -0.0151 -0.1617  0.8363
 3951SOL     OW12430   4.906   7.014   0.008 -0.2417 -0.1847 -0.3561
 3951SOL    HW112431   4.965   6.951   0.051  0.4376 -0.4077 -1.5647
 3951SOL    HW212432   4.842   6.959  -0.037 -0.9379  0.0478  0.3414
 3952SOL     OW12433   2.207   6.897   5.821  0.3180 -0.0002  0.2878
 3952SOL    HW112434   2.295   6.935   5.814  0.2107  0.4054  1.0699
 3952SOL    HW212435   2.171   6.936   5.900 -1.0997  0.9291 -0.7579
 3953SOL     OW12436   4.308   0.494   9.220  0.0528 -0.2592 -0.4430
 3953SOL    HW112437   4.222   0.526   9.192  0.3141  1.6205  0.7034
 3953SOL    HW212438   4.353   0.572   9.253  1.9864 -1.3027 -0.4591
 3954SOL     OW12439   8.830   4.161   2.046  0.2129 -0.2893  0.3478
 3954SOL    HW112440   8.751   4.213   2.032 -0.1026 -1.2492 -1.6051
 3954SOL    HW212441   8.801   4.085   2.096  0.2785  0.2682  1.2656
 3955SOL     OW12442   9.850   0.784   5.629 -0.2561  0.7032 -0.6039
 3955SOL    HW112443   9.856   0.693   5.658 -0.8682  0.5329 -1.0059
 3955SOL    HW212444   9.856   0.780   5.534 -2.9775  0.8110 -0.8319
 3956SOL     OW12445   2.282   9.274   6.712  0.5310 -0.1556  0.1342
 3956SOL    HW112446   2.221   9.345   6.690  0.3647 -0.2008  0.4413
 3956SOL    HW212447   2.249   9.240   6.795  0.2936 -0.9487 -0.2700
 3957SOL     OW12448   4.165   7.433   7.469  0.2283 -0.0404  0.1618
 3957SOL    HW112449   4.081   7.425   7.423  1.2475 -0.6091 -1.6708
 3957SOL    HW212450   4.162   7.520   7.509 -0.5933  0.6034 -1.2319
 3958SOL     OW12451   3.561   9.388   4.561  0.2251 -0.0435 -0.2506
 3958SOL    HW112452   3.470   9.360   4.568  0.2937  0.0815  1.9837
 3958SOL    HW212453   3.608   9.334   4.624  1.0747  2.1549  1.1236
 3959SOL     OW12454   6.136   9.865   6.410 -0.3792 -0.4828 -0.0013
 3959SOL    HW112455   6.227   9.853   6.382 -0.5847  0.5122 -1.1719
 3959SOL    HW212456   6.137   9.946   6.462 -0.6558 -0.2341 -0.3759
 3960SOL     OW12457   5.092   4.465   0.294  0.3557 -0.2973  0.1281
 3960SOL    HW112458   5.054   4.381   0.319  1.3013 -0.7794 -0.0149
 3960SOL    HW212459   5.017   4.525   0.291 -0.7285 -1.6365 -2.0317
 3961SOL     OW12460   7.783   9.485   3.290 -0.1840  0.1810 -0.1407
 3961SOL    HW112461   7.876   9.504   3.292  0.3950 -2.1862 -1.0555
 3961SOL    HW212462   7.778   9.389   3.288 -2.6588  0.2112  0.6689
 3962SOL     OW12463   5.819   1.853   4.035 -0.2915  0.5121 -0.5252
 3962SOL    HW112464   5.731   1.885   4.014 -0.4855  1.4957  1.5525
 3962SOL    HW212465   5.817   1.759   4.015 -1.7466  0.5604 -0.6589
 3963SOL     OW12466   2.344   4.353   8.246 -0.0549  0.5466  0.4769
 3963SOL    HW112467   2.299   4.329   8.165  0.2960  0.3560  0.3385
 3963SOL    HW212468   2.289   4.422   8.284 -0.4620  0.3223  0.3045
 3964SOL     OW12469   3.730   3.526   8.636 -0.4512 -0.3164 -0.6863
 3964SOL    HW112470   3.754   3.568   8.553 -0.4059  1.7994  0.3269
 3964SOL    HW212471   3.646   3.565   8.659 -1.2070 -2.0005 -0.4325
 3965SOL     OW12472   5.222   3.254   1.407 -0.5260 -0.1515 -0.1483
 3965SOL    HW112473   5.138   3.209   1.396 -0.0237 -1.0430 -0.3815
 3965SOL    HW212474   5.270   3.235   1.326 -1.3347  3.1279 -1.5724
 3966SOL     OW12475   3.315   7.623   7.724 -0.1353 -0.2417  0.4116
 3966SOL    HW112476   3.262   7.703   7.722 -0.2200 -0.3079 -0.3112
 3966SOL    HW212477   3.326   7.604   7.817  0.4004  0.9458  0.5996
 3967SOL     OW12478   2.174   3.856   4.999  0.0534  0.0365 -0.0627
 3967SOL    HW112479   2.165   3.766   5.029  0.7503 -0.4574 -1.2866
 3967SOL    HW212480   2.108   3.866   4.930  1.2303 -0.1432 -1.2447
 3968SOL     OW12481   4.542   5.086   1.255 -0.5365  0.2362 -0.3805
 3968SOL    HW112482   4.465   5.106   1.309 -0.7209  0.5644 -0.7574
 3968SOL    HW212483   4.517   5.006   1.208 -0.7671  0.5089 -0.7264
 3969SOL     OW12484   4.964   8.928   2.167  0.7585  0.3641  0.0545
 3969SOL    HW112485   4.904   9.003   2.159  0.3214  0.1404  1.0644
 3969SOL    HW212486   4.967   8.910   2.261  1.7087 -0.2114 -0.0784
 3970SOL     OW12487   2.595   9.178   4.352 -0.3365  0.0624 -0.4619
 3970SOL    HW112488   2.617   9.214   4.438  0.1709 -0.3866 -0.3977
 3970SOL    HW212489   2.678   9.143   4.319 -0.4744  0.4538 -1.2422
 3971SOL     OW12490   7.077   6.706   2.572  0.0353  0.2460 -0.4522
 3971SOL    HW112491   7.055   6.761   2.647  1.0137 -0.0557  0.0660
 3971SOL    HW212492   7.106   6.623   2.610  0.0847 -0.0852 -1.1819
 3972SOL     OW12493   5.864   4.904   5.953  0.1049  0.4900 -0.3736
 3972SOL    HW112494   5.948   4.923   5.995  0.0261  0.5553 -0.2475
 3972SOL    HW212495   5.838   4.819   5.987  0.2007  0.3935 -0.5394
 3973SOL     OW12496   9.663   8.913   8.467  0.2580  0.3015 -0.2961
 3973SOL    HW112497   9.610   8.941   8.541  0.5455  1.9367 -0.6747
 3973SOL    HW212498   9.699   8.828   8.494 -0.8418  0.1584  0.8044
 3974SOL     OW12499   9.293   9.359   0.485  0.2471 -0.3296 -0.5280
 3974SOL    HW112500   9.364   9.305   0.450 -0.2291 -2.1263  1.1036
 3974SOL    HW212501   9.230   9.296   0.519  0.4825  1.1787  3.1681
 3975SOL     OW12502   3.283   2.455   4.633  0.6234  0.1707 -0.0973
 3975SOL    HW112503   3.356   2.413   4.587  0.8616  0.2384  0.2124
 3975SOL    HW212504   3.320   2.481   4.717 -0.0358 -0.7698  0.5136
 3976SOL     OW12505   8.321   1.762   3.760 -0.0454 -0.2598  0.5935
 3976SOL    HW112506   8.412   1.732   3.758 -0.3041 -1.2339  1.8491
 3976SOL    HW212507   8.270   1.682   3.750 -0.7885  0.3736 -0.9066
 3977SOL     OW12508   4.868   1.652   7.055  0.3983  0.2185 -0.3312
 3977SOL    HW112509   4.810   1.696   7.118  1.9429  2.2520 -0.2120
 3977SOL    HW212510   4.816   1.649   6.974 -0.1072  1.5479 -0.0969
 3978SOL     OW12511   5.147   9.438   6.356 -0.3392  0.4372 -0.0578
 3978SOL    HW112512   5.087   9.379   6.402  1.5245 -1.3967  0.1660
 3978SOL    HW212513   5.180   9.386   6.283  0.5819  1.5876 -0.4963
 3979SOL     OW12514   9.281   6.794   5.185  0.2075 -0.2676 -0.5042
 3979SOL    HW112515   9.197   6.779   5.142  0.0382  1.0157 -0.6529
 3979SOL    HW212516   9.259   6.811   5.276  0.2763  0.3426 -0.5977
 3980SOL     OW12517   2.992   4.303   9.635  0.2845  0.2085  0.0277
 3980SOL    HW112518   3.063   4.253   9.677  0.4036 -0.5504 -1.0275
 3980SOL    HW212519   3.033   4.386   9.611  0.4460  0.3074  0.6165
 3981SOL     OW12520   0.170   2.120   2.978 -0.4913 -0.5809  0.0699
 3981SOL    HW112521   0.195   2.180   3.048 -1.0407 -0.8327  0.4858
 3981SOL    HW212522   0.224   2.147   2.903  1.1146 -1.1984  0.9645
 3982SOL     OW12523   9.720   3.408   6.192 -0.2137 -0.4692 -0.0383
 3982SOL    HW112524   9.687   3.393   6.281  0.7156 -0.2446  0.3566
 3982SOL    HW212525   9.752   3.498   6.194  2.6817 -1.4270  0.3548
 3983SOL     OW12526   2.462   8.003   8.772  0.8586  0.1860 -0.1833
 3983SOL    HW112527   2.514   7.943   8.825 -0.5546 -2.4951 -1.5936
 3983SOL    HW212528   2.376   8.004   8.816  0.3812 -0.2053 -1.0785
 3984SOL     OW12529   5.521   1.352   0.015  0.2985 -0.5868  0.1569
 3984SOL    HW112530   5.478   1.303   0.086  1.1693 -1.7764 -0.1085
 3984SOL    HW212531   5.614   1.340   0.031  0.6296  2.1700  0.8660
 3985SOL     OW12532   1.741   7.140   5.309  0.8122 -0.1591  0.0613
 3985SOL    HW112533   1.658   7.168   5.270  0.8369  2.7887  1.8255
 3985SOL    HW212534   1.717   7.106   5.395  1.2856 -1.0468 -0.1477
 3986SOL     OW12535   6.092   3.304   6.998 -0.0244  0.4611 -0.1468
 3986SOL    HW112536   6.060   3.289   6.909  0.2640 -1.8331  0.0864
 3986SOL    HW212537   6.187   3.307   6.990  0.0349 -0.4324  0.1631
 3987SOL     OW12538   6.121   8.917   8.167 -0.2199  0.2980 -0.1112
 3987SOL    HW112539   6.107   9.006   8.135  0.6493  0.6510  0.4554
 3987SOL    HW212540   6.183   8.927   8.239  2.2767 -1.0371 -1.9184
 3988SOL     OW12541   9.543   6.112   1.548 -0.1789 -0.1614 -0.1583
 3988SOL    HW112542   9.507   6.027   1.524  0.8305 -0.5749 -0.2591
 3988SOL    HW212543   9.519   6.170   1.475 -3.4834  0.4607  1.2338
 3989SOL     OW12544   9.029   6.927   4.298 -0.7052 -0.2767 -0.6700
 3989SOL    HW112545   9.025   6.831   4.301 -0.6952 -0.3065 -1.4449
 3989SOL    HW212546   9.006   6.955   4.387 -2.0490 -0.9563 -0.7871
 3990SOL     OW12547   7.815   5.193   7.549  0.4572  0.4566  0.0520
 3990SOL    HW112548   7.862   5.274   7.570 -0.9008  1.9116 -2.1386
 3990SOL    HW212549   7.746   5.188   7.615 -1.3364  2.8414 -1.4517
 3991SOL     OW12550   9.033   0.408   3.261  0.4626  0.2103  0.4526
 3991SOL    HW112551   8.980   0.486   3.246  1.6870  1.0505  0.3984
 3991SOL    HW212552   9.033   0.398   3.357 -0.4088 -0.2609  0.4217
 3992SOL     OW12553   3.121   8.061   5.164  0.3874 -0.0812  0.4027
 3992SOL    HW112554   3.051   8.075   5.229  0.3827  1.1219  0.1630
 3992SOL    HW212555   3.140   8.148   5.131  0.6060 -0.6350 -1.0078
 3993SOL     OW12556   4.635   0.447   7.830 -0.1913 -0.1577 -0.1692
 3993SOL    HW112557   4.640   0.398   7.748  0.0791  0.4649 -0.5339
 3993SOL    HW212558   4.718   0.427   7.874 -1.0147 -1.7932  0.7269
 3994SOL     OW12559   7.454   3.518   8.509  0.1569  0.2277  0.4541
 3994SOL    HW112560   7.497   3.565   8.580  0.1482  0.6420  0.1839
 3994SOL    HW212561   7.390   3.579   8.474 -1.4793 -0.7540  1.5819
 3995SOL     OW12562   7.116   4.880   9.219 -0.4026 -0.3684  0.2216
 3995SOL    HW112563   7.191   4.933   9.244 -1.1723  1.3651 -0.9277
 3995SOL    HW212564   7.142   4.790   9.238  2.1946  0.1107 -0.7460
 3996SOL     OW12565   1.839   4.782   4.778  0.1901  0.6584 -0.2219
 3996SOL    HW112566   1.812   4.753   4.865  0.1180  0.6976 -0.2310
 3996SOL    HW212567   1.934   4.773   4.778  0.2153  0.9127 -0.0473
 3997SOL     OW12568   4.430   1.229   4.267  0.5150  0.5583 -0.1525
 3997SOL    HW112569   4.347   1.238   4.220  1.6608  0.2517 -2.3620
 3997SOL    HW212570   4.436   1.307   4.321  0.4977  2.5523 -2.8502
 3998SOL     OW12571   0.235   8.507   8.004  0.2652  0.0271 -0.0804
 3998SOL    HW112572   0.253   8.540   8.092  0.7258 -0.8927  0.1833
 3998SOL    HW212573   0.144   8.478   8.007 -0.2203  1.4398 -0.3838
 3999SOL     OW12574   1.769   0.829   3.461  0.6077  0.5216 -0.2807
 3999SOL    HW112575   1.857   0.852   3.493  0.9985  0.9855 -1.6245
 3999SOL    HW212576   1.780   0.742   3.422 -0.0767 -0.4635  1.5996
 4000SOL     OW12577   5.857   3.074   6.203  0.0449 -0.4984  0.1918
 4000SOL    HW112578   5.902   3.010   6.257 -1.7064 -0.1400  2.2045
 4000SOL    HW212579   5.857   3.154   6.255  0.5184  0.6191 -1.4519
 4001SOL     OW12580   1.012   4.363   0.065 -0.1927  0.3352 -0.1836
 4001SOL    HW112581   1.013   4.325  -0.023 -1.4077 -0.3780  0.0823
 4001SOL    HW212582   1.087   4.422   0.067 -0.4056  0.7106 -1.8529
 4002SOL     OW12583   0.271   5.021   4.699  0.7581  0.7031 -0.1464
 4002SOL    HW112584   0.327   5.098   4.688  1.4122  0.0360 -1.7617
 4002SOL    HW212585   0.278   4.973   4.616 -0.1291 -0.7789  0.5811
 4003SOL     OW12586   2.327   0.818   1.211 -0.1873 -0.2486 -1.1411
 4003SOL    HW112587   2.331   0.906   1.175 -0.2417 -0.2781 -1.2192
 4003SOL    HW212588   2.322   0.761   1.134 -1.5925 -0.2497 -1.0757
 4004SOL     OW12589   1.256   0.538   1.311  0.2996 -0.6368  0.1789
 4004SOL    HW112590   1.190   0.560   1.376 -0.1087  1.8930 -0.9834
 4004SOL    HW212591   1.205   0.506   1.236  0.4340  0.2868 -0.3212
 4005SOL     OW12592   8.187   3.813   5.616 -0.1965 -0.3692  0.0541
 4005SOL    HW112593   8.225   3.775   5.537 -0.9498 -3.6177  1.0979
 4005SOL    HW212594   8.260   3.819   5.677 -0.3481 -2.0667  0.4734
 4006SOL     OW12595   9.272   2.883   0.508  0.1906  0.1564 -0.2862
 4006SOL    HW112596   9.231   2.844   0.431  0.7819  1.4464 -1.2801
 4006SOL    HW212597   9.365   2.867   0.498  0.2484  0.0595  0.3300
 4007SOL     OW12598   1.992   0.563   8.293 -0.3274 -0.2487  0.0387
 4007SOL    HW112599   1.951   0.547   8.207 -0.5208 -1.9086  0.4169
 4007SOL    HW212600   1.936   0.516   8.355 -0.2403  1.0141  1.1125
 4008SOL     OW12601   3.791   2.159   8.801 -0.5517  0.3570  0.2549
 4008SOL    HW112602   3.828   2.072   8.817  0.2600  0.2735 -1.7430
 4008SOL    HW212603   3.754   2.153   8.713 -1.9447  1.5816  0.7236
 4009SOL     OW12604   9.768   8.675   2.018 -0.0467 -0.4006 -0.0557
 4009SOL    HW112605   9.828   8.715   2.082 -0.3685 -0.6430  0.4030
 4009SOL    HW212606   9.759   8.585   2.049 -2.1660  0.1158  1.0105
 4010SOL     OW12607   8.491   5.677   8.029  0.0762  0.4347  0.0490
 4010SOL    HW112608   8.561   5.737   8.005  0.7668 -0.5411 -0.4626
 4010SOL    HW212609   8.537   5.598   8.059 -0.8035  0.0552  0.4259
 4011SOL     OW12610   6.925   9.772   7.035 -0.4437 -0.1664  0.3285
 4011SOL    HW112611   6.958   9.853   7.072  1.6932 -0.7510 -0.1621
 4011SOL    HW212612   6.874   9.799   6.958  1.6274  0.6741 -0.8133
 4012SOL     OW12613   2.095   4.213   0.015  0.4590  0.3347  0.0601
 4012SOL    HW112614   2.033   4.189  -0.054  0.4014  0.0363  0.2133
 4012SOL    HW212615   2.059   4.293   0.054 -0.0358 -0.0443  0.3994
 4013SOL     OW12616   1.479   3.604   4.070  0.1564  0.5100 -0.3764
 4013SOL    HW112617   1.388   3.577   4.057  0.8479 -1.3394 -1.7598
 4013SOL    HW212618   1.499   3.658   3.994  0.6651 -0.4212 -0.9227
 4014SOL     OW12619   5.594   9.728   6.758  0.3720  0.5393  0.1949
 4014SOL    HW112620   5.550   9.646   6.739 -1.0502  0.6889  2.4451
 4014SOL    HW212621   5.523   9.789   6.778  1.3836  2.3883 -1.4713
 4015SOL     OW12622   9.210   5.167   3.806  0.2352  0.2013  0.2688
 4015SOL    HW112623   9.149   5.095   3.819 -1.4249  1.4675 -0.1612
 4015SOL    HW212624   9.159   5.246   3.826  1.0367  1.4804 -2.2590
 4016SOL     OW12625   8.970   9.727   5.477 -0.2267  1.1629 -0.4374
 4016SOL    HW112626   8.981   9.653   5.417  1.1804  1.3864 -0.4751
 4016SOL    HW212627   9.036   9.791   5.450 -0.9643  2.1591  0.0341
 4017SOL     OW12628   5.766   8.395   8.942 -0.5202  0.0710  0.0264
 4017SOL    HW112629   5.712   8.404   8.863  1.5408 -1.0368 -1.5968
 4017SOL    HW212630   5.828   8.467   8.938 -0.2194 -0.1518  0.5047
 4018SOL     OW12631   3.712   1.122   2.908 -0.1777 -0.1054  0.1389
 4018SOL    HW112632   3.664   1.111   2.990 -0.0492 -0.1364  0.2106
 4018SOL    HW212633   3.660   1.184   2.857 -0.1093  0.1380  0.3629
 4019SOL     OW12634   9.746   2.096   2.991  1.1407 -0.2414 -0.2907
 4019SOL    HW112635   9.696   2.015   2.992 -0.2722  0.5785 -1.2237
 4019SOL    HW212636   9.693   2.157   3.043  2.0913  0.1411  0.2459
 4020SOL     OW12637   8.235   2.718   7.644 -0.0596  0.0773 -0.4787
 4020SOL    HW112638   8.238   2.813   7.647 -0.8234  0.1052 -0.3907
 4020SOL    HW212639   8.177   2.698   7.570  1.0667 -0.3431 -1.2858
 4021SOL     OW12640   6.677   1.740   8.453 -0.3104  0.7704 -0.2976
 4021SOL    HW112641   6.736   1.747   8.528 -1.4565  0.8092  0.6242
 4021SOL    HW212642   6.646   1.650   8.455 -0.7908  0.9343 -0.3948
 4022SOL     OW12643   5.654   2.284   0.953 -0.4989 -0.3579 -0.5810
 4022SOL    HW112644   5.742   2.305   0.922 -1.1677  1.8603 -1.1521
 4022SOL    HW212645   5.642   2.192   0.931  2.4895 -1.4096  1.5787
 4023SOL     OW12646   1.771   0.802   2.860  0.0565 -0.0559 -0.1353
 4023SOL    HW112647   1.788   0.718   2.902  0.5927  0.1761  0.1145
 4023SOL    HW212648   1.722   0.853   2.925 -0.6473 -0.3184 -0.4422
 4024SOL     OW12649   9.318   3.424   4.565 -0.2520  0.4148  0.7005
 4024SOL    HW112650   9.248   3.373   4.525  1.1852 -1.9794  0.9729
 4024SOL    HW212651   9.382   3.437   4.495 -0.3911  1.4456  0.7600
 4025SOL     OW12652   2.723   1.817   0.938  0.0880 -0.2316 -0.0552
 4025SOL    HW112653   2.717   1.796   0.845 -1.0112  1.0696 -0.3125
 4025SOL    HW212654   2.647   1.775   0.977  1.5563 -2.3973  0.6389
 4026SOL     OW12655   7.179   1.853   7.947 -0.0480  0.2384 -0.7141
 4026SOL    HW112656   7.159   1.924   8.008 -0.1860 -0.5597  0.1981
 4026SOL    HW212657   7.236   1.893   7.882  1.6960  0.7036  0.9979
 4027SOL     OW12658   1.579   2.236   8.729 -0.0508  0.3639 -0.0617
 4027SOL    HW112659   1.581   2.331   8.740 -0.5571  0.4236 -0.4291
 4027SOL    HW212660   1.492   2.210   8.759 -0.0109  0.0539 -0.2060
 4028SOL     OW12661   6.859   2.488   6.968  0.2507 -0.7278  0.3976
 4028SOL    HW112662   6.946   2.460   6.996  0.0662 -0.9240  0.7796
 4028SOL    HW212663   6.860   2.583   6.982  1.0713 -0.4230 -1.4324
 4029SOL     OW12664   3.277   5.446   7.699  0.1337  0.2415  0.1824
 4029SOL    HW112665   3.261   5.536   7.729  1.1554  0.4835  0.0285
 4029SOL    HW212666   3.367   5.428   7.725 -0.5370 -1.2924  1.5637
 4030SOL     OW12667   3.525   2.485   8.347  0.0154  0.2486  0.4877
 4030SOL    HW112668   3.432   2.471   8.331  0.0550  1.0437 -0.5704
 4030SOL    HW212669   3.528   2.570   8.392  0.2977  0.9899 -0.8638
 4031SOL     OW12670   9.734   2.582   8.026  0.6075 -0.2995  0.9999
 4031SOL    HW112671   9.713   2.548   8.113  0.1139  0.5615  1.2294
 4031SOL    HW212672   9.651   2.613   7.991  1.0798  0.9585  0.9338
 4032SOL     OW12673   3.201   8.812   9.380  0.7035  0.1792  0.1876
 4032SOL    HW112674   3.231   8.824   9.470 -0.9038  0.8712  0.6682
 4032SOL    HW212675   3.130   8.876   9.370  0.3426 -0.4219 -1.3214
 4033SOL     OW12676   7.926   5.405   7.685 -0.2910 -0.7367 -0.3569
 4033SOL    HW112677   7.972   5.478   7.643 -1.2572  0.7020  0.9728
 4033SOL    HW212678   7.990   5.368   7.746 -0.2668  0.0123  0.0836
 4034SOL     OW12679   7.578   4.145   1.908 -0.5590 -0.0786 -0.3502
 4034SOL    HW112680   7.522   4.082   1.861 -1.1888  0.1405  0.0985
 4034SOL    HW212681   7.664   4.135   1.867 -0.5852 -1.3964 -0.1523
 4035SOL     OW12682   4.589   7.309   9.008 -0.1318  0.5239 -0.6145
 4035SOL    HW112683   4.564   7.385   9.061  0.7700 -0.0244  0.6573
 4035SOL    HW212684   4.685   7.311   9.009 -0.1120  0.0092 -1.5247
 4036SOL     OW12685   0.672   0.843   8.796 -0.2482  0.0911  0.1642
 4036SOL    HW112686   0.710   0.861   8.710  1.1395 -2.0919  0.2497
 4036SOL    HW212687   0.622   0.762   8.785  1.6176 -1.3831  1.7963
 4037SOL     OW12688   3.083   2.320   2.878  0.0738 -0.3330  0.5972
 4037SOL    HW112689   3.141   2.270   2.820  0.8352 -1.0181  1.8949
 4037SOL    HW212690   3.074   2.265   2.956 -1.0039  0.5167  1.1056
 4038SOL     OW12691   6.480   6.921   5.853  0.3808 -0.3286  0.4986
 4038SOL    HW112692   6.427   6.934   5.774 -0.7698 -1.5296  1.0229
 4038SOL    HW212693   6.568   6.948   5.828  0.1553 -1.1672 -1.3735
 4039SOL     OW12694   5.140   5.098   4.447 -0.5454 -0.5313 -0.0749
 4039SOL    HW112695   5.159   5.139   4.532  1.4517  0.8277 -1.1092
 4039SOL    HW212696   5.061   5.142   4.417  0.4174  1.1688 -0.2307
 4040SOL     OW12697   1.417   3.521   8.516 -0.3902 -0.2092 -0.1306
 4040SOL    HW112698   1.372   3.553   8.594  3.0477 -1.0921  2.4736
 4040SOL    HW212699   1.456   3.599   8.477  0.4926 -0.0866  0.9500
 4041SOL     OW12700   4.899   1.801   6.455 -0.4508  0.2600 -0.2145
 4041SOL    HW112701   4.990   1.830   6.464 -0.3844  0.1911 -0.6500
 4041SOL    HW212702   4.899   1.747   6.376 -0.9651  0.6515 -0.4895
 4042SOL     OW12703   2.282   0.638   9.143 -0.3284 -0.0949 -0.3414
 4042SOL    HW112704   2.278   0.582   9.066 -0.8239  0.0108 -0.3930
 4042SOL    HW212705   2.207   0.612   9.196 -1.4770  1.5494 -1.0749
 4043SOL     OW12706   8.224   9.575   1.437 -0.0780 -0.7155  0.4977
 4043SOL    HW112707   8.288   9.504   1.429  0.7394  0.0471  0.1427
 4043SOL    HW212708   8.250   9.622   1.516  1.5241  1.2457 -1.1010
 4044SOL     OW12709   8.209   1.253   9.844 -0.3829  0.1933 -0.4225
 4044SOL    HW112710   8.290   1.257   9.793 -1.7904  1.8760 -2.7161
 4044SOL    HW212711   8.182   1.161   9.838 -0.4511  0.3090 -2.7375
 4045SOL     OW12712   7.677   3.474   1.819  0.2517  0.4851  0.3628
 4045SOL    HW112713   7.587   3.441   1.814 -0.4875  2.3002  1.0674
 4045SOL    HW212714   7.672   3.563   1.784  1.6457  0.8591  1.0566
 4046SOL     OW12715   2.574   4.434   9.589  0.2578 -1.1069  0.3120
 4046SOL    HW112716   2.519   4.431   9.511  0.6814 -0.5205 -0.0224
 4046SOL    HW212717   2.646   4.374   9.570  0.6487 -0.5526  0.0170
 4047SOL     OW12718   1.131   7.238   7.492  0.1890 -0.4783 -0.0164
 4047SOL    HW112719   1.178   7.189   7.560  0.5990  1.8335  1.4914
 4047SOL    HW212720   1.186   7.231   7.414  0.2531 -2.3131  0.1618
 4048SOL     OW12721   0.777   3.772   9.288 -0.0552  0.2491 -0.1675
 4048SOL    HW112722   0.739   3.740   9.370 -0.4815 -0.9446 -0.8065
 4048SOL    HW212723   0.704   3.769   9.225  0.3140  0.9664 -0.6436
 4049SOL     OW12724   8.293   4.323   3.351  0.4592 -0.0967  0.0999
 4049SOL    HW112725   8.261   4.263   3.284 -1.3569 -0.0766  0.8909
 4049SOL    HW212726   8.326   4.265   3.420 -1.1331 -0.2370  0.7881
 4050SOL     OW12727   0.625   0.755   7.631  0.4957 -0.4001 -0.1397
 4050SOL    HW112728   0.637   0.740   7.538  0.2862 -1.6066  0.0110
 4050SOL    HW212729   0.531   0.745   7.645  0.1625  2.1178 -0.1641
 4051SOL     OW12730   7.905   9.275   9.555  0.2258 -0.5732  0.6628
 4051SOL    HW112731   7.852   9.200   9.527  0.8785 -0.8484  0.1315
 4051SOL    HW212732   7.846   9.351   9.545  0.2077 -0.7484 -0.8565
 4052SOL     OW12733   0.105   9.787   3.963  0.2525  0.3051 -0.3355
 4052SOL    HW112734   0.147   9.853   3.906  3.3096 -0.5285  0.7535
 4052SOL    HW212735   0.111   9.824   4.051 -0.6027 -0.2344 -0.0387
 4053SOL     OW12736   0.624   7.058   1.882 -0.4769 -0.0846 -0.1543
 4053SOL    HW112737   0.532   7.075   1.900  0.1635  1.3518  2.1551
 4053SOL    HW212738   0.624   7.015   1.797 -3.1875  0.9328 -0.7749
 4054SOL     OW12739   6.783   7.464   0.868 -0.2654 -0.0515 -0.0185
 4054SOL    HW112740   6.829   7.398   0.817  0.4114  0.3868  0.0051
 4054SOL    HW212741   6.703   7.421   0.896 -0.8508 -0.1862 -1.7649
 4055SOL     OW12742   4.694   0.161   6.228  0.0025 -0.2333 -0.3677
 4055SOL    HW112743   4.665   0.134   6.141  0.9281 -1.6366 -0.2637
 4055SOL    HW212744   4.789   0.162   6.222  0.0763  2.5837 -0.1956
 4056SOL     OW12745   7.053   5.047   3.755  0.7851 -0.8266 -0.6665
 4056SOL    HW112746   7.086   4.959   3.773 -1.0449 -1.5043 -0.3437
 4056SOL    HW212747   7.059   5.093   3.839 -0.3803 -1.4189 -0.2369
 4057SOL     OW12748   9.035   1.840   1.825  0.5580  0.2780 -0.5790
 4057SOL    HW112749   9.052   1.934   1.823 -1.0692  0.6886  1.6865
 4057SOL    HW212750   8.978   1.824   1.749  1.8522  0.8330 -1.7165
 4058SOL     OW12751   9.794   5.459   9.480  0.4151 -0.0658 -0.3610
 4058SOL    HW112752   9.755   5.385   9.527 -0.4131  0.8254  0.3863
 4058SOL    HW212753   9.739   5.534   9.503  2.5340  1.2543  0.7480
 4059SOL     OW12754   2.584   2.589   3.784  0.1800  0.0609 -0.5067
 4059SOL    HW112755   2.679   2.590   3.774  0.1334 -2.2595 -1.9610
 4059SOL    HW212756   2.555   2.521   3.723 -2.4802  1.1387 -0.5421
 4060SOL     OW12757   7.743   6.058   4.098  0.0285 -0.4071 -0.1804
 4060SOL    HW112758   7.749   6.146   4.060 -1.9917 -0.6964 -1.3093
 4060SOL    HW212759   7.750   5.999   4.023 -0.8961 -1.1132  0.2732
 4061SOL     OW12760   7.446   7.358   5.722  0.4335  0.4442 -0.5740
 4061SOL    HW112761   7.495   7.429   5.764  0.5692 -1.3664  2.5749
 4061SOL    HW212762   7.386   7.326   5.789 -2.2895 -0.1124 -3.0391
 4062SOL     OW12763   2.793   5.206   7.929 -0.4981  0.3221 -0.0140
 4062SOL    HW112764   2.771   5.250   7.846 -1.9213  0.4991  0.4172
 4062SOL    HW212765   2.887   5.193   7.926 -0.5638 -0.0081 -1.8357
 4063SOL     OW12766   5.961   8.962   8.843  0.8257  0.0516 -0.0702
 4063SOL    HW112767   5.942   8.932   8.754 -0.3775 -0.3980  0.3122
 4063SOL    HW212768   6.038   8.913   8.869  1.6961  0.8041 -1.1533
 4064SOL     OW12769   1.385   9.942   5.862 -0.0395 -0.1446  0.2804
 4064SOL    HW112770   1.433   9.879   5.808  2.1581  1.4758  0.1734
 4064SOL    HW212771   1.403  10.027   5.820 -0.4036  0.8778  2.0912
 4065SOL     OW12772   5.459   1.834   4.488  0.6096 -0.6917  0.6156
 4065SOL    HW112773   5.493   1.891   4.557 -0.5021  0.0907  0.5546
 4065SOL    HW212774   5.398   1.889   4.439  0.7691 -1.4642 -0.5076
 4066SOL     OW12775   6.269   6.825   0.880 -0.3144  0.3416  0.3584
 4066SOL    HW112776   6.315   6.802   0.800 -1.0889  0.5448 -0.1605
 4066SOL    HW212777   6.243   6.741   0.919  0.5785  0.2231  0.7171
 4067SOL     OW12778   2.795   2.201   7.206 -0.2357 -0.5530 -0.9587
 4067SOL    HW112779   2.874   2.175   7.253 -0.0676  0.2827 -0.7621
 4067SOL    HW212780   2.796   2.148   7.126  0.0595 -1.1803 -0.5441
 4068SOL     OW12781   1.778   2.971   0.787  0.5235 -0.5122  1.0300
 4068SOL    HW112782   1.718   2.902   0.816  0.9597 -0.9531  0.8997
 4068SOL    HW212783   1.828   2.993   0.866 -0.8863  0.9963  1.5497
 4069SOL     OW12784   9.322   8.334   4.863  0.5485 -0.0205  0.3033
 4069SOL    HW112785   9.248   8.383   4.900  0.0700  1.3959 -2.2556
 4069SOL    HW212786   9.344   8.270   4.929 -0.2029  2.2736  2.9681
 4070SOL     OW12787   4.986   2.081   6.398 -0.1182 -0.1512  0.4025
 4070SOL    HW112788   4.926   2.033   6.341 -0.9897  1.8693 -0.4766
 4070SOL    HW212789   4.944   2.166   6.411  1.2477  0.3300  2.0800
 4071SOL     OW12790   0.507   0.442   5.763 -0.3489  0.3224 -0.2087
 4071SOL    HW112791   0.550   0.373   5.714  0.6235  0.7512  0.0201
 4071SOL    HW212792   0.430   0.400   5.803  0.4831 -0.7351  0.3197
 4072SOL     OW12793   9.506   8.907   3.787 -0.3248 -0.3201 -0.2723
 4072SOL    HW112794   9.474   8.997   3.779  1.2554  0.1632 -1.7159
 4072SOL    HW212795   9.438   8.854   3.746 -1.2377  0.1938  0.5249
 4073SOL     OW12796   4.591   6.093   9.109  0.0149  0.0595 -0.0875
 4073SOL    HW112797   4.652   6.037   9.062  1.0683 -0.3876  1.6896
 4073SOL    HW212798   4.569   6.043   9.188  0.0408  1.6336  0.9649
 4074SOL     OW12799   3.017   2.488   6.553 -0.0694 -0.0346  0.0605
 4074SOL    HW112800   3.078   2.511   6.624 -1.2562  1.3014  0.7016
 4074SOL    HW212801   3.048   2.539   6.478  0.8561 -1.0190 -0.2452
 4075SOL     OW12802   7.777   8.261   8.663  0.5085  0.4474  0.4400
 4075SOL    HW112803   7.754   8.343   8.707 -1.0185  0.3312 -0.0638
 4075SOL    HW212804   7.702   8.204   8.678  0.5850 -0.0921 -1.0717
 4076SOL     OW12805   2.777   6.643   8.479  0.5787  0.1265  0.2236
 4076SOL    HW112806   2.713   6.594   8.428 -0.0197 -0.0795  1.1458
 4076SOL    HW212807   2.819   6.576   8.534  0.7991  0.4259  0.4232
 4077SOL     OW12808   3.075   1.420   9.434 -0.0072  0.2385  0.1674
 4077SOL    HW112809   3.144   1.392   9.495  0.3574 -0.6225 -0.6222
 4077SOL    HW212810   3.098   1.511   9.413 -0.4437  0.7294  1.7156
 4078SOL     OW12811   4.395   5.298   3.014  0.3874  0.4987  0.3389
 4078SOL    HW112812   4.356   5.221   2.973  0.8076  1.4727 -2.0704
 4078SOL    HW212813   4.329   5.366   3.006  0.8444  0.9596  0.3969
 4079SOL     OW12814   8.603   2.802   9.670  0.0044 -0.2671  0.0796
 4079SOL    HW112815   8.540   2.862   9.710 -1.4088 -0.8273 -1.2443
 4079SOL    HW212816   8.559   2.717   9.670  1.1883 -0.9028  0.0732
 4080SOL     OW12817   4.640   9.676   7.572 -1.1608  0.3439  0.0054
 4080SOL    HW112818   4.552   9.700   7.599 -1.2912 -0.5650  0.4287
 4080SOL    HW212819   4.697   9.714   7.639 -1.3085  0.0478  0.2982
 4081SOL     OW12820   8.639   2.471   3.724  0.1069  0.1067  0.1472
 4081SOL    HW112821   8.591   2.552   3.740 -0.2154  0.1041 -0.7459
 4081SOL    HW212822   8.573   2.402   3.731  0.4700 -0.1364  1.3786
 4082SOL     OW12823   3.816   7.781   9.012  0.3304  0.2478 -0.6903
 4082SOL    HW112824   3.726   7.752   9.027  0.2907  0.0643 -1.2625
 4082SOL    HW212825   3.860   7.764   9.095 -0.0128 -0.2301 -0.5990
 4083SOL     OW12826   0.075   6.051   0.845 -0.0962  0.1577  0.0472
 4083SOL    HW112827   0.016   5.999   0.791  0.6452 -1.0751  0.3605
 4083SOL    HW212828   0.081   6.135   0.801  1.3332 -1.1428 -2.4641
 4084SOL     OW12829   4.788   7.782   0.722  0.2936  0.5720 -0.7836
 4084SOL    HW112830   4.728   7.791   0.648  0.7560 -1.4176 -1.4732
 4084SOL    HW212831   4.739   7.733   0.787  0.3237  1.2117 -0.2637
 4085SOL     OW12832   7.645   7.099   8.414  0.2494  0.2983  0.2200
 4085SOL    HW112833   7.654   7.048   8.495  1.2326  0.0667 -0.0286
 4085SOL    HW212834   7.626   7.188   8.445 -2.7467 -0.3584  0.6492
 4086SOL     OW12835   2.520   1.558   8.285 -0.5123 -0.5128  0.4202
 4086SOL    HW112836   2.582   1.550   8.357  1.1861  0.9600 -0.7520
 4086SOL    HW212837   2.542   1.486   8.226 -1.6984 -1.5349  1.1766
 4087SOL     OW12838   3.359   1.640   8.687 -0.2025  0.1775  0.4627
 4087SOL    HW112839   3.431   1.597   8.641  0.1052 -0.7055  1.7338
 4087SOL    HW212840   3.401   1.689   8.757 -0.7331  0.8062  0.3502
 4088SOL     OW12841   3.024   0.564   8.743  0.1049  0.3309 -0.2389
 4088SOL    HW112842   2.938   0.571   8.702 -0.1760  0.2899  0.3242
 4088SOL    HW212843   3.052   0.474   8.726  0.0138  0.3299 -0.3832
 4089SOL     OW12844   8.370   8.979   0.403  0.1085  0.2219  0.3305
 4089SOL    HW112845   8.312   8.907   0.378  0.3525 -0.0537  0.5388
 4089SOL    HW212846   8.451   8.935   0.431  0.0225  0.5357  1.1080
 4090SOL     OW12847   4.469   1.121   8.461  0.5278  0.2882 -0.3416
 4090SOL    HW112848   4.380   1.109   8.428  1.1276  1.2632 -2.4801
 4090SOL    HW212849   4.468   1.209   8.499  0.7614  0.5930 -1.0361
 4091SOL     OW12850   0.817   5.534   5.767 -0.5070 -0.1059 -0.5889
 4091SOL    HW112851   0.888   5.594   5.744  0.9829 -1.9493 -1.0765
 4091SOL    HW212852   0.764   5.528   5.688  0.6958 -1.1682 -1.3664
 4092SOL     OW12853   2.785   9.581   7.186  0.3650  0.5477 -0.3387
 4092SOL    HW112854   2.850   9.530   7.234  0.4647  0.2277 -0.8156
 4092SOL    HW212855   2.832   9.659   7.156  0.2413  0.8710  0.2895
 4093SOL     OW12856   7.947   2.810   6.395  0.0209 -0.1272  0.3291
 4093SOL    HW112857   7.914   2.779   6.479 -0.4892 -0.5642 -0.0301
 4093SOL    HW212858   8.040   2.827   6.411  0.2296 -1.4459  0.6462
 4094SOL     OW12859   5.424   6.136   0.607  0.3620  0.3899 -0.2686
 4094SOL    HW112860   5.377   6.212   0.641 -0.4826 -0.0468 -0.4189
 4094SOL    HW212861   5.450   6.087   0.685 -1.0909 -0.3277 -0.2092
 4095SOL     OW12862   6.715   6.228   7.679  0.0754 -0.1516 -0.5031
 4095SOL    HW112863   6.784   6.176   7.720 -0.7084 -2.3890 -1.8466
 4095SOL    HW212864   6.761   6.282   7.615  0.8133  0.0504  0.1807
 4096SOL     OW12865   5.997   1.939   1.638  0.6540  0.2275  0.4293
 4096SOL    HW112866   5.939   1.902   1.706 -0.1388  1.8290  0.6855
 4096SOL    HW212867   6.085   1.911   1.664  0.0974 -1.5782  0.4996
 4097SOL     OW12868   9.804   9.687   8.860  0.1525  0.4939 -0.2350
 4097SOL    HW112869   9.714   9.675   8.832  0.5863 -1.3607 -0.9403
 4097SOL    HW212870   9.836   9.761   8.808 -1.4506  2.3991  1.3458
 4098SOL     OW12871   5.264   4.837   8.083  0.7023  0.4120  0.8411
 4098SOL    HW112872   5.258   4.927   8.052 -0.5716 -0.1984 -0.8836
 4098SOL    HW212873   5.346   4.833   8.133  1.1485  2.3160  0.3202
 4099SOL     OW12874   4.618   9.503   5.812  0.2428 -0.4676 -0.3137
 4099SOL    HW112875   4.634   9.589   5.850  2.2758 -1.9100  2.5772
 4099SOL    HW212876   4.525   9.487   5.827  0.3154  0.3518  1.2644
 4100SOL     OW12877   0.547   0.059   8.277 -0.2471  0.0543  0.4668
 4100SOL    HW112878   0.473   0.060   8.217  0.5864 -2.2091 -0.6853
 4100SOL    HW212879   0.507   0.058   8.364 -1.4965  1.1132 -0.0625
 4101SOL     OW12880   4.750   8.214   6.059 -0.2278 -0.3931  0.1088
 4101SOL    HW112881   4.802   8.262   6.124 -2.2743  1.8204  0.2650
 4101SOL    HW212882   4.764   8.261   5.977 -1.9273  0.3269  0.1718
 4102SOL     OW12883   3.398   6.701   7.463 -0.1369 -0.2954 -0.6339
 4102SOL    HW112884   3.407   6.624   7.408  2.9879 -1.5832  1.3849
 4102SOL    HW212885   3.473   6.756   7.441  0.2875 -0.0988  1.1141
 4103SOL     OW12886   3.060   2.999   7.429  0.1441 -0.3365 -0.0069
 4103SOL    HW112887   3.069   2.919   7.378  0.6594 -1.2273  1.4346
 4103SOL    HW212888   3.135   3.052   7.404  0.1797 -0.5895 -0.4494
 4104SOL     OW12889   1.112   6.625   0.115  0.2684  0.5848  0.4853
 4104SOL    HW112890   1.062   6.661   0.188  0.8562  1.8902  0.2802
 4104SOL    HW212891   1.078   6.670   0.038  1.2144  0.9350  0.2538
 4105SOL     OW12892   7.227   0.822   0.403  0.0659 -0.1298 -0.1245
 4105SOL    HW112893   7.317   0.845   0.427 -0.0540  1.1795 -0.8684
 4105SOL    HW212894   7.173   0.888   0.446 -0.5033 -0.5150 -0.2351
 4106SOL     OW12895   8.884   4.055   6.009  0.1701  0.3436  0.2941
 4106SOL    HW112896   8.806   4.001   5.995  0.6312 -0.0069 -1.1106
 4106SOL    HW212897   8.901   4.094   5.923  0.7186  1.5465  0.9364
 4107SOL     OW12898   3.699   0.089   3.019 -0.1868  0.4019  0.7617
 4107SOL    HW112899   3.740   0.093   2.932 -2.4169  1.5727 -0.3419
 4107SOL    HW212900   3.708   0.178   3.053 -1.4590  0.6066  0.6163
 4108SOL     OW12901   9.444   9.294   5.844  0.5323  0.0734  0.1058
 4108SOL    HW112902   9.445   9.390   5.848 -0.7406  0.2524 -2.1933
 4108SOL    HW212903   9.467   9.273   5.754 -0.8648 -1.7117  0.0999
 4109SOL     OW12904   4.690   0.289   8.084  0.0315  0.6771 -0.5869
 4109SOL    HW112905   4.598   0.301   8.061 -0.5049  1.3811  1.7374
 4109SOL    HW212906   4.721   0.376   8.107  1.0321  0.3023 -0.4695
 4110SOL     OW12907   8.563   8.286   4.365  0.1419  0.3220  0.1331
 4110SOL    HW112908   8.534   8.252   4.281  0.6191 -3.5218  1.3521
 4110SOL    HW212909   8.568   8.381   4.352 -0.3867 -0.0410 -3.9238
 4111SOL     OW12910   9.348   3.998   1.026  0.0465  0.3645 -0.1352
 4111SOL    HW112911   9.418   4.063   1.032  0.3814 -0.1475  2.5034
 4111SOL    HW212912   9.369   3.933   1.093 -2.1533 -0.6280 -0.3256
 4112SOL     OW12913   1.433   7.773   5.551  0.4623 -0.5235 -0.2088
 4112SOL    HW112914   1.338   7.789   5.557  0.4587 -0.2447 -0.9154
 4112SOL    HW212915   1.441   7.690   5.504  0.5773  0.2375 -1.6076
 4113SOL     OW12916   8.048   3.168   2.330 -0.2363  0.1565 -0.0722
 4113SOL    HW112917   8.016   3.250   2.367  0.5911 -0.1134  1.3239
 4113SOL    HW212918   8.134   3.190   2.294 -0.3521  0.0633 -0.4113
 4114SOL     OW12919   8.410   0.717   5.109 -1.1283 -0.2706 -1.1640
 4114SOL    HW112920   8.504   0.734   5.121 -1.7851  1.6414  2.4856
 4114SOL    HW212921   8.378   0.793   5.060 -1.2909  0.9312  0.7229
 4115SOL     OW12922   8.161   1.988   5.113  0.6599 -0.3792  0.3095
 4115SOL    HW112923   8.202   2.041   5.044 -0.4872  0.2493  0.0802
 4115SOL    HW212924   8.190   1.899   5.095 -0.8155 -0.4951 -1.9652
 4116SOL     OW12925   4.709   2.249   4.846  0.3744  0.4785 -0.2590
 4116SOL    HW112926   4.631   2.268   4.899 -0.8946 -0.7220 -1.6276
 4116SOL    HW212927   4.766   2.200   4.905 -0.1492  0.8539  0.5824
 4117SOL     OW12928   0.404   1.141   1.744 -0.8418 -0.1170  0.1655
 4117SOL    HW112929   0.313   1.126   1.719 -0.6938 -0.3201 -0.2633
 4117SOL    HW212930   0.430   1.060   1.788  0.3522 -1.8247 -3.2828
 4118SOL     OW12931   0.226   9.211   7.359  1.0360 -0.7686  0.2546
 4118SOL    HW112932   0.311   9.172   7.375  1.9157  1.5312  1.7728
 4118SOL    HW212933   0.184   9.213   7.445  0.9461  1.2803  0.2085
 4119SOL     OW12934   8.193   0.066   6.232 -0.2553 -0.4594  0.4942
 4119SOL    HW112935   8.152   0.035   6.152  1.1893  0.2440 -0.5518
 4119SOL    HW212936   8.247  -0.008   6.261 -0.2877 -0.4866  0.4868
 4120SOL     OW12937   4.704   5.527   1.210 -0.1327  0.0767 -0.3088
 4120SOL    HW112938   4.759   5.458   1.249 -0.3182  0.2972  0.3590
 4120SOL    HW212939   4.760   5.604   1.209 -0.5912  0.4533  0.9095
 4121SOL     OW12940   4.076   5.500   3.847  0.1014  0.1594  0.2900
 4121SOL    HW112941   4.028   5.563   3.793 -1.3153 -0.6938  0.4959
 4121SOL    HW212942   4.039   5.415   3.823  2.4512 -0.7184 -0.4770
 4122SOL     OW12943   7.284   3.550   4.848  0.2266 -0.2852 -0.4349
 4122SOL    HW112944   7.251   3.634   4.813  0.9868 -0.5393 -1.8535
 4122SOL    HW212945   7.205   3.498   4.862 -0.1868  0.2833 -0.5856
 4123SOL     OW12946   0.270   6.231   1.216  0.0691  0.1225 -0.3247
 4123SOL    HW112947   0.191   6.200   1.171  0.7081  0.0755 -1.4614
 4123SOL    HW212948   0.243   6.243   1.307 -1.2802  0.2200 -0.7125
 4124SOL     OW12949   4.486   1.398   8.708 -0.1401 -0.0852 -0.0734
 4124SOL    HW112950   4.445   1.312   8.713 -0.4309 -0.0832 -1.7884
 4124SOL    HW212951   4.566   1.384   8.657 -0.5442  0.7550 -0.9745
 4125SOL     OW12952   6.427   7.760   6.729  0.2371  0.2467 -0.5477
 4125SOL    HW112953   6.492   7.822   6.695  0.1658 -0.7016 -2.5598
 4125SOL    HW212954   6.480   7.694   6.774  0.3648  1.3104  0.9451
 4126SOL     OW12955   3.093   9.763   7.485  0.5765 -0.2254  0.1890
 4126SOL    HW112956   3.090   9.756   7.390 -0.7434  0.2454  0.1800
 4126SOL    HW212957   3.154   9.835   7.502 -0.9774  1.2743 -0.3967
 4127SOL     OW12958   0.618   3.194   9.760  0.4650  0.2725  0.4095
 4127SOL    HW112959   0.714   3.186   9.762  0.4326 -0.1058  0.4778
 4127SOL    HW212960   0.602   3.288   9.745  0.8621 -0.0466 -2.6765
 4128SOL     OW12961   6.204   8.838   0.178 -0.3379  0.0163  0.1784
 4128SOL    HW112962   6.206   8.879   0.092 -0.4335  0.5700  0.4368
 4128SOL    HW212963   6.118   8.798   0.184 -0.4302  0.2056  0.1223
 4129SOL     OW12964   3.404   9.936   2.764 -0.1939  0.4786  0.6694
 4129SOL    HW112965   3.311   9.943   2.740 -0.0648  1.7277  0.4771
 4129SOL    HW212966   3.433  10.026   2.775  1.1740  0.1448  0.0595
 4130SOL     OW12967   1.806   2.851   8.680  0.8278 -0.0038 -0.1885
 4130SOL    HW112968   1.864   2.894   8.617  1.9532 -0.4010  0.5377
 4130SOL    HW212969   1.767   2.923   8.730  1.5507  0.2405  0.0369
 4131SOL     OW12970   7.986   5.381   3.985  0.2875 -0.5166  0.7275
 4131SOL    HW112971   7.913   5.417   4.035  1.5589  2.2408  0.7526
 4131SOL    HW212972   8.061   5.390   4.042  1.1958 -0.3249 -0.4622
 4132SOL     OW12973   9.502   6.273   1.328 -0.0823  0.2105  0.3875
 4132SOL    HW112974   9.457   6.251   1.246 -0.0992 -1.0344  0.6988
 4132SOL    HW212975   9.496   6.368   1.335  0.8234  0.4383 -1.5630
 4133SOL     OW12976   3.655   6.783   9.618 -0.0247  0.3936 -0.4437
 4133SOL    HW112977   3.659   6.736   9.701 -0.6269 -0.6534 -0.9918
 4133SOL    HW212978   3.614   6.867   9.639 -0.4076  0.0325  0.2623
 4134SOL     OW12979   1.614   0.702   7.910  0.3166 -0.7528  0.0526
 4134SOL    HW112980   1.574   0.668   7.830  1.2310 -1.2987 -0.1948
 4134SOL    HW212981   1.583   0.645   7.979 -2.1058  0.9127  0.4755
 4135SOL     OW12982   6.810   7.321   5.824  0.2739  0.0455  0.3849
 4135SOL    HW112983   6.814   7.311   5.729 -0.3680 -0.2044  0.3796
 4135SOL    HW212984   6.717   7.309   5.845  0.6258 -1.4978  1.2091
 4136SOL     OW12985   6.881   6.865   3.289  0.2212  0.1298 -0.5294
 4136SOL    HW112986   6.952   6.863   3.224 -1.1944  0.4541 -2.1542
 4136SOL    HW212987   6.884   6.778   3.330  3.2699  1.0233  1.4627
 4137SOL     OW12988   8.931   0.129   1.863 -0.0942  0.3338  0.4879
 4137SOL    HW112989   8.913   0.202   1.803  1.4520  0.6190  0.3195
 4137SOL    HW212990   8.948   0.055   1.805  0.9610  0.5023  0.5634
 4138SOL     OW12991   4.190   9.096   9.051 -0.1693  0.1324 -0.3106
 4138SOL    HW112992   4.155   9.055   8.972 -2.3164 -2.1467  1.6723
 4138SOL    HW212993   4.196   9.189   9.029 -1.8369 -0.2440 -2.7506
 4139SOL     OW12994   2.385   1.481   9.003  0.5328 -0.3518 -0.1632
 4139SOL    HW112995   2.439   1.428   9.063 -2.2066 -0.7849  2.1387
 4139SOL    HW212996   2.407   1.448   8.916  0.7374 -3.7059  0.9794
 4140SOL     OW12997   1.722   3.162   3.192 -0.3097 -0.1357 -0.2863
 4140SOL    HW112998   1.716   3.186   3.284  1.3404 -0.3165 -0.1038
 4140SOL    HW212999   1.816   3.159   3.174 -0.5551 -1.8022 -1.5275
 4141SOL     OW13000   7.520   5.954   6.306 -0.0505 -0.0923  0.3616
 4141SOL    HW113001   7.517   6.049   6.299 -0.2841 -0.0954  0.4225
 4141SOL    HW213002   7.565   5.925   6.226 -1.2051 -0.0190 -0.3390
 4142SOL     OW13003   4.971   7.709   1.075 -0.2051  0.1904  0.0512
 4142SOL    HW113004   4.929   7.634   1.033  1.1003 -1.5466  1.6980
 4142SOL    HW213005   4.955   7.697   1.168  2.2764  0.4543  0.5867
 4143SOL     OW13006   6.721   3.276   5.730 -0.0758 -0.6691 -0.1039
 4143SOL    HW113007   6.639   3.259   5.684  0.8195 -0.6362 -1.7903
 4143SOL    HW213008   6.750   3.189   5.758 -0.3952 -0.7484 -0.0112
 4144SOL     OW13009   1.325   4.462   4.074 -0.5933  0.2772 -0.1307
 4144SOL    HW113010   1.306   4.383   4.124  0.5941  0.2213  0.2578
 4144SOL    HW213011   1.252   4.521   4.092 -0.4363  0.0612  1.2530
 4145SOL     OW13012   2.390   0.781   0.639  0.0530 -0.3938  0.2261
 4145SOL    HW113013   2.319   0.794   0.576  0.4109 -1.3329 -0.3790
 4145SOL    HW213014   2.421   0.692   0.623  1.7203  0.1655  0.1285
 4146SOL     OW13015   1.658   9.397   4.047  0.0969 -0.6334 -0.1118
 4146SOL    HW113016   1.644   9.448   4.127 -0.8385  0.4379 -0.9359
 4146SOL    HW213017   1.690   9.312   4.079  2.2066  0.5743  1.2938
 4147SOL     OW13018   7.991   6.872   4.240 -0.2668  0.1011 -0.2094
 4147SOL    HW113019   8.075   6.829   4.222  0.3300  0.3099  1.8661
 4147SOL    HW213020   7.929   6.799   4.250 -0.1742 -0.0845 -0.9004
 4148SOL     OW13021   7.763   4.569   5.372 -0.0518  0.0282  0.0546
 4148SOL    HW113022   7.763   4.664   5.374 -1.5898  0.0812 -0.6319
 4148SOL    HW213023   7.781   4.543   5.462  1.1235  0.9453  0.0968
 4149SOL     OW13024   3.662   3.998   1.367 -0.2113  0.4196 -0.2916
 4149SOL    HW113025   3.596   3.955   1.421 -0.0691 -1.6241 -1.6385
 4149SOL    HW213026   3.701   4.065   1.424 -1.8597  0.1317  1.2355
 4150SOL     OW13027   0.716   2.949   7.326 -0.0997  0.2224 -0.3258
 4150SOL    HW113028   0.712   2.856   7.349  0.9710  0.0493 -0.7920
 4150SOL    HW213029   0.809   2.969   7.323 -0.3147  1.2077 -0.6489
 4151SOL     OW13030   4.981   0.284   0.869  0.0522 -0.0029 -0.0419
 4151SOL    HW113031   4.991   0.201   0.823  0.2943 -0.5719  1.0032
 4151SOL    HW213032   4.947   0.344   0.803 -1.1713 -1.2006 -0.5567
 4152SOL     OW13033   4.563   3.644   2.200  0.5759 -0.1781  0.0581
 4152SOL    HW113034   4.583   3.738   2.199 -1.5955  0.3307 -0.5691
 4152SOL    HW213035   4.592   3.614   2.286 -1.4715  1.7692  1.5293
 4153SOL     OW13036   0.648   6.035   6.548  0.5626 -0.6321 -0.4725
 4153SOL    HW113037   0.724   6.091   6.534 -0.8152  1.1270 -1.4315
 4153SOL    HW213038   0.667   5.956   6.498  1.1266  0.4169 -2.0113
 4154SOL     OW13039   0.591   0.131   9.475  0.3932 -0.1581  0.4407
 4154SOL    HW113040   0.618   0.125   9.566 -0.8261 -0.0626  0.8165
 4154SOL    HW213041   0.652   0.194   9.436  0.2853  0.5800  1.4359
 4155SOL     OW13042   6.995   1.413   5.430  0.2910  0.1009  0.3479
 4155SOL    HW113043   7.017   1.320   5.420 -0.6970 -0.3388  1.9221
 4155SOL    HW213044   6.991   1.426   5.524 -1.0807  1.3889  0.1339
 4156SOL     OW13045   5.552   6.018   9.464 -0.1850 -0.0920  0.1368
 4156SOL    HW113046   5.534   5.992   9.554  0.8080  0.3337  0.4700
 4156SOL    HW213047   5.538   6.112   9.463 -2.7362 -0.3877 -0.8154
 4157SOL     OW13048   3.521   3.568   9.230  0.1203 -0.6114  0.0537
 4157SOL    HW113049   3.433   3.577   9.195 -0.0547 -1.2311  0.3152
 4157SOL    HW213050   3.522   3.481   9.271  0.7097 -0.4262  0.4482
 4158SOL     OW13051   4.604   3.132   6.475 -0.3064 -0.6289 -0.3996
 4158SOL    HW113052   4.601   3.163   6.566 -0.6053 -0.9860 -0.2867
 4158SOL    HW213053   4.552   3.197   6.427 -0.8951 -0.9239 -0.1706
 4159SOL     OW13054   3.327   3.752   0.447  0.4005  0.7586 -0.1072
 4159SOL    HW113055   3.386   3.769   0.373  0.0264  1.7040 -0.1978
 4159SOL    HW213056   3.382   3.762   0.524  1.4746 -2.7644 -0.2170
 4160SOL     OW13057   5.935   6.954   3.974 -0.2780  0.0710 -0.7730
 4160SOL    HW113058   5.906   6.863   3.982  3.0189 -0.9846  1.2293
 4160SOL    HW213059   5.997   6.953   3.900  1.2740  0.1327  0.4642
 4161SOL     OW13060   8.613   6.034   1.816  0.1011  0.1064  0.1269
 4161SOL    HW113061   8.676   5.977   1.862  1.2775  2.6871  1.9614
 4161SOL    HW213062   8.661   6.065   1.740  0.2841  0.3655  0.3438
 4162SOL     OW13063   1.453   4.287   3.088 -0.2284 -0.1517 -0.0297
 4162SOL    HW113064   1.365   4.284   3.051  0.3256 -0.6830 -1.3732
 4162SOL    HW213065   1.496   4.360   3.043  0.0607  0.0251  0.5252
 4163SOL     OW13066   8.769   0.407   5.279  0.5052 -0.1593  0.4218
 4163SOL    HW113067   8.739   0.466   5.348 -0.9767 -0.8093  0.3642
 4163SOL    HW213068   8.689   0.382   5.233  1.5354  1.0937 -2.2439
 4164SOL     OW13069   2.545   8.993   7.851  0.8073  0.5753  0.3740
 4164SOL    HW113070   2.486   8.999   7.776  0.3200  2.5322  0.8415
 4164SOL    HW213071   2.549   8.900   7.871  1.7737 -0.1686 -2.6839
 4165SOL     OW13072   7.022   7.504   7.213  0.2742 -0.1973  0.1602
 4165SOL    HW113073   7.055   7.483   7.126  1.6701 -1.4948  0.9524
 4165SOL    HW213074   6.999   7.597   7.208  0.1197 -0.2874 -1.6241
 4166SOL     OW13075   6.029   9.588   5.252  0.3680 -0.5954 -0.0012
 4166SOL    HW113076   5.948   9.553   5.288 -0.5690 -0.1015 -1.5671
 4166SOL    HW213077   6.047   9.535   5.175  1.7198 -0.8791  0.4673
 4167SOL     OW13078   2.544   7.300   0.480 -0.9671  0.1478  0.2339
 4167SOL    HW113079   2.579   7.382   0.446 -0.0539  0.0415  0.8598
 4167SOL    HW213080   2.513   7.322   0.568 -0.8444 -0.1390  0.3508
 4168SOL     OW13081   7.530   8.080   0.196 -0.3025 -0.6276 -0.6856
 4168SOL    HW113082   7.526   8.163   0.148 -3.0429 -0.8145 -0.8977
 4168SOL    HW213083   7.592   8.027   0.146 -0.3598  0.4300 -1.9420
 4169SOL     OW13084   4.658   9.642   0.090 -0.2912  0.5196  0.4682
 4169SOL    HW113085   4.564   9.646   0.109 -0.5438  1.0612 -0.7698
 4169SOL    HW213086   4.663   9.647  -0.005  1.0018  0.4795  0.5167
 4170SOL     OW13087   8.861   6.814   0.919  0.5779 -0.5507  0.1910
 4170SOL    HW113088   8.822   6.880   0.862  1.2510 -0.6608 -0.4025
 4170SOL    HW213089   8.787   6.758   0.946 -0.3325  1.3899  2.0611
 4171SOL     OW13090   6.751   7.902   1.374  0.2311 -0.5389 -0.5271
 4171SOL    HW113091   6.762   7.830   1.437  0.8104  1.1877  1.4563
 4171SOL    HW213092   6.668   7.942   1.398  1.4296  1.4249  0.6059
 4172SOL     OW13093   1.805   0.825   4.612  0.1457  0.1221  0.2413
 4172SOL    HW113094   1.846   0.873   4.540  1.7838 -2.1641 -0.4902
 4172SOL    HW213095   1.732   0.881   4.640  0.2666  1.7284 -2.2745
 4173SOL     OW13096   0.964   4.779  10.000  0.2140  0.2563 -0.6656
 4173SOL    HW113097   0.896   4.744   9.942  0.9807  0.3015 -1.6298
 4173SOL    HW213098   0.967   4.873   9.980 -0.9880  0.6947  1.0215
 4174SOL     OW13099   2.115   8.927   7.458  0.3829 -0.0219  0.0792
 4174SOL    HW113100   2.068   8.983   7.396  1.9734  0.5915 -0.6233
 4174SOL    HW213101   2.049   8.865   7.489 -1.1896  1.5700  0.0867
 4175SOL     OW13102   4.329   0.196   5.298 -0.2573  0.6536 -0.1346
 4175SOL    HW113103   4.350   0.267   5.359 -2.2099  0.5653  0.7211
 4175SOL    HW213104   4.252   0.227   5.250 -1.4776 -1.0100  0.6179
 4176SOL     OW13105   3.814   2.108   0.652 -0.1765  0.0593  0.0429
 4176SOL    HW113106   3.789   2.183   0.597 -1.6894 -0.5771 -0.1828
 4176SOL    HW213107   3.853   2.045   0.591  1.0825  0.6137  0.2304
 4177SOL     OW13108   4.571   0.376   3.404  0.0964  0.4327 -0.1309
 4177SOL    HW113109   4.524   0.297   3.377  0.5327 -0.1168  0.6653
 4177SOL    HW213110   4.607   0.412   3.323 -0.5746  0.1246 -0.5700
 4178SOL     OW13111   9.275   8.501   2.497  0.4537  0.1656 -0.0267
 4178SOL    HW113112   9.198   8.446   2.506  2.1031 -2.0447  1.4070
 4178SOL    HW213113   9.309   8.512   2.586  1.3737  1.7735 -0.5161
 4179SOL     OW13114   0.882   1.665   9.640 -0.8831 -0.4132 -0.2997
 4179SOL    HW113115   0.890   1.608   9.563  1.1154  0.4910 -0.8565
 4179SOL    HW213116   0.865   1.752   9.603 -0.1605 -0.0133  0.2813
 4180SOL     OW13117   6.218   0.873   0.796 -0.6608 -0.2724 -1.2166
 4180SOL    HW113118   6.190   0.834   0.713  1.2175 -1.8518 -1.1833
 4180SOL    HW213119   6.252   0.959   0.773 -2.3136  0.2974 -1.6972
 4181SOL     OW13120   4.262   7.341   4.478 -0.4762 -0.6563 -0.3010
 4181SOL    HW113121   4.229   7.299   4.557 -2.5433 -1.1188 -1.3345
 4181SOL    HW213122   4.238   7.433   4.488  0.6732 -0.4045  0.2810
 4182SOL     OW13123   5.162   5.782   7.191 -0.7845 -0.0267 -0.0634
 4182SOL    HW113124   5.077   5.767   7.232 -1.0965  0.2920 -0.5947
 4182SOL    HW213125   5.161   5.730   7.111  0.1760 -1.3797  0.7503
 4183SOL     OW13126   3.074   4.306   5.774 -0.1290  0.3258 -0.3157
 4183SOL    HW113127   3.009   4.300   5.845 -0.4311  1.4661 -0.4798
 4183SOL    HW213128   3.091   4.215   5.751  1.0086 -0.1633  2.1256
 4184SOL     OW13129   4.124   2.396   3.417 -0.1337  0.5048 -0.8161
 4184SOL    HW113130   4.103   2.323   3.476 -0.7790  1.4854  0.2012
 4184SOL    HW213131   4.039   2.438   3.401  0.5442  2.7820  0.9937
 4185SOL     OW13132   8.475   9.889   6.591  0.1178  0.3994  0.4762
 4185SOL    HW113133   8.568   9.869   6.604 -0.1862 -0.4391  1.4819
 4185SOL    HW213134   8.443   9.909   6.679 -0.6017  0.9775  0.0962
 4186SOL     OW13135   5.642   5.110   1.360 -1.0233  0.0075  0.3501
 4186SOL    HW113136   5.691   5.034   1.393 -0.7186  0.5761  1.2572
 4186SOL    HW213137   5.586   5.074   1.291  0.9807 -0.5963 -1.0666
 4187SOL     OW13138   8.711   3.815   9.758 -0.5088 -0.2772 -0.2715
 4187SOL    HW113139   8.706   3.878   9.686 -0.0422  0.3804  0.2560
 4187SOL    HW213140   8.668   3.860   9.832  0.0533 -0.4706  0.1806
 4188SOL     OW13141   5.806   4.787   1.208 -0.2947  0.0570 -0.0465
 4188SOL    HW113142   5.814   4.778   1.114 -0.0455 -0.0350 -0.0159
 4188SOL    HW213143   5.841   4.874   1.227 -1.2931  0.5024 -0.1588
 4189SOL     OW13144   7.366   6.302   2.213  0.9542  0.3808 -0.0829
 4189SOL    HW113145   7.416   6.361   2.270  0.6334 -0.8843  1.5579
 4189SOL    HW213146   7.416   6.220   2.213 -0.5644 -0.5903  0.7862
 4190SOL     OW13147   7.383   5.604   3.585  0.2387  0.4066  0.2545
 4190SOL    HW113148   7.387   5.537   3.516 -1.8765  0.5860 -0.0953
 4190SOL    HW213149   7.333   5.675   3.547 -1.3378  0.3460  2.0835
 4191SOL     OW13150   5.631   9.518   3.545  0.7149  0.1993  0.3375
 4191SOL    HW113151   5.607   9.499   3.636 -0.7129  0.8862  0.1268
 4191SOL    HW213152   5.627   9.433   3.501 -0.3750  0.1297  0.5394
 4192SOL     OW13153   2.118   1.924   4.359 -0.1567  0.0193  0.0544
 4192SOL    HW113154   2.209   1.900   4.376  1.1479  4.6391  1.0848
 4192SOL    HW213155   2.112   1.930   4.264  1.4913  2.1140  0.0212
 4193SOL     OW13156   0.991   8.694   1.157  0.3502 -0.2772  0.1244
 4193SOL    HW113157   1.083   8.721   1.160  0.4506 -0.1930 -2.0337
 4193SOL    HW213158   0.995   8.603   1.127 -0.2174 -1.1169  2.3668
 4194SOL     OW13159   2.032   1.303   2.313 -0.1002  0.3150 -0.2717
 4194SOL    HW113160   2.032   1.228   2.253  0.4424 -0.3730  0.5478
 4194SOL    HW213161   2.120   1.341   2.305 -0.4826  1.0720 -0.9261
 4195SOL     OW13162   9.655   4.628   8.490  0.1748  0.0460 -0.9507
 4195SOL    HW113163   9.661   4.698   8.556  1.3362  0.5990 -1.6059
 4195SOL    HW213164   9.733   4.575   8.505  0.1905 -0.1051 -1.5560
 4196SOL     OW13165   6.699   3.386   0.904 -0.0527 -0.0114  0.4442
 4196SOL    HW113166   6.604   3.383   0.899 -0.0224 -0.6708  0.1144
 4196SOL    HW213167   6.726   3.295   0.894  0.5642  0.0345  1.5624
 4197SOL     OW13168   7.238   9.173   2.125 -0.3032  0.4125 -0.0971
 4197SOL    HW113169   7.177   9.179   2.199  0.3751  0.2423  0.4853
 4197SOL    HW213170   7.319   9.141   2.164 -0.3610 -1.1064 -1.1529
 4198SOL     OW13171   0.855   3.517   4.405 -0.1820 -0.1563 -0.2120
 4198SOL    HW113172   0.884   3.597   4.361 -0.2551 -1.2398 -2.3902
 4198SOL    HW213173   0.767   3.502   4.371 -0.5966 -0.6010  1.0177
 4199SOL     OW13174   5.845   3.322   2.639 -1.4416 -0.1156  0.2024
 4199SOL    HW113175   5.867   3.245   2.587  0.8720  0.6725 -0.0981
 4199SOL    HW213176   5.925   3.342   2.689 -3.0751  0.0705  2.9591
 4200SOL     OW13177   6.055   1.069   3.827  0.6441 -0.4279  0.0952
 4200SOL    HW113178   6.093   1.003   3.885  0.6456  0.5147  1.2122
 4200SOL    HW213179   6.127   1.130   3.810  0.0901  0.4796  0.8924
 4201SOL     OW13180   6.026   1.527  10.001 -0.2646  0.3748 -0.2287
 4201SOL    HW113181   6.069   1.605  10.037 -2.4548  1.5750 -0.0771
 4201SOL    HW213182   6.028   1.540   9.906 -1.9227  1.4137 -0.1634
 4202SOL     OW13183   0.404   2.489   5.851  0.5851  0.6116  0.2792
 4202SOL    HW113184   0.452   2.566   5.881 -1.2968  2.1861 -0.6115
 4202SOL    HW213185   0.380   2.509   5.761 -1.4978 -0.2079  0.5944
 4203SOL     OW13186   9.177   1.222   3.023 -0.3190  0.3271 -0.6878
 4203SOL    HW113187   9.190   1.214   2.929  1.0311  1.8836 -0.6662
 4203SOL    HW213188   9.261   1.198   3.062 -0.4264  1.0663  0.0385
 4204SOL     OW13189   3.582   0.786   7.272 -0.0730  0.2651  0.0212
 4204SOL    HW113190   3.542   0.703   7.296 -1.1313  1.1225  1.4288
 4204SOL    HW213191   3.559   0.799   7.180 -0.0436 -0.8991 -0.1558
 4205SOL     OW13192   4.808   9.227   5.743 -0.1853 -0.6185 -0.0866
 4205SOL    HW113193   4.784   9.220   5.835  0.8857  0.3683  0.3035
 4205SOL    HW213194   4.875   9.295   5.742 -1.1655  0.3819 -1.7824
 4206SOL     OW13195   0.507   1.994   0.208 -0.1503  0.2694 -0.1657
 4206SOL    HW113196   0.599   1.990   0.235  0.4982  1.1974 -2.0563
 4206SOL    HW213197   0.508   2.044   0.127 -2.4784  1.2171  0.3135
 4207SOL     OW13198   6.349   7.790   4.468  0.2712 -0.1981  0.1783
 4207SOL    HW113199   6.271   7.735   4.470  0.5289 -0.6205 -0.6439
 4207SOL    HW213200   6.387   7.783   4.555  0.1555 -1.1285  0.1620
 4208SOL     OW13201   1.716   5.213   7.194 -0.6869  0.4397 -0.4447
 4208SOL    HW113202   1.643   5.214   7.257 -1.5399 -1.7980 -1.2863
 4208SOL    HW213203   1.678   5.250   7.114  0.2118  2.6755  0.0936
 4209SOL     OW13204   3.484   8.110   4.654  0.2480  0.5798  0.3636
 4209SOL    HW113205   3.501   8.172   4.584 -0.5223  1.7004  1.1193
 4209SOL    HW213206   3.417   8.051   4.619 -1.4112  2.1766  0.6708
 4210SOL     OW13207   9.359   7.028   3.692  0.0035  0.2764  0.4569
 4210SOL    HW113208   9.324   7.030   3.602 -0.4399  1.6242  0.6340
 4210SOL    HW213209   9.309   6.959   3.735 -1.3869  1.1179  0.2652
 4211SOL     OW13210   8.735   8.644   7.681  0.5823 -0.1281 -0.1861
 4211SOL    HW113211   8.778   8.708   7.624  0.5726  1.2173  1.2368
 4211SOL    HW213212   8.642   8.653   7.660  0.5097  0.8609  0.4776
 4212SOL     OW13213   4.071   2.172   4.192 -0.1836  0.2836  0.3308
 4212SOL    HW113214   4.138   2.238   4.204  0.0272  0.2539 -0.6545
 4212SOL    HW213215   4.011   2.185   4.266  0.1347  1.2239  0.4298
 4213SOL     OW13216   6.542   1.343   7.279 -0.2905  0.0700  0.1830
 4213SOL    HW113217   6.593   1.409   7.327  1.0633 -0.2861 -0.6907
 4213SOL    HW213218   6.535   1.270   7.339  1.4452 -0.3947 -0.1026
 4214SOL     OW13219   8.769   0.082   0.206 -0.3918  0.2062  0.4065
 4214SOL    HW113220   8.684   0.049   0.236 -1.0829  2.2619  0.8222
 4214SOL    HW213221   8.810   0.116   0.285 -0.2461  1.4765 -0.2030
 4215SOL     OW13222   5.889   9.639   8.092  0.0945 -0.1661 -0.4663
 4215SOL    HW113223   5.879   9.677   8.005  3.6477  2.2776 -0.0339
 4215SOL    HW213224   5.902   9.714   8.150  4.1732 -1.7187  1.0151
 4216SOL     OW13225   8.953   9.280   6.351 -0.2728 -0.2480 -0.2996
 4216SOL    HW113226   8.915   9.222   6.285 -0.3281  0.3462 -0.7962
 4216SOL    HW213227   8.973   9.360   6.303  0.9624 -0.2922  0.0995
 4217SOL     OW13228   6.215   1.486   1.125  0.5449  0.6973 -0.1430
 4217SOL    HW113229   6.289   1.426   1.131 -0.4634 -0.5491  0.1789
 4217SOL    HW213230   6.159   1.463   1.200 -0.4196  1.2575 -0.6696
 4218SOL     OW13231   4.036   9.209   1.704  0.1067  0.0559 -0.2078
 4218SOL    HW113232   4.063   9.171   1.621  0.6907  0.0151 -0.0011
 4218SOL    HW213233   4.110   9.195   1.763  0.4170  1.6893 -0.1801
 4219SOL     OW13234   8.821   2.635   4.029  0.0416  0.1304  1.1712
 4219SOL    HW113235   8.765   2.563   4.059 -1.7031  1.5829  1.5445
 4219SOL    HW213236   8.763   2.691   3.977  1.8063  0.3379 -0.6910
 4220SOL     OW13237   1.957   2.835   5.599  0.2020 -0.6854 -0.3054
 4220SOL    HW113238   1.989   2.918   5.565  2.8726 -1.2218  0.6846
 4220SOL    HW213239   1.937   2.783   5.520 -0.9339  0.6167 -0.9243
 4221SOL     OW13240   7.187   2.889   4.961 -0.1601  0.0472  0.4216
 4221SOL    HW113241   7.144   2.972   4.939 -0.6928 -0.4130 -0.3082
 4221SOL    HW213242   7.227   2.905   5.047  0.2390  1.2397  0.0319
 4222SOL     OW13243   6.329   2.683   8.430  0.1755  0.2175 -0.0520
 4222SOL    HW113244   6.394   2.614   8.421 -0.3160 -0.5917  2.0574
 4222SOL    HW213245   6.342   2.739   8.353  0.1847 -2.5238 -2.2053
 4223SOL     OW13246   1.580   2.464   1.305  0.2663 -0.7834  0.6648
 4223SOL    HW113247   1.670   2.456   1.336  0.3859  2.3301  1.4202
 4223SOL    HW213248   1.587   2.510   1.221 -0.6093  1.5441  1.7585
 4224SOL     OW13249   6.340   5.739   2.285 -0.0519 -0.1398 -0.0500
 4224SOL    HW113250   6.301   5.786   2.358  0.6249 -0.2830  0.4166
 4224SOL    HW213251   6.324   5.646   2.304  0.8143 -0.2241  0.3467
 4225SOL     OW13252   0.802   8.477   5.964 -0.3665  0.0569 -0.0818
 4225SOL    HW113253   0.765   8.550   6.014 -1.2677  1.2618 -2.3422
 4225SOL    HW213254   0.742   8.404   5.979 -0.2777  0.2036  1.0354
 4226SOL     OW13255   9.367   4.774   4.960 -0.0704 -0.1490 -0.2729
 4226SOL    HW113256   9.416   4.692   4.960  0.4107  0.1373 -0.3829
 4226SOL    HW213257   9.416   4.832   5.017 -1.1336 -0.3516  0.8992
 4227SOL     OW13258   7.150   5.699   3.015  0.1053 -0.3418  1.0089
 4227SOL    HW113259   7.138   5.612   3.055 -1.0523 -0.5958  0.1495
 4227SOL    HW213260   7.135   5.685   2.922 -0.7330  0.8952  0.9376
 4228SOL     OW13261   0.678   1.881   2.404 -0.2520  0.2515  0.1928
 4228SOL    HW113262   0.588   1.910   2.393 -0.8290 -0.9915  1.3013
 4228SOL    HW213263   0.700   1.906   2.494 -0.3933 -1.6277  0.8038
 4229SOL     OW13264   9.376   2.242   1.573  0.3967 -0.1399 -0.1052
 4229SOL    HW113265   9.334   2.287   1.646 -0.8559  0.9310 -1.4134
 4229SOL    HW213266   9.329   2.159   1.566  0.9290 -0.5138  0.6695
 4230SOL     OW13267   3.829   6.084   5.009  0.5841 -0.1357  0.2972
 4230SOL    HW113268   3.905   6.031   5.032 -0.3018 -1.6273 -0.0718
 4230SOL    HW213269   3.807   6.131   5.089  0.9600 -0.8784  0.8476
 4231SOL     OW13270   3.894   5.182   0.711  0.8586  0.0540 -0.2354
 4231SOL    HW113271   3.864   5.181   0.803 -0.7058  1.9131 -0.6403
 4231SOL    HW213272   3.984   5.213   0.716  0.6593  0.5469  0.6713
 4232SOL     OW13273   1.227   8.965   8.274  0.2671 -0.3895  0.0264
 4232SOL    HW113274   1.293   8.912   8.319  1.8886 -0.6578 -2.5239
 4232SOL    HW213275   1.145   8.918   8.289  0.6161 -0.2888  2.8808
 4233SOL     OW13276   4.514   1.983   9.296  0.3557  0.2690  0.3445
 4233SOL    HW113277   4.494   2.072   9.324 -0.5823 -0.0253  0.6272
 4233SOL    HW213278   4.448   1.928   9.338  2.7091 -0.9893  2.6698
 4234SOL     OW13279   9.501   0.927   8.728  0.1718  0.5602  0.0315
 4234SOL    HW113280   9.520   0.843   8.768  0.8265  0.8006  0.2380
 4234SOL    HW213281   9.547   0.991   8.783 -1.0217  1.1481  0.3997
 4235SOL     OW13282   6.490   4.809   7.684 -0.0223 -0.3048 -0.1817
 4235SOL    HW113283   6.494   4.904   7.694 -0.7147 -0.2799 -0.0419
 4235SOL    HW213284   6.539   4.775   7.759 -1.5888 -0.0633  1.0201
 4236SOL     OW13285   5.656   3.120   7.027 -0.2240 -0.5776 -0.1124
 4236SOL    HW113286   5.736   3.093   6.981  0.2040  0.5536 -0.0512
 4236SOL    HW213287   5.676   3.108   7.120 -0.4220 -1.0617 -0.1276
 4237SOL     OW13288   5.843   2.196   4.577 -0.2208  0.1486  1.0225
 4237SOL    HW113289   5.870   2.105   4.590  0.3531  0.1889  0.1764
 4237SOL    HW213290   5.884   2.222   4.495 -2.3568  0.3978 -0.0491
 4238SOL     OW13291   4.444   1.125   9.796 -0.5437  0.6721 -0.5496
 4238SOL    HW113292   4.386   1.140   9.721 -3.8997  0.5286  1.8246
 4238SOL    HW213293   4.454   1.211   9.836  1.0825  0.7154 -0.9711
 4239SOL     OW13294   3.704   2.689   8.023 -0.4123  0.1008 -0.0613
 4239SOL    HW113295   3.624   2.739   8.004 -0.3808 -0.5801 -2.1539
 4239SOL    HW213296   3.737   2.661   7.938  2.1037  0.3715  0.7221
 4240SOL     OW13297   3.847   4.228   7.454  0.0715  0.1490 -0.1807
 4240SOL    HW113298   3.934   4.257   7.479  0.1865 -0.5826  0.3254
 4240SOL    HW213299   3.793   4.306   7.457  0.0884  0.1440  2.3655
 4241SOL     OW13300   9.730   8.296   8.044  0.1449  0.4769 -0.0644
 4241SOL    HW113301   9.807   8.294   7.986  1.9522 -1.1283  2.1941
 4241SOL    HW213302   9.717   8.389   8.063  1.5948  0.7931 -0.4544
 4242SOL     OW13303   3.177  -0.022   6.195  0.1237 -0.2171  0.1785
 4242SOL    HW113304   3.130  -0.024   6.112 -0.6026  0.3024  0.5707
 4242SOL    HW213305   3.178   0.071   6.220  2.0966 -0.0730 -0.2291
 4243SOL     OW13306   5.113   8.224   9.122 -0.5216 -0.2392 -0.6768
 4243SOL    HW113307   5.120   8.129   9.127  0.7262 -0.2882 -2.3696
 4243SOL    HW213308   5.049   8.241   9.053 -1.7834  0.1965  0.5471
 4244SOL     OW13309   0.781   6.083   5.185  0.0311  0.3961  0.0675
 4244SOL    HW113310   0.823   6.081   5.099 -1.0010  1.0788 -0.4690
 4244SOL    HW213311   0.694   6.118   5.168  0.3230  2.0115  1.6255
 4245SOL     OW13312   3.985   7.935   6.233 -0.0835 -0.1849 -0.3119
 4245SOL    HW113313   3.923   7.881   6.184  0.8374 -2.5142  0.9383
 4245SOL    HW213314   4.061   7.943   6.176 -0.7088  0.9992 -1.0333
 4246SOL     OW13315   3.863   9.483   1.015 -0.4747  0.7022  0.5887
 4246SOL    HW113316   3.781   9.484   1.064 -1.0794  0.0925 -0.3813
 4246SOL    HW213317   3.925   9.439   1.073 -0.7392  1.4293  1.4484
 4247SOL     OW13318   1.957   4.568   1.328  0.0281  0.6366  0.1133
 4247SOL    HW113319   2.015   4.517   1.385 -0.0178  1.1085  0.5840
 4247SOL    HW213320   2.013   4.593   1.254 -0.2484 -1.0896 -0.7368
 4248SOL     OW13321   0.033   9.091   1.403 -0.1886  0.3369 -0.1635
 4248SOL    HW113322  -0.062   9.087   1.416 -0.1096  0.5094  0.5482
 4248SOL    HW213323   0.051   9.027   1.334 -0.4458 -2.2049  1.9592
 4249SOL     OW13324   5.945   7.221   3.528  0.2158 -0.2859 -0.1694
 4249SOL    HW113325   5.977   7.247   3.442  0.9997 -0.3041  0.1116
 4249SOL    HW213326   5.941   7.126   3.525  0.3058 -0.2893 -0.1563
 4250SOL     OW13327   7.638   3.932   6.841  0.7816  0.2963 -0.0244
 4250SOL    HW113328   7.685   3.859   6.801 -1.0718 -2.7691  2.8285
 4250SOL    HW213329   7.554   3.934   6.795  0.2408 -0.4645  0.8992
 4251SOL     OW13330   1.241   5.338   0.416 -0.4252  0.1142  0.1577
 4251SOL    HW113331   1.168   5.399   0.423 -0.7627 -0.1261 -1.0323
 4251SOL    HW213332   1.261   5.335   0.322  1.5840  0.7128  0.5223
 4252SOL     OW13333   1.261   1.417   4.126  0.2077  0.4663  0.0979
 4252SOL    HW113334   1.243   1.476   4.199  0.3766  2.1484 -1.1566
 4252SOL    HW213335   1.224   1.462   4.050 -0.8139 -1.6652 -0.7519
 4253SOL     OW13336   2.443   1.373   6.762  0.0099  0.3103  0.4414
 4253SOL    HW113337   2.500   1.316   6.710 -0.6121 -0.3162  0.4265
 4253SOL    HW213338   2.363   1.322   6.774  0.4759  0.0397  2.8193
 4254SOL     OW13339   7.850   8.628   7.330  0.1574  0.3072  0.1243
 4254SOL    HW113340   7.927   8.577   7.353  0.7830  0.9054 -0.6040
 4254SOL    HW213341   7.846   8.625   7.235  0.3576  1.8112  0.0441
 4255SOL     OW13342   0.997   8.221   8.261 -0.2882  0.3670  0.0491
 4255SOL    HW113343   0.999   8.259   8.173 -0.7594  0.8126  0.2319
 4255SOL    HW213344   1.089   8.218   8.287  0.0645 -1.4213 -1.1589
 4256SOL     OW13345   9.102   2.188   9.072  0.0913  0.3310  0.6177
 4256SOL    HW113346   9.111   2.093   9.061 -0.6859  0.2388  0.7444
 4256SOL    HW213347   9.013   2.208   9.043  0.4191  1.1035  0.1147
 4257SOL     OW13348   7.175   4.567   1.964 -0.3463  0.1060  0.8866
 4257SOL    HW113349   7.264   4.532   1.972 -0.2174  0.7363  2.5086
 4257SOL    HW213350   7.122   4.492   1.936  0.6931 -0.2572 -0.1908
 4258SOL     OW13351   2.538   0.073   8.391  0.4993 -0.1113 -0.5611
 4258SOL    HW113352   2.595   0.128   8.336  0.2952 -0.1742 -0.8374
 4258SOL    HW213353   2.531  -0.009   8.343 -1.5257  0.6000 -1.6169
 4259SOL     OW13354   7.941   0.136   9.022  0.8112 -0.7780 -0.0270
 4259SOL    HW113355   7.853   0.101   9.037  0.9106 -0.9997  0.0433
 4259SOL    HW213356   7.927   0.210   8.963  0.3214  0.6710  1.7985
 4260SOL     OW13357   7.868   7.822   4.010 -0.7459  0.2269 -0.0972
 4260SOL    HW113358   7.865   7.895   4.072 -2.1966 -0.2976  0.4785
 4260SOL    HW213359   7.842   7.861   3.927 -1.4071  0.3993  0.1831
 4261SOL     OW13360   0.451   1.492   4.122 -0.7342  0.1208 -0.2968
 4261SOL    HW113361   0.439   1.417   4.181 -2.1821  1.5999  1.3960
 4261SOL    HW213362   0.364   1.533   4.117 -0.1740  1.2046 -1.8880
 4262SOL     OW13363   7.936   7.093   7.014  0.1887 -0.0163  0.5601
 4262SOL    HW113364   7.925   7.131   7.101  2.1175  0.7513  0.5298
 4262SOL    HW213365   7.904   7.160   6.954  0.6749  0.2677  0.6159
 4263SOL     OW13366   1.078   0.229   4.587  0.4119 -0.0302  0.2225
 4263SOL    HW113367   1.026   0.159   4.626 -0.8109  1.5515  1.6078
 4263SOL    HW213368   1.168   0.210   4.613  0.1336 -1.2281  0.3432
 4264SOL     OW13369   3.919   0.048   4.301 -0.4785 -0.5910  0.4862
 4264SOL    HW113370   3.913   0.057   4.396  1.3772  0.8088  0.5314
 4264SOL    HW213371   3.853   0.109   4.267 -2.3858 -2.3657  0.8120
 4265SOL     OW13372   8.696   7.270   0.538  0.1969 -0.0242  0.5021
 4265SOL    HW113373   8.685   7.205   0.468 -1.9401  1.5179 -0.7212
 4265SOL    HW213374   8.657   7.229   0.615 -3.0671  0.4272 -0.7457
 4266SOL     OW13375   7.724   9.729   9.821 -0.2619 -0.1051 -0.7608
 4266SOL    HW113376   7.724   9.799   9.886 -1.7667 -0.9340  0.1973
 4266SOL    HW213377   7.815   9.698   9.819 -0.2010 -0.1861  1.1396
 4267SOL     OW13378   2.760   5.749   5.914 -0.8513 -0.2322 -0.3484
 4267SOL    HW113379   2.729   5.669   5.873  1.8183 -1.6919  0.2240
 4267SOL    HW213380   2.807   5.795   5.844  0.1399 -0.6707  0.0069
 4268SOL     OW13381   3.429   6.138   7.323  0.7031 -0.1648  0.1115
 4268SOL    HW113382   3.349   6.179   7.290 -0.3371 -2.0432  0.1734
 4268SOL    HW213383   3.398   6.064   7.376  2.4736 -0.7392  0.4046
 4269SOL     OW13384   5.526   9.663   9.886 -0.2106 -0.1612 -0.4045
 4269SOL    HW113385   5.572   9.688   9.806 -1.1486 -0.3342 -1.0110
 4269SOL    HW213386   5.556   9.727   9.951  0.2376  0.2478 -0.9964
 4270SOL     OW13387   2.440   8.835   9.525  0.0957  0.5267 -0.0164
 4270SOL    HW113388   2.491   8.840   9.606 -0.2633 -0.3764  0.2775
 4270SOL    HW213389   2.349   8.827   9.555  0.1143 -2.1361 -0.4099
 4271SOL     OW13390   4.400   1.577   1.703  0.1729  0.3131  0.1344
 4271SOL    HW113391   4.337   1.534   1.645  1.9657 -0.0580 -1.6284
 4271SOL    HW213392   4.443   1.642   1.648  0.7584  1.1570  1.5403
 4272SOL     OW13393   6.442   3.905   4.761 -0.1496  0.1082 -0.2554
 4272SOL    HW113394   6.502   3.854   4.816 -1.1078 -0.1945  0.5259
 4272SOL    HW213395   6.499   3.943   4.693  1.1053  0.6903  1.0712
 4273SOL     OW13396   1.733   8.420   4.903  0.2931 -0.2244 -0.2203
 4273SOL    HW113397   1.750   8.493   4.962  0.7872 -0.1896 -0.4014
 4273SOL    HW213398   1.663   8.370   4.946 -0.4066  0.6250 -0.3475
 4274SOL     OW13399   1.677   5.246   1.908 -0.5880  0.1330  0.0172
 4274SOL    HW113400   1.731   5.277   1.980  2.3086  0.0809 -1.9676
 4274SOL    HW213401   1.637   5.325   1.871 -1.8862  0.1813  1.4310
 4275SOL     OW13402   4.415   8.563   5.374 -0.5473 -0.2314  0.0128
 4275SOL    HW113403   4.330   8.578   5.332 -0.3554 -0.3417 -0.4129
 4275SOL    HW213404   4.450   8.651   5.389  0.5900 -0.1699 -2.5155
 4276SOL     OW13405   7.357   2.987   4.151  0.1574  0.5812  0.3036
 4276SOL    HW113406   7.404   2.929   4.210  0.0338  0.1034 -0.0663
 4276SOL    HW213407   7.275   2.942   4.133  0.9616 -0.2010 -1.7307
 4277SOL     OW13408   6.812   1.207   2.396 -0.2565  0.1076 -0.0512
 4277SOL    HW113409   6.907   1.217   2.392 -0.1928 -0.3150  0.2593
 4277SOL    HW213410   6.786   1.252   2.476 -0.4430  1.0608 -0.6394
 4278SOL     OW13411   7.461   3.322   4.836  0.0306  0.5624 -0.1045
 4278SOL    HW113412   7.405   3.379   4.889 -0.2865  0.4078 -0.2689
 4278SOL    HW213413   7.399   3.270   4.784  0.3378  0.7528 -0.6690
 4279SOL     OW13414   0.181   8.779   7.634 -0.6744  0.1852  0.5119
 4279SOL    HW113415   0.208   8.692   7.665 -2.3626 -0.9703 -1.0745
 4279SOL    HW213416   0.117   8.808   7.698 -0.0529  0.3203  1.0869
 4280SOL     OW13417   5.802   8.689   0.587 -0.2443  0.0954 -0.3729
 4280SOL    HW113418   5.821   8.615   0.646 -0.3249  0.4788  0.1423
 4280SOL    HW213419   5.738   8.742   0.635  0.3445  0.8790 -0.4406
 4281SOL     OW13420   6.125   3.855   2.918  0.4361  0.6102 -0.7258
 4281SOL    HW113421   6.196   3.800   2.951 -0.1883  0.0318 -0.3449
 4281SOL    HW213422   6.045   3.817   2.954 -0.1420  0.8010 -1.7703
 4282SOL     OW13423   9.277   0.639   1.466  0.1999  0.1775 -0.2557
 4282SOL    HW113424   9.201   0.695   1.480 -0.1352  0.8701 -3.8670
 4282SOL    HW213425   9.245   0.550   1.483 -0.6181  0.6597  0.8385
 4283SOL     OW13426   7.088   5.342   5.450  0.5413 -0.2990  0.7741
 4283SOL    HW113427   7.139   5.422   5.441 -0.0390  0.3097  2.4373
 4283SOL    HW213428   7.111   5.308   5.536 -0.6388 -0.8829  0.8911
 4284SOL     OW13429   3.439   6.181   5.966 -0.4224 -0.2455 -0.1120
 4284SOL    HW113430   3.349   6.208   5.951  0.0446  2.1553  1.0527
 4284SOL    HW213431   3.453   6.193   6.060  1.1843 -0.2967 -0.3159
 4285SOL     OW13432   4.183   0.375   3.021  0.2835  0.3785 -0.1485
 4285SOL    HW113433   4.274   0.386   3.046  0.6949 -0.2858 -1.2547
 4285SOL    HW213434   4.178   0.284   2.990 -0.7320  0.4310 -0.1775
 4286SOL     OW13435   6.822   3.333   1.302  0.0222  0.2451 -0.2300
 4286SOL    HW113436   6.818   3.419   1.261 -2.0348  0.2993  0.0179
 4286SOL    HW213437   6.765   3.339   1.378  0.0091 -1.2838 -0.0801
 4287SOL     OW13438   7.783   6.703   4.289 -0.8631  0.2661  0.0466
 4287SOL    HW113439   7.733   6.626   4.315  0.0808  0.1530  1.6210
 4287SOL    HW213440   7.733   6.777   4.324 -0.2548  0.1866  1.1066
 4288SOL     OW13441   7.631   5.187   8.177 -0.0255  0.3130  0.2299
 4288SOL    HW113442   7.679   5.126   8.234  0.1487 -0.5851 -0.8363
 4288SOL    HW213443   7.560   5.134   8.141 -1.0434  1.2826  0.7708
 4289SOL     OW13444   5.078   2.040   9.652  0.0665 -0.3989  0.2668
 4289SOL    HW113445   5.051   2.111   9.594  0.3652 -0.5099 -0.0082
 4289SOL    HW213446   5.161   2.010   9.616  0.5272 -0.1048  1.0764
 4290SOL     OW13447   8.451   4.622   6.210 -0.1522  0.0177 -0.2490
 4290SOL    HW113448   8.418   4.538   6.240 -0.2859  0.6526  1.5031
 4290SOL    HW213449   8.541   4.604   6.181  0.4753 -0.4468  1.8015
 4291SOL     OW13450   1.033   4.907   5.263 -0.8121 -0.3759 -0.5014
 4291SOL    HW113451   1.120   4.878   5.239  0.1157  0.7132  1.3167
 4291SOL    HW213452   0.979   4.828   5.264  0.7576 -1.4691  0.7979
 4292SOL     OW13453   1.906   8.337   9.913  0.2441 -0.2222 -0.2523
 4292SOL    HW113454   1.880   8.282   9.839  1.9302  1.0554 -1.8852
 4292SOL    HW213455   1.929   8.275   9.982 -3.5277 -1.4512  0.1513
 4293SOL     OW13456   2.617   2.065   0.993  0.5488 -0.0989  0.2001
 4293SOL    HW113457   2.661   1.985   0.967  0.3135 -0.4383  0.8374
 4293SOL    HW213458   2.554   2.081   0.923  1.6169  0.3586 -0.6852
 4294SOL     OW13459   5.472   7.879   6.533 -0.1657  0.0566 -0.1922
 4294SOL    HW113460   5.471   7.790   6.567  1.2730  0.0907 -0.0086
 4294SOL    HW213461   5.520   7.929   6.599 -0.8943  0.9605 -0.3314
 4295SOL     OW13462   0.527   5.570   6.506 -0.5404 -0.0193  0.7660
 4295SOL    HW113463   0.599   5.591   6.446 -0.5415 -0.3774  0.6370
 4295SOL    HW213464   0.490   5.489   6.471  2.3905 -2.9572  3.8282
 4296SOL     OW13465   1.148   2.507   7.717 -0.4187  0.2477  0.0879
 4296SOL    HW113466   1.236   2.542   7.732 -0.1495 -0.4659  0.2570
 4296SOL    HW213467   1.094   2.583   7.699 -0.1396  0.8745  1.7556
 4297SOL     OW13468   6.026   9.607   4.265  0.3627  0.4102  0.0667
 4297SOL    HW113469   6.062   9.665   4.198 -1.1133 -0.9124 -2.0461
 4297SOL    HW213470   5.935   9.636   4.276 -0.1510 -0.9024 -0.4129
 4298SOL     OW13471   1.570   9.080   3.406  0.4125 -0.4633 -0.1519
 4298SOL    HW113472   1.562   9.161   3.457 -2.9675 -0.4111 -0.5997
 4298SOL    HW213473   1.649   9.039   3.441  0.5825  1.5763  2.1696
 4299SOL     OW13474   0.497   2.170   4.336 -0.1797  0.0677  0.3674
 4299SOL    HW113475   0.556   2.242   4.360 -0.7539  1.3006 -1.6297
 4299SOL    HW213476   0.422   2.179   4.395 -0.1435  0.9941  0.2882
 4300SOL     OW13477   7.697   2.225   8.546  0.3281  0.6169 -0.3613
 4300SOL    HW113478   7.784   2.252   8.518  0.2114  0.2275 -1.1130
 4300SOL    HW213479   7.702   2.223   8.641  1.4937 -0.5457 -0.4197
 4301SOL     OW13480   2.222   5.723   6.162  0.2647  0.3107 -0.1953
 4301SOL    HW113481   2.253   5.687   6.245 -0.5639 -1.9763 -0.7908
 4301SOL    HW213482   2.172   5.801   6.187 -0.6031 -0.7352  1.5795
 4302SOL     OW13483   2.127   5.787   8.598 -0.4417  0.4400  0.2708
 4302SOL    HW113484   2.112   5.761   8.689 -1.4452  0.8285  0.2278
 4302SOL    HW213485   2.039   5.801   8.562 -0.3180 -2.8386 -1.7025
 4303SOL     OW13486   7.886   6.247   0.148 -0.4341 -0.5375 -0.2032
 4303SOL    HW113487   7.848   6.334   0.154  0.9870  0.0257  2.5310
 4303SOL    HW213488   7.852   6.200   0.225  1.2360 -1.2870  0.1388
 4304SOL     OW13489   4.631   6.107   2.453  0.0171 -0.6940  0.1382
 4304SOL    HW113490   4.675   6.170   2.396  0.3420 -0.2276  0.8984
 4304SOL    HW213491   4.637   6.024   2.404 -0.6613 -0.1025 -0.9891
 4305SOL     OW13492   7.565   0.560   3.973 -0.5518 -0.1339 -0.1224
 4305SOL    HW113493   7.472   0.547   3.955 -1.3372  1.0999  2.5346
 4305SOL    HW213494   7.568   0.635   4.032  1.6121 -2.9137  3.8061
 4306SOL     OW13495   9.555   6.595   3.109  0.2324 -0.1353  0.1411
 4306SOL    HW113496   9.537   6.528   3.043 -0.1776  0.2907 -0.1850
 4306SOL    HW213497   9.606   6.661   3.063  1.1141 -0.4774  0.6043
 4307SOL     OW13498   0.802   6.685   8.590  0.2453 -0.4528  0.4155
 4307SOL    HW113499   0.792   6.744   8.665  0.7921  0.0972  0.0651
 4307SOL    HW213500   0.852   6.610   8.624  1.6708  0.4102  0.3076
 4308SOL     OW13501   9.481   8.417   1.515 -0.0858  0.0946 -0.0479
 4308SOL    HW113502   9.392   8.390   1.493  0.6176 -2.2586 -0.3434
 4308SOL    HW213503   9.475   8.448   1.606 -1.4142  1.3015 -0.5139
 4309SOL     OW13504   0.969   2.360   2.275 -0.2122 -0.1309 -0.5862
 4309SOL    HW113505   0.948   2.281   2.325 -0.6251  0.8444  0.8509
 4309SOL    HW213506   0.903   2.362   2.205  0.9035 -1.9750 -1.7874
 4310SOL     OW13507   6.605   9.354   9.909  0.9681  0.4839 -0.3302
 4310SOL    HW113508   6.630   9.425   9.849  0.8394  1.2390  0.4982
 4310SOL    HW213509   6.509   9.355   9.908  0.9545 -0.1590 -0.8572
 4311SOL     OW13510   5.852   3.786   5.581 -0.1689 -0.5710  0.9712
 4311SOL    HW113511   5.916   3.730   5.535  5.0274  3.8654  1.7495
 4311SOL    HW213512   5.861   3.761   5.673 -0.0568 -0.4255  1.0004
 4312SOL     OW13513   2.922   4.046   0.897  0.2506 -0.7229 -0.2848
 4312SOL    HW113514   2.939   3.974   0.958 -2.6352 -0.9192  0.4504
 4312SOL    HW213515   2.887   4.004   0.819  0.2998 -0.2282 -0.5804
 4313SOL     OW13516   2.206   5.836   8.342 -0.1633  0.6588  0.5020
 4313SOL    HW113517   2.182   5.816   8.433 -2.0697 -0.7610 -0.2636
 4313SOL    HW213518   2.199   5.931   8.336 -0.9949  0.6832  1.5742
 4314SOL     OW13519   5.526   6.790   2.056 -0.2978 -0.3274  0.1164
 4314SOL    HW113520   5.528   6.700   2.089  1.8118 -0.7611 -1.0052
 4314SOL    HW213521   5.593   6.792   1.987 -0.5362  2.0170 -0.1367
 4315SOL     OW13522   6.137   1.678   8.206  0.4294 -0.2051 -0.2736
 4315SOL    HW113523   6.043   1.658   8.205  0.2205  0.6732  0.4735
 4315SOL    HW213524   6.156   1.699   8.298  1.1479  0.5749 -0.5871
 4316SOL     OW13525   4.538   8.766   7.389 -0.3620  0.1763 -0.0070
 4316SOL    HW113526   4.527   8.676   7.419 -1.6162  0.1384 -0.5417
 4316SOL    HW213527   4.475   8.816   7.441  0.3410  0.7598  0.3024
 4317SOL     OW13528   6.874   0.738   1.459 -0.2648  0.2937 -0.6015
 4317SOL    HW113529   6.781   0.721   1.471 -0.3846  2.0475  1.4213
 4317SOL    HW213530   6.877   0.819   1.407  0.0213  1.4939  1.1821
 4318SOL     OW13531   8.643   5.103   5.623 -0.2351  0.1863 -0.2719
 4318SOL    HW113532   8.658   5.091   5.717 -0.4970  0.6602 -0.1631
 4318SOL    HW213533   8.678   5.190   5.604 -2.6909  1.3319 -0.0091
 4319SOL     OW13534   6.945   8.004   9.191  0.1944  0.4791 -0.4459
 4319SOL    HW113535   7.004   8.019   9.265  1.8842  1.5943 -1.9243
 4319SOL    HW213536   6.884   8.077   9.194 -1.4783 -0.9041  1.3432
 4320SOL     OW13537   2.113   8.083   7.200  0.3370  0.0546 -0.4526
 4320SOL    HW113538   2.172   8.033   7.143  0.7905 -0.3372  0.3538
 4320SOL    HW213539   2.102   8.029   7.278  0.5583  1.0470  0.2910
 4321SOL     OW13540   8.038   2.352   1.675  0.2941 -0.0887  0.0448
 4321SOL    HW113541   7.987   2.363   1.594  0.5380 -2.5610 -0.5181
 4321SOL    HW213542   7.979   2.306   1.735  0.3519  1.1141  1.0591
 4322SOL     OW13543   3.726   7.208   1.463 -0.1879  0.3696 -0.1363
 4322SOL    HW113544   3.765   7.254   1.538 -2.3267 -1.2905  2.1550
 4322SOL    HW213545   3.788   7.138   1.444 -0.1478  0.1151  0.8620
 4323SOL     OW13546   6.526   9.884   8.706 -0.4401  0.4842 -0.2971
 4323SOL    HW113547   6.455   9.881   8.770 -0.1814  2.9389  0.2078
 4323SOL    HW213548   6.501   9.953   8.645 -0.1467 -1.0521 -2.2545
 4324SOL     OW13549   2.448   3.058   4.075 -0.1256  0.1433 -0.2530
 4324SOL    HW113550   2.477   2.970   4.097  0.1631  0.4043  0.4311
 4324SOL    HW213551   2.410   3.050   3.987  1.4127 -0.3524 -0.9080
 4325SOL     OW13552   0.815   5.490   3.765 -0.0203 -0.2014  0.3353
 4325SOL    HW113553   0.812   5.585   3.762 -1.4378 -0.2129  0.5294
 4325SOL    HW213554   0.733   5.462   3.723  0.0595 -1.2992  0.8745
 4326SOL     OW13555   5.634   4.620   2.867 -0.4901  0.4838 -0.2678
 4326SOL    HW113556   5.628   4.681   2.941  0.9696 -1.6145  1.6926
 4326SOL    HW213557   5.725   4.626   2.839 -0.0091 -1.5499  0.7163
 4327SOL     OW13558   9.713   9.876   8.173 -0.8212 -0.2219 -0.4170
 4327SOL    HW113559   9.675   9.947   8.122 -0.5812 -0.4473 -0.9128
 4327SOL    HW213560   9.645   9.810   8.179 -0.7635 -0.3037 -0.6628
 4328SOL     OW13561   7.126   8.997   2.892 -0.0481  0.0688  0.4300
 4328SOL    HW113562   7.034   9.020   2.896 -0.5251 -1.8056  2.3707
 4328SOL    HW213563   7.130   8.920   2.837  0.5483  0.7233 -0.4796
 4329SOL     OW13564   9.091   4.980   3.482 -0.0728 -0.4500  0.0080
 4329SOL    HW113565   9.131   4.897   3.506  0.7347  0.5329  2.2315
 4329SOL    HW213566   9.024   4.994   3.549 -0.3406  0.5986 -0.4690
 4330SOL     OW13567   6.945   1.796   7.847 -0.2374  0.4627  0.3973
 4330SOL    HW113568   7.034   1.786   7.882 -0.1404  1.3759  0.4452
 4330SOL    HW213569   6.904   1.711   7.859  0.6688  0.0014  0.2840
 4331SOL     OW13570   4.822   1.827   8.083  0.3779  0.2030  0.3959
 4331SOL    HW113571   4.737   1.823   8.126  0.5360  0.6614  0.7571
 4331SOL    HW213572   4.882   1.856   8.151  1.0654 -1.3188  0.4874
 4332SOL     OW13573   9.800   9.341   5.750  0.6566 -0.2387  0.1244
 4332SOL    HW113574   9.834   9.253   5.734  4.2253  1.2315 -1.3865
 4332SOL    HW213575   9.733   9.354   5.683  2.1910 -0.8152 -1.5936
 4333SOL     OW13576   1.234   7.086   1.519  0.0685  0.6169 -0.4899
 4333SOL    HW113577   1.175   7.160   1.502  0.8122  1.3794  0.1636
 4333SOL    HW213578   1.220   7.028   1.445  0.3137  1.9621 -1.6443
 4334SOL     OW13579   5.045   4.752   8.229  0.5598  0.6193 -0.2131
 4334SOL    HW113580   5.087   4.668   8.248  1.9270  1.6673  1.6702
 4334SOL    HW213581   5.102   4.794   8.165  0.6880  0.7467 -0.0140
 4335SOL     OW13582   0.432   5.404   1.397 -0.1334  0.3671  0.4213
 4335SOL    HW113583   0.485   5.382   1.474 -1.6772  0.6898  1.6526
 4335SOL    HW213584   0.397   5.491   1.417 -1.7301 -0.1536  0.0637
 4336SOL     OW13585   4.942   4.873   5.906 -0.3921 -0.0829  0.4869
 4336SOL    HW113586   4.998   4.949   5.927 -0.9128  0.2687  0.6114
 4336SOL    HW213587   5.000   4.815   5.857  0.0335  0.3724  0.4319
 4337SOL     OW13588   3.765   2.339   7.407 -0.5075  0.4326 -0.1831
 4337SOL    HW113589   3.781   2.250   7.375 -2.0113 -0.2436  0.8538
 4337SOL    HW213590   3.731   2.386   7.330  1.1643  0.4137 -0.9800
 4338SOL     OW13591   2.808   2.474   7.470 -0.9944  0.5707 -0.0873
 4338SOL    HW113592   2.794   2.528   7.392 -1.9477  0.3812 -0.0636
 4338SOL    HW213593   2.802   2.536   7.543 -1.1712  0.5853 -0.1124
 4339SOL     OW13594   3.973   2.478   4.227 -0.4089 -0.1119 -0.0676
 4339SOL    HW113595   3.892   2.439   4.260 -0.5753 -0.3965 -0.8131
 4339SOL    HW213596   3.987   2.438   4.142  1.0580 -0.8094  0.4582
 4340SOL     OW13597   6.222   9.324   2.564 -0.2163  0.2171  0.6439
 4340SOL    HW113598   6.132   9.337   2.593 -1.0152  1.2876 -2.0664
 4340SOL    HW213599   6.220   9.241   2.515 -0.0465  0.8582 -0.4795
 4341SOL     OW13600   6.989   8.110   4.904 -0.1574  0.0272  0.4380
 4341SOL    HW113601   7.060   8.162   4.941 -0.2988 -0.7069  1.8180
 4341SOL    HW213602   7.004   8.111   4.809  1.3132  0.4132  0.6607
 4342SOL     OW13603   0.727   4.537   1.867 -0.2301  0.1500 -0.0955
 4342SOL    HW113604   0.654   4.479   1.846  1.1508 -2.3258  1.5381
 4342SOL    HW213605   0.802   4.500   1.821  0.7426  0.5080  1.1494
 4343SOL     OW13606   8.284   3.888   2.498  0.6960 -0.3122 -0.0767
 4343SOL    HW113607   8.261   3.973   2.460  2.2715  0.5698  0.8011
 4343SOL    HW213608   8.231   3.824   2.450 -0.8312  1.1912 -0.4884
 4344SOL     OW13609   3.659   4.565   9.354  0.5344  0.6087 -0.4081
 4344SOL    HW113610   3.716   4.490   9.335  0.1526  0.0290  0.6631
 4344SOL    HW213611   3.630   4.595   9.268  0.8059 -0.3885 -0.8656
 4345SOL     OW13612   1.077   6.097   2.888 -0.5568 -0.4358 -0.3099
 4345SOL    HW113613   0.989   6.086   2.852 -0.4798 -0.1159 -0.6051
 4345SOL    HW213614   1.069   6.074   2.980 -0.4421 -2.7972 -0.8304
 4346SOL     OW13615   1.616   3.345   9.648 -0.1770 -0.2853  0.0549
 4346SOL    HW113616   1.565   3.387   9.717 -0.7344 -1.4368  0.3670
 4346SOL    HW213617   1.702   3.388   9.652 -1.3507  2.3785 -1.1384
 4347SOL     OW13618   2.213   1.776   7.776 -0.0224  0.7543  0.3404
 4347SOL    HW113619   2.199   1.847   7.839 -0.4647 -0.1521  1.3181
 4347SOL    HW213620   2.204   1.696   7.829 -0.1515 -0.0371 -0.8386
 4348SOL     OW13621   0.435   2.598   1.293  0.1947 -0.0973  0.2344
 4348SOL    HW113622   0.496   2.538   1.336  0.4070  1.0088  1.5450
 4348SOL    HW213623   0.424   2.670   1.356 -1.1215  0.5611 -0.7086
 4349SOL     OW13624   4.403   0.696   6.261  0.0649 -0.6291 -0.2346
 4349SOL    HW113625   4.416   0.616   6.313 -0.8756 -1.0880 -0.6813
 4349SOL    HW213626   4.417   0.668   6.171  0.0395 -0.2170 -0.3665
 4350SOL     OW13627   3.955   8.474   6.366 -0.3291  0.0002  0.1072
 4350SOL    HW113628   3.938   8.425   6.446 -1.3537 -1.7841 -1.1387
 4350SOL    HW213629   3.920   8.562   6.385 -0.2699 -0.2850  1.6903
 4351SOL     OW13630   9.487   3.140   0.353 -0.0973 -0.2908  0.1209
 4351SOL    HW113631   9.480   3.175   0.264 -2.0932 -0.5865  0.1083
 4351SOL    HW213632   9.480   3.217   0.410 -1.2323 -0.3054  0.0334
 4352SOL     OW13633   6.457   3.848   7.472 -0.4055  0.5063 -0.7018
 4352SOL    HW113634   6.477   3.885   7.558 -0.2346 -0.5543 -0.2823
 4352SOL    HW213635   6.475   3.755   7.480 -0.7746  0.3257 -1.7743
 4353SOL     OW13636   8.388   9.438   7.740  0.0171  0.5231 -0.9005
 4353SOL    HW113637   8.352   9.350   7.755 -0.0949  0.6464 -0.4350
 4353SOL    HW213638   8.355   9.462   7.653 -0.2248  0.2378 -0.8913
 4354SOL     OW13639   5.142   8.326   1.759  0.8671 -0.0319  0.2636
 4354SOL    HW113640   5.130   8.336   1.853  2.6812  0.8545  0.4419
 4354SOL    HW213641   5.094   8.246   1.737 -0.2011  0.1536  1.7921
 4355SOL     OW13642   6.236   6.842   2.542  0.1951 -0.2139 -0.1244
 4355SOL    HW113643   6.292   6.796   2.605  1.3198  0.0914 -0.8891
 4355SOL    HW213644   6.151   6.799   2.552  0.7593 -1.2530  0.4698
 4356SOL     OW13645   6.946   4.971   9.459  0.2324 -0.1067 -0.0503
 4356SOL    HW113646   6.880   5.030   9.423  0.4233 -0.6312 -1.3329
 4356SOL    HW213647   7.008   4.958   9.387 -0.3011 -2.5870 -0.1328
 4357SOL     OW13648   5.969   7.629   8.268  0.2138  0.4124  0.4199
 4357SOL    HW113649   6.015   7.681   8.202 -0.1984  0.1022 -0.1227
 4357SOL    HW213650   6.035   7.611   8.335  0.3135  1.7929  0.7177
 4358SOL     OW13651   5.646   2.224   6.220  0.2205 -0.1522  0.5075
 4358SOL    HW113652   5.554   2.198   6.210  0.2517 -0.5947  1.2675
 4358SOL    HW213653   5.696   2.152   6.182  0.2520  0.1322  0.0086
 4359SOL     OW13654   7.109   4.116   6.993  0.1449 -0.2681 -0.1980
 4359SOL    HW113655   7.040   4.178   6.967  0.1076  0.0074  0.5405
 4359SOL    HW213656   7.185   4.143   6.941  0.3454  0.8860  0.6486
 4360SOL     OW13657   0.372   4.681   1.704 -0.2848 -0.0584  0.3419
 4360SOL    HW113658   0.444   4.658   1.646 -3.0994  0.4068 -3.7850
 4360SOL    HW213659   0.332   4.597   1.728  1.1301 -0.2769  2.1208
 4361SOL     OW13660   1.000   5.809   2.997  0.3939  0.0824  0.1674
 4361SOL    HW113661   1.010   5.891   3.044 -1.3141  0.2826  0.2570
 4361SOL    HW213662   1.048   5.745   3.049 -2.6185 -0.0232  3.1733
 4362SOL     OW13663   7.261   0.458   8.430  0.1941 -0.2055 -1.1637
 4362SOL    HW113664   7.205   0.457   8.352  0.4419 -0.6491 -1.3364
 4362SOL    HW213665   7.199   0.459   8.503 -0.0673 -1.3676 -1.3393
 4363SOL     OW13666   4.288   5.204   5.177  0.0725 -0.3301 -0.2212
 4363SOL    HW113667   4.368   5.223   5.127  0.0979  0.7895  0.2074
 4363SOL    HW213668   4.240   5.142   5.122 -0.7788  2.2343 -2.6072
 4364SOL     OW13669   2.652   2.231   6.367 -0.2726  0.0773  0.2423
 4364SOL    HW113670   2.586   2.202   6.429 -0.2074 -0.8098 -0.0977
 4364SOL    HW213671   2.700   2.152   6.343 -0.1055  0.4520 -0.7067
 4365SOL     OW13672   4.549   9.394   0.378  0.1710  0.6056 -0.6147
 4365SOL    HW113673   4.475   9.392   0.439 -0.8181 -1.0131 -1.7806
 4365SOL    HW213674   4.585   9.482   0.388 -2.0850  1.5718 -0.2054
 4366SOL     OW13675   8.517   8.987   6.624  0.5325  0.2839  0.6797
 4366SOL    HW113676   8.528   8.979   6.718 -1.1341  1.9737  1.0689
 4366SOL    HW213677   8.523   9.080   6.606 -0.7632  0.1615 -0.6405
 4367SOL     OW13678   1.700   8.592   3.769  0.0378 -0.2222  0.0483
 4367SOL    HW113679   1.684   8.509   3.725 -0.0818 -0.9776  1.4703
 4367SOL    HW213680   1.780   8.578   3.819  1.6059  1.4320 -1.8421
 4368SOL     OW13681   7.123   2.201   4.521  0.0333 -0.3168  0.4482
 4368SOL    HW113682   7.161   2.195   4.608  0.2978  3.1523  0.7217
 4368SOL    HW213683   7.033   2.230   4.535 -0.2066 -0.5949 -0.4139
 4369SOL     OW13684   4.423   0.164   8.399  0.2847 -0.1994 -0.0612
 4369SOL    HW113685   4.404   0.073   8.378  0.6673 -0.0709 -1.0123
 4369SOL    HW213686   4.368   0.215   8.339 -0.4684  0.2211  0.9433
 4370SOL     OW13687   5.589   5.686   4.213 -0.6021 -0.1380  0.1935
 4370SOL    HW113688   5.675   5.699   4.254 -0.5167 -0.1414  0.0158
 4370SOL    HW213689   5.598   5.603   4.165 -0.2246  0.6084 -1.0636
 4371SOL     OW13690   8.973   4.469   7.141 -0.0617 -0.0978  0.5651
 4371SOL    HW113691   8.925   4.549   7.162  0.2515  0.7730 -1.7753
 4371SOL    HW213692   8.930   4.434   7.063  1.2320 -0.9403  0.1872
 4372SOL     OW13693   3.762   8.132   8.633 -0.4945 -0.1125  0.0176
 4372SOL    HW113694   3.795   8.050   8.669 -1.4647  0.4833  2.5058
 4372SOL    HW213695   3.830   8.161   8.573 -0.6076 -3.2256 -1.8419
 4373SOL     OW13696   5.835   6.976   3.263  0.0053  0.0697  0.1787
 4373SOL    HW113697   5.849   6.882   3.276 -0.1187  0.1514  0.9328
 4373SOL    HW213698   5.921   7.010   3.239 -0.0186 -0.2844 -0.4461
 4374SOL     OW13699   4.248   9.741   9.646  0.2032 -0.1968  0.0464
 4374SOL    HW113700   4.223   9.824   9.606  1.2240  0.1832  0.1544
 4374SOL    HW213701   4.273   9.765   9.736  1.4324 -0.4550 -0.2116
 4375SOL     OW13702   5.510   8.457   2.238  0.1747 -0.2108 -0.4338
 4375SOL    HW113703   5.471   8.544   2.240 -1.4858 -0.9078 -0.0499
 4375SOL    HW213704   5.534   8.439   2.329  2.4648  0.6177 -0.8164
 4376SOL     OW13705   5.560   1.793   2.143  0.5622  0.0512  0.1296
 4376SOL    HW113706   5.537   1.704   2.117  1.6832  0.1111 -1.1865
 4376SOL    HW213707   5.539   1.797   2.237 -0.7603 -1.1542 -0.0875
 4377SOL     OW13708   6.542   5.878   0.747 -0.2532 -0.2643 -0.1418
 4377SOL    HW113709   6.569   5.786   0.742  0.0202 -0.1128 -1.6796
 4377SOL    HW213710   6.605   5.918   0.807 -1.0791 -1.2917  1.5074
 4378SOL     OW13711   7.612   0.814   1.909  0.0768 -0.1047  0.4781
 4378SOL    HW113712   7.562   0.800   1.830  2.2050 -1.2558 -0.7617
 4378SOL    HW213713   7.613   0.909   1.921  0.9613  0.2232 -1.7796
 4379SOL     OW13714   0.176   5.614   7.726 -0.8442 -0.2584 -0.1146
 4379SOL    HW113715   0.232   5.585   7.654  1.7241 -0.0146  1.6564
 4379SOL    HW213716   0.151   5.534   7.771 -0.7897 -0.2900 -0.1397
 4380SOL     OW13717   7.428   2.048   4.116  0.4263 -0.3603  0.1588
 4380SOL    HW113718   7.392   2.119   4.168 -1.1511 -0.9225 -0.1030
 4380SOL    HW213719   7.405   1.969   4.165  2.0052 -0.7239  0.3626
 4381SOL     OW13720   7.954   7.094   5.310 -0.1558 -0.1045 -0.2143
 4381SOL    HW113721   7.981   7.173   5.264  0.2595 -0.8393 -1.2699
 4381SOL    HW213722   7.961   7.025   5.245 -2.3837 -0.7239  0.1057
 4382SOL     OW13723   0.498   7.717   9.932 -0.1285  0.1663 -0.5693
 4382SOL    HW113724   0.537   7.634   9.958  0.0269  0.3129 -0.3286
 4382SOL    HW213725   0.500   7.715   9.836  1.8101  0.7583 -0.6035
 4383SOL     OW13726   4.536   4.129   9.076  0.1155  0.2160  0.0286
 4383SOL    HW113727   4.451   4.145   9.036 -0.8484 -1.7862  1.1413
 4383SOL    HW213728   4.565   4.216   9.105 -3.0949  0.6468  2.5445
 4384SOL     OW13729   9.588   5.265   4.610  0.3251  0.0767 -0.2948
 4384SOL    HW113730   9.509   5.246   4.559 -1.5325  0.8774  2.0663
 4384SOL    HW213731   9.638   5.184   4.608  0.1474 -0.0291 -2.9587
 4385SOL     OW13732   4.807   4.479   0.753 -0.3247  0.0302  0.3080
 4385SOL    HW113733   4.849   4.552   0.798 -1.5644  3.6232 -3.7750
 4385SOL    HW213734   4.873   4.446   0.693  0.1231 -2.2514  1.9054
 4386SOL     OW13735   9.490   6.250   9.889  0.1000  0.0246 -0.7104
 4386SOL    HW113736   9.509   6.292   9.972 -1.4482  0.1352 -0.3787
 4386SOL    HW213737   9.457   6.320   9.833  0.6883 -0.1379 -1.2771
 4387SOL     OW13738   6.511   3.439   4.146  0.1272  0.1914 -0.7598
 4387SOL    HW113739   6.447   3.511   4.141 -0.2134 -0.0610 -0.1685
 4387SOL    HW213740   6.498   3.390   4.065 -1.1967 -0.4791 -0.1706
 4388SOL     OW13741   4.010   8.497   2.641 -0.1410 -0.5987 -0.0319
 4388SOL    HW113742   3.943   8.431   2.624 -0.0195 -0.5680 -0.6929
 4388SOL    HW213743   3.964   8.581   2.634 -0.4987 -0.6057  1.7401
 4389SOL     OW13744   4.775   1.712   7.363 -0.1401 -0.0047  0.2964
 4389SOL    HW113745   4.844   1.767   7.327  0.9441 -2.1286 -1.0871
 4389SOL    HW213746   4.790   1.714   7.458  1.9160 -0.4508  0.0269
 4390SOL     OW13747   6.472   4.202   0.854  0.2823  0.0067  0.0726
 4390SOL    HW113748   6.458   4.262   0.927  1.2052 -0.6387  0.8046
 4390SOL    HW213749   6.387   4.159   0.842 -0.7418  2.2119 -1.2190
 4391SOL     OW13750   7.794   2.854   9.526 -0.2792  0.2476  0.2634
 4391SOL    HW113751   7.759   2.917   9.590  0.5209  0.7805  0.1907
 4391SOL    HW213752   7.756   2.881   9.443 -1.8568 -0.8487  0.5730
 4392SOL     OW13753   4.687   2.668   5.537  0.4168  0.8644 -0.0270
 4392SOL    HW113754   4.665   2.663   5.445 -0.6779  0.3497  0.2569
 4392SOL    HW213755   4.672   2.760   5.561  0.2136  0.8815 -0.2305
 4393SOL     OW13756   9.035   6.763   2.752  0.3509  0.3379  0.2350
 4393SOL    HW113757   9.106   6.821   2.782 -0.5563  1.7547 -0.2751
 4393SOL    HW213758   8.979   6.820   2.699 -1.2887 -0.7015  0.7982
 4394SOL     OW13759   8.323   6.185   5.580  0.1263 -0.6202 -0.4383
 4394SOL    HW113760   8.293   6.246   5.513  1.0243  0.3858  0.0370
 4394SOL    HW213761   8.268   6.203   5.656  1.7524  1.1635  0.4045
 4395SOL     OW13762   6.159   5.948   1.794  0.0252 -0.2487  0.1773
 4395SOL    HW113763   6.169   5.897   1.875 -2.4820 -0.2086  0.5918
 4395SOL    HW213764   6.107   5.892   1.737  0.0412  0.5489 -0.6405
 4396SOL     OW13765   4.954   2.960   4.278 -0.3866 -0.2702 -0.1780
 4396SOL    HW113766   4.967   3.055   4.282  0.6224 -0.4143  0.1646
 4396SOL    HW213767   5.023   2.924   4.334 -2.6516 -1.0542  2.3398
 4397SOL     OW13768   6.503   5.094   5.302  0.1108  0.2739 -0.2901
 4397SOL    HW113769   6.414   5.113   5.272 -0.2651  0.1648  0.7489
 4397SOL    HW213770   6.549   5.065   5.223 -0.2588  2.0854 -1.2399
 4398SOL     OW13771   5.419   4.882   7.381 -0.3222 -0.1795  0.4458
 4398SOL    HW113772   5.403   4.803   7.433 -0.5615 -0.1902  0.3585
 4398SOL    HW213773   5.332   4.914   7.359 -0.2925 -1.4259 -1.8459
 4399SOL     OW13774   1.223   5.970   7.961  0.2707 -0.2165 -0.5303
 4399SOL    HW113775   1.267   5.953   8.044  1.2492 -0.2899 -1.0568
 4399SOL    HW213776   1.174   6.052   7.977  0.9265  0.0933 -0.0639
 4400SOL     OW13777   6.375   7.521   5.618 -0.2064 -0.0312 -0.1297
 4400SOL    HW113778   6.306   7.535   5.552 -0.4299  0.8290  0.2750
 4400SOL    HW213779   6.328   7.513   5.701  0.1413 -0.0235  0.0710
 4401SOL     OW13780   4.987   2.154   5.608 -0.0253 -0.0576 -0.0553
 4401SOL    HW113781   4.951   2.115   5.688 -0.2444 -1.1332 -0.6528
 4401SOL    HW213782   5.053   2.091   5.579  0.0021  0.2841 -0.7472
 4402SOL     OW13783   4.340   2.478   5.672 -0.6704  0.3276 -0.5478
 4402SOL    HW113784   4.315   2.386   5.676 -1.5649  0.5948  0.7065
 4402SOL    HW213785   4.300   2.510   5.591  0.9684 -0.7220 -1.8276
 4403SOL     OW13786   8.374   9.140   9.170 -0.0246  0.0102 -0.1367
 4403SOL    HW113787   8.457   9.164   9.128  0.9151 -0.7997  1.1622
 4403SOL    HW213788   8.388   9.161   9.263 -0.4966 -1.9949  0.4351
 4404SOL     OW13789   0.764   5.042   8.688  0.2208  0.4499  0.2528
 4404SOL    HW113790   0.838   4.987   8.715  0.3370 -0.3469 -1.5312
 4404SOL    HW213791   0.719   5.063   8.770  1.5446 -0.3203  1.2254
 4405SOL     OW13792   8.035   6.675   4.616  0.5130  0.2196  0.5983
 4405SOL    HW113793   7.947   6.641   4.633  0.3566 -0.2248 -0.9227
 4405SOL    HW213794   8.072   6.690   4.703 -0.6271 -0.7198  1.2864
 4406SOL     OW13795   6.143   1.717   4.485 -0.5733  0.3316  0.4450
 4406SOL    HW113796   6.147   1.741   4.393  0.9987 -0.2755  0.3171
 4406SOL    HW213797   6.192   1.634   4.491 -0.3713  0.5168  1.8593
 4407SOL     OW13798   6.068   5.858   4.011 -0.2246 -0.1358  0.0145
 4407SOL    HW113799   6.145   5.887   4.060  0.1507  0.3929 -0.8601
 4407SOL    HW213800   6.071   5.762   4.015 -0.4175 -0.1066  1.3226
 4408SOL     OW13801   4.276   0.370   1.958  0.1336 -0.5333 -0.1649
 4408SOL    HW113802   4.303   0.452   1.916  0.7368 -1.2124 -1.1580
 4408SOL    HW213803   4.238   0.397   2.041  1.4155  0.6708  0.0670
 4409SOL     OW13804   1.026   7.585   3.879 -0.4474 -0.4570  0.7518
 4409SOL    HW113805   1.032   7.679   3.861  1.8936 -0.6991  0.0470
 4409SOL    HW213806   0.942   7.559   3.841 -0.9608  1.2467  0.6243
 4410SOL     OW13807   7.036   4.008   1.385 -0.5770 -0.0393  0.4896
 4410SOL    HW113808   6.965   3.948   1.404 -1.5798  0.7576 -0.5994
 4410SOL    HW213809   7.081   3.969   1.309 -1.6249  0.8557 -0.6333
 4411SOL     OW13810   1.475   7.107   9.887 -0.1261  0.3095  0.7344
 4411SOL    HW113811   1.491   7.064   9.803  0.6861 -1.2296  1.6381
 4411SOL    HW213812   1.484   7.038   9.952  0.9994  1.7898  2.2417
 4412SOL     OW13813   9.780   0.893   6.188  0.5499 -0.4924 -1.1343
 4412SOL    HW113814   9.840   0.826   6.220  2.1054  1.2880 -0.1021
 4412SOL    HW213815   9.694   0.865   6.219  1.5188 -0.6294  1.7225
 4413SOL     OW13816   4.328   0.145   4.690 -0.3642 -0.1256  0.1333
 4413SOL    HW113817   4.258   0.196   4.649 -0.9004  0.3025  1.5199
 4413SOL    HW213818   4.362   0.090   4.620 -1.0524  0.7754 -0.9412
 4414SOL     OW13819   6.142   5.579   3.314 -0.4264  0.6447 -0.5060
 4414SOL    HW113820   6.071   5.619   3.363 -0.8895 -0.5073 -0.2039
 4414SOL    HW213821   6.127   5.605   3.223 -0.6283  1.2601 -0.2980
 4415SOL     OW13822   8.371   7.027   2.826  0.4686 -0.1237  0.0373
 4415SOL    HW113823   8.323   6.992   2.901 -1.5703  1.6756 -0.3233
 4415SOL    HW213824   8.444   6.966   2.814  0.1506 -1.1822  2.6574
 4416SOL     OW13825   9.418   4.118   0.776  0.4979 -0.4012  0.7513
 4416SOL    HW113826   9.450   4.187   0.834 -1.0300  3.1546 -2.2702
 4416SOL    HW213827   9.352   4.072   0.828 -0.0984  1.9320  2.1960
 4417SOL     OW13828   4.035   8.340   1.467  0.2485  0.9447  0.0859
 4417SOL    HW113829   3.945   8.358   1.440 -0.4502 -0.0537  1.6310
 4417SOL    HW213830   4.040   8.244   1.471  1.6191  0.9584 -0.6883
 4418SOL     OW13831   1.691   4.242   2.858 -0.5769 -0.2151  0.2067
 4418SOL    HW113832   1.782   4.268   2.844 -0.0782 -1.7648  0.3659
 4418SOL    HW213833   1.654   4.312   2.912  0.8948 -0.1823  1.2434
 4419SOL     OW13834   8.741   6.375   0.521  0.6926  0.1113  0.0888
 4419SOL    HW113835   8.684   6.408   0.591  0.9848 -0.4617  0.5990
 4419SOL    HW213836   8.682   6.365   0.446  0.2101 -0.0365  0.4814
 4420SOL     OW13837   7.773   9.517   6.137  0.8654  0.4362  0.2448
 4420SOL    HW113838   7.853   9.567   6.126  0.4982  1.0575  0.3213
 4420SOL    HW213839   7.707   9.566   6.087  1.0215 -1.3731 -1.8856
 4421SOL     OW13840   1.736   7.987   3.230  0.2196 -0.8461 -0.4519
 4421SOL    HW113841   1.650   8.028   3.224 -0.1165 -1.5549 -0.6208
 4421SOL    HW213842   1.719   7.894   3.216  1.0711 -0.9391 -0.9389
 4422SOL     OW13843   9.111   6.187   2.643  0.5854  0.4926 -0.6834
 4422SOL    HW113844   9.029   6.234   2.656  0.2573  0.0660 -1.1713
 4422SOL    HW213845   9.155   6.191   2.728  0.0600  0.7196 -0.4182
 4423SOL     OW13846   8.644   8.146   3.499  0.2041 -0.8376  0.1309
 4423SOL    HW113847   8.632   8.078   3.433 -1.4316  0.3956 -0.9443
 4423SOL    HW213848   8.722   8.120   3.547  1.0195 -2.2016 -1.7970
 4424SOL     OW13849   5.326   2.940   1.174 -0.3024 -0.5888 -0.1642
 4424SOL    HW113850   5.408   2.950   1.224 -0.2494  0.9391 -0.5094
 4424SOL    HW213851   5.333   2.853   1.134  1.8245  0.0329 -1.3099
 4425SOL     OW13852   5.481   0.926   3.039  0.3320  0.2797  0.5223
 4425SOL    HW113853   5.508   1.007   2.995  0.3976  1.0508  1.9466
 4425SOL    HW213854   5.471   0.950   3.131 -1.8859 -0.7770  0.6294
 4426SOL     OW13855   1.614   0.960   0.420  0.3328 -0.5711 -0.1421
 4426SOL    HW113856   1.566   0.922   0.346  0.0867 -0.2753 -0.1358
 4426SOL    HW213857   1.632   1.050   0.393 -0.6094 -0.1544  0.5454
 4427SOL     OW13858   9.467   9.142   3.578 -0.2927 -0.7069  0.5653
 4427SOL    HW113859   9.433   9.096   3.501 -0.9871  0.6574  0.0213
 4427SOL    HW213860   9.390   9.157   3.633  0.0862 -1.0308  1.1919
 4428SOL     OW13861   2.153   7.479   2.357  0.5341  0.2008 -0.6070
 4428SOL    HW113862   2.122   7.395   2.324  0.1333  0.7636 -1.6883
 4428SOL    HW213863   2.211   7.512   2.289  0.8188  0.7400 -0.1153
 4429SOL     OW13864   0.145   9.192   0.010  0.4403 -0.2096  0.2453
 4429SOL    HW113865   0.180   9.276   0.041  1.0833 -0.5466  0.4269
 4429SOL    HW213866   0.131   9.141   0.089  1.4436 -0.8183  0.0466
 4430SOL     OW13867   9.792   0.040   8.393  0.3445  0.1158  0.0174
 4430SOL    HW113868   9.771  -0.049   8.420 -2.7428  1.0236  0.9871
 4430SOL    HW213869   9.781   0.041   8.298  0.6408 -0.5560 -0.0260
 4431SOL     OW13870   3.860   7.309   2.586  0.2418 -0.3743  0.7713
 4431SOL    HW113871   3.914   7.264   2.521  0.2563  1.8466 -0.8807
 4431SOL    HW213872   3.804   7.240   2.621 -0.0655 -1.6527 -1.9156
 4432SOL     OW13873   0.071   5.122   6.545  0.4568 -0.3158  0.7742
 4432SOL    HW113874   0.118   5.127   6.628  1.0924 -1.2678  0.4933
 4432SOL    HW213875   0.137   5.092   6.482 -0.3493 -0.9756  0.2221
 4433SOL     OW13876   6.761   4.300   5.282 -0.0767  0.4275  0.1693
 4433SOL    HW113877   6.666   4.310   5.288 -0.1377 -0.2379  0.4329
 4433SOL    HW213878   6.778   4.290   5.189 -0.3803 -0.4715  0.2032
 4434SOL     OW13879   7.252   5.971   2.031  0.3892 -0.1680 -0.0156
 4434SOL    HW113880   7.322   6.007   2.084  1.4988 -1.3983 -0.5831
 4434SOL    HW213881   7.291   5.959   1.944 -1.0722  0.8301 -0.8472
 4435SOL     OW13882   3.154   3.873   1.754 -0.4825 -1.2264  0.5134
 4435SOL    HW113883   3.129   3.783   1.732 -2.0798 -0.5511 -0.6129
 4435SOL    HW213884   3.152   3.875   1.849  0.8465 -2.7061  0.6113
 4436SOL     OW13885   0.170   7.724   4.998 -0.2807  0.5069 -0.0789
 4436SOL    HW113886   0.232   7.724   5.071  0.3633 -1.5748 -0.5595
 4436SOL    HW213887   0.224   7.717   4.920 -0.9633  2.7803 -0.8316
 4437SOL     OW13888   1.863   1.569   3.579 -0.0978  0.1077 -0.5816
 4437SOL    HW113889   1.833   1.650   3.538  1.1281  0.4536 -0.8142
 4437SOL    HW213890   1.912   1.598   3.656 -0.2783 -0.4529 -0.2477
 4438SOL     OW13891   1.027   8.439   7.085 -0.1121  0.0124 -0.6115
 4438SOL    HW113892   1.097   8.462   7.146  1.0081  0.8672 -2.1421
 4438SOL    HW213893   1.056   8.475   7.001 -2.3068  0.1980 -1.3381
 4439SOL     OW13894   4.580   9.678   8.048  0.0259  0.0790  0.2367
 4439SOL    HW113895   4.550   9.768   8.035  0.8978  0.2009 -1.2014
 4439SOL    HW213896   4.526   9.627   7.988  0.1083 -0.2351  0.4325
 4440SOL     OW13897   7.684   1.629   2.175 -0.1805  0.5693 -0.2547
 4440SOL    HW113898   7.635   1.660   2.100 -1.3783 -0.4059  0.0931
 4440SOL    HW213899   7.721   1.708   2.214 -0.2149  1.1650 -1.3867
 4441SOL     OW13900   6.222   3.779   8.302 -0.2963 -0.4122 -1.1314
 4441SOL    HW113901   6.222   3.687   8.328  0.5295 -0.0781  0.1462
 4441SOL    HW213902   6.129   3.802   8.296 -0.5053 -1.2249 -1.0868
 4442SOL     OW13903   3.020   3.138   8.030  0.4738  0.3041 -0.6094
 4442SOL    HW113904   3.102   3.182   8.052 -0.3300  0.2076  3.4675
 4442SOL    HW213905   2.953   3.203   8.049 -0.5010 -0.2833 -1.9185
 4443SOL     OW13906   1.514   5.545   0.916 -0.2206  0.3681  0.2070
 4443SOL    HW113907   1.476   5.605   0.981 -0.3609  1.6740 -1.0356
 4443SOL    HW213908   1.439   5.494   0.885  0.0073 -1.0156  1.7700
 4444SOL     OW13909   0.073   1.329   2.401  0.0321 -0.5369  0.1616
 4444SOL    HW113910   0.040   1.275   2.329  1.2405 -0.8780 -0.1643
 4444SOL    HW213911   0.015   1.308   2.474 -1.8235  0.5341 -0.9150
 4445SOL     OW13912   4.787   6.000   6.177 -0.2552  0.7415  0.0901
 4445SOL    HW113913   4.741   5.939   6.234 -0.6913  1.3681  0.4167
 4445SOL    HW213914   4.859   6.034   6.230  1.4486 -1.2072 -0.8181
 4446SOL     OW13915   4.648   5.685   2.961 -0.4253 -0.4621 -0.7980
 4446SOL    HW113916   4.577   5.748   2.957  0.8485  1.2657  1.5179
 4446SOL    HW213917   4.707   5.709   2.889  2.1655  3.9858  2.3076
 4447SOL     OW13918   7.940   8.819   3.254  0.2885  0.5138  0.0160
 4447SOL    HW113919   7.995   8.785   3.325 -1.4617 -1.6458  0.4343
 4447SOL    HW213920   7.883   8.884   3.297  1.9152  2.2255 -0.2828
 4448SOL     OW13921   6.746   6.136   2.878  0.1469  0.6683  0.2813
 4448SOL    HW113922   6.706   6.054   2.910  1.1602  0.7202  1.7898
 4448SOL    HW213923   6.672   6.186   2.842 -0.6830 -0.4017  0.4340
 4449SOL     OW13924   9.752   5.845   8.117 -0.4353  0.0032  0.4866
 4449SOL    HW113925   9.678   5.844   8.178  0.2156 -2.0841  1.3369
 4449SOL    HW213926   9.737   5.770   8.060  1.0140 -0.4626  0.6852
 4450SOL     OW13927   6.847   5.050   1.466 -0.3204 -0.7378 -0.3651
 4450SOL    HW113928   6.880   5.134   1.435 -2.5471  0.2871 -0.1607
 4450SOL    HW213929   6.926   4.996   1.477  1.0846  0.9723 -1.4441
 4451SOL     OW13930   7.634   6.170   5.493  0.0487  0.8167  0.2850
 4451SOL    HW113931   7.596   6.202   5.411  0.3807  0.3807 -0.0447
 4451SOL    HW213932   7.559   6.139   5.544  0.0020 -0.7982 -0.6921
 4452SOL     OW13933   6.509   4.872   5.469  0.1367  0.2006 -0.1364
 4452SOL    HW113934   6.543   4.915   5.547 -0.5919  0.3335  0.1148
 4452SOL    HW213935   6.469   4.942   5.418  1.2807  0.2419 -1.0125
 4453SOL     OW13936   0.391   5.008   8.282  0.6381  0.5124  0.2733
 4453SOL    HW113937   0.340   4.928   8.292 -0.4659  1.1894  0.1501
 4453SOL    HW213938   0.399   5.043   8.370 -1.4481  1.8110 -0.0137
 4454SOL     OW13939   6.092   8.749   2.980 -0.4142 -0.5509  0.3713
 4454SOL    HW113940   6.066   8.727   2.890 -0.7653 -1.1714  0.6170
 4454SOL    HW213941   6.021   8.714   3.034 -0.7095  0.7205  0.8292
 4455SOL     OW13942   8.416   2.908   1.714  0.3228  0.3990  0.0965
 4455SOL    HW113943   8.501   2.889   1.755 -0.0796 -0.4902  0.5439
 4455SOL    HW213944   8.391   2.826   1.672 -0.2463  0.7067 -0.1701
 4456SOL     OW13945   5.618   0.967   2.343  0.0132  0.3437  0.0754
 4456SOL    HW113946   5.678   0.907   2.388 -0.1001  0.0546 -0.1620
 4456SOL    HW213947   5.535   0.920   2.339  0.0858  0.2706 -0.6515
 4457SOL     OW13948   4.434   4.224   3.012 -0.8333  0.1432 -0.0181
 4457SOL    HW113949   4.366   4.290   3.016 -0.4447  0.5575 -0.1621
 4457SOL    HW213950   4.391   4.146   2.977 -1.7179 -0.2378  1.8254
 4458SOL     OW13951   4.315   7.060   5.181 -0.1128 -0.0334  0.0338
 4458SOL    HW113952   4.374   6.987   5.197 -0.5567 -0.4636 -0.2469
 4458SOL    HW213953   4.361   7.115   5.117  0.2917  0.0168  0.3709
 4459SOL     OW13954   0.913   5.422   6.818 -0.2483  0.1253  0.2088
 4459SOL    HW113955   0.834   5.473   6.801 -1.2687 -0.6380  2.3935
 4459SOL    HW213956   0.981   5.487   6.835 -1.0259  0.7721  0.8738
 4460SOL     OW13957   4.206   1.488   3.927  0.6318  0.4106 -0.3936
 4460SOL    HW113958   4.189   1.454   3.840  0.0267 -0.9865  0.2415
 4460SOL    HW213959   4.287   1.445   3.955  1.5759  1.8697 -0.7485
 4461SOL     OW13960   2.292   5.378   4.631  0.5380  0.4210  0.3926
 4461SOL    HW113961   2.363   5.320   4.603  1.0695  1.5176 -0.6302
 4461SOL    HW213962   2.216   5.349   4.580  1.1616  1.5061 -1.2451
 4462SOL     OW13963   8.047   3.044   4.677 -0.4215 -0.1334 -0.6467
 4462SOL    HW113964   8.009   3.113   4.621  1.7169  0.4528 -1.4597
 4462SOL    HW213965   8.132   3.079   4.703 -1.0911 -0.6360  2.6089
 4463SOL     OW13966   8.902   7.261   3.036  0.0090  0.7848 -0.2034
 4463SOL    HW113967   8.948   7.179   3.017  1.6228  1.4725  0.5062
 4463SOL    HW213968   8.839   7.270   2.965  0.4704 -0.5855 -0.8314
 4464SOL     OW13969   6.441   4.650   8.825 -0.6910 -0.1080 -0.0792
 4464SOL    HW113970   6.468   4.570   8.780  0.1391 -0.5442  1.1678
 4464SOL    HW213971   6.363   4.679   8.776 -1.2023 -1.8425 -0.3653
 4465SOL     OW13972   8.939   0.024   2.517 -1.0519  0.2379  0.6719
 4465SOL    HW113973   8.958   0.112   2.487  1.1584 -0.8344 -1.4111
 4465SOL    HW213974   9.024  -0.020   2.520 -2.1313 -1.9800  1.0538
 4466SOL     OW13975   7.765   4.089   7.968 -0.4262  0.4837 -0.2506
 4466SOL    HW113976   7.746   4.132   8.051  0.5346 -1.0532  0.8090
 4466SOL    HW213977   7.741   4.154   7.902  0.3310  2.3884  1.2434
 4467SOL     OW13978   5.373   2.275   1.928  0.2848  0.2147  0.8346
 4467SOL    HW113979   5.461   2.301   1.899 -0.1148  1.8196  0.9697
 4467SOL    HW213980   5.382   2.182   1.951  2.0328  0.4336  1.1957
 4468SOL     OW13981   9.980   2.292   1.372 -0.4369  0.0876  0.4076
 4468SOL    HW113982   9.945   2.376   1.402  0.3423 -0.1414  2.0783
 4468SOL    HW213983   9.988   2.239   1.452  1.7404 -0.5766 -0.1777
 4469SOL     OW13984   0.235   3.246   5.548 -0.0520 -0.2327  0.0373
 4469SOL    HW113985   0.220   3.152   5.545 -0.9645 -0.1861  1.7755
 4469SOL    HW213986   0.330   3.255   5.550  0.0725 -1.0427 -1.1319
 4470SOL     OW13987   9.539   8.789   8.204  0.4246 -0.2163 -0.1894
 4470SOL    HW113988   9.519   8.768   8.295 -2.4992 -0.3592 -0.7631
 4470SOL    HW213989   9.563   8.881   8.205  1.5215 -0.4934  0.8301
 4471SOL     OW13990   4.449   9.766   3.734  0.1460  0.4088 -0.1389
 4471SOL    HW113991   4.489   9.796   3.652 -0.2833  0.5888 -0.2884
 4471SOL    HW213992   4.356   9.787   3.723 -0.1421 -0.8294 -0.1784
 4472SOL     OW13993   1.134   2.874   9.953 -0.1511  0.0447  0.6937
 4472SOL    HW113994   1.050   2.916   9.936 -0.0935 -0.0346  0.1955
 4472SOL    HW213995   1.195   2.917   9.894  0.4700  1.0954  2.0726
 4473SOL     OW13996   8.773   5.835   1.546  0.8296  0.2698  0.4831
 4473SOL    HW113997   8.688   5.794   1.558  0.7571  0.3359  0.1995
 4473SOL    HW213998   8.834   5.761   1.539  0.5237  0.1614 -1.3645
 4474SOL     OW13999   6.399   8.335   8.187 -0.0235 -0.1771  0.2070
 4474SOL    HW114000   6.382   8.245   8.217  2.7838 -0.9244 -0.1456
 4474SOL    HW214001   6.335   8.388   8.234 -2.0649 -2.3594  0.1292
 4475SOL     OW14002   2.590   4.339   1.228  0.1516  0.3702  0.2250
 4475SOL    HW114003   2.646   4.287   1.172 -2.4462 -0.2215 -2.0580
 4475SOL    HW214004   2.639   4.420   1.245  1.8016 -0.2739 -1.2850
 4476SOL     OW14005   8.591   8.972   1.242  0.1747 -0.1551 -1.0173
 4476SOL    HW114006   8.530   9.002   1.175 -1.4007  0.1490  0.5114
 4476SOL    HW214007   8.545   8.983   1.325  1.5020 -1.9047  0.0378
 4477SOL     OW14008   0.496   8.809   9.338 -0.0559  0.2144 -0.3384
 4477SOL    HW114009   0.522   8.839   9.251  0.8239 -1.3748 -0.6608
 4477SOL    HW214010   0.431   8.874   9.367  1.9446  2.5542 -0.8025
 4478SOL     OW14011   6.298   3.469   0.655 -0.1010 -0.6746  0.0627
 4478SOL    HW114012   6.355   3.396   0.631  0.1626 -0.7511  0.9041
 4478SOL    HW214013   6.274   3.509   0.571  0.0588 -1.4888 -0.3812
 4479SOL     OW14014   3.082   2.640   2.616 -0.1783 -0.5500 -0.3421
 4479SOL    HW114015   3.042   2.722   2.586 -0.8460 -0.6933  0.1499
 4479SOL    HW214016   3.070   2.641   2.711  2.1599  0.0354  0.0003
 4480SOL     OW14017   3.973   9.776   6.807  0.4185 -0.1547 -0.1870
 4480SOL    HW114018   3.988   9.727   6.888 -0.2493  2.2467  1.4960
 4480SOL    HW214019   4.023   9.856   6.818 -0.1581  0.4933 -1.9338
 4481SOL     OW14020   0.451   8.928   1.989 -0.2501 -0.1766 -0.0319
 4481SOL    HW114021   0.491   8.939   1.903 -0.0457 -0.4374  0.0294
 4481SOL    HW214022   0.358   8.947   1.974  0.0083  1.1686 -0.0181
 4482SOL     OW14023   7.495   3.948   3.623  0.0103 -0.3238 -0.5860
 4482SOL    HW114024   7.488   4.013   3.553 -2.3347  0.9360  0.7088
 4482SOL    HW214025   7.588   3.929   3.629  0.4271  0.5473 -3.0967
 4483SOL     OW14026   2.830   2.096   8.595 -0.1896 -0.1526 -0.2259
 4483SOL    HW114027   2.903   2.149   8.627  1.4188 -0.5823 -2.8182
 4483SOL    HW214028   2.781   2.154   8.537 -0.9750 -0.3155  0.2627
 4484SOL     OW14029   1.180   1.561   1.285 -0.0516  0.2097 -0.0222
 4484SOL    HW114030   1.213   1.650   1.300 -2.7710  1.0840  1.4724
 4484SOL    HW214031   1.136   1.537   1.366 -1.2555 -1.6348 -1.1295
 4485SOL     OW14032   1.757   7.991   6.025 -0.6900 -0.9968  0.0710
 4485SOL    HW114033   1.746   8.050   5.950 -0.6171  0.6469  1.2954
 4485SOL    HW214034   1.699   8.028   6.093  0.0597 -1.8060  1.1811
 4486SOL     OW14035   1.779   7.785   6.193 -0.8081 -0.0877 -0.6749
 4486SOL    HW114036   1.844   7.809   6.259 -1.6224 -1.0231  0.5195
 4486SOL    HW214037   1.782   7.856   6.130  1.9982 -0.5001 -1.1637
 4487SOL     OW14038   0.245   1.600   5.242 -0.2512 -0.3354  0.7468
 4487SOL    HW114039   0.240   1.506   5.221  0.1043  0.0106 -1.0328
 4487SOL    HW214040   0.185   1.641   5.179  0.6469  0.7591  0.5929
 4488SOL     OW14041   0.932   3.808   2.976 -0.5417 -0.0894 -0.4487
 4488SOL    HW114042   1.018   3.847   2.990 -1.5151  1.3152  2.6441
 4488SOL    HW214043   0.942   3.718   3.007  0.0278 -0.2275 -1.0141
 4489SOL     OW14044   1.140   4.387   5.025  0.0152  0.0743 -0.2203
 4489SOL    HW114045   1.065   4.334   5.054  0.1450  0.0885  0.1453
 4489SOL    HW214046   1.193   4.399   5.104  0.3546  0.1481 -0.4572
 4490SOL     OW14047   6.826   7.640   5.162  0.1766  0.1137  0.0522
 4490SOL    HW114048   6.846   7.665   5.072 -1.7981 -3.2133 -1.5052
 4490SOL    HW214049   6.906   7.597   5.193  0.5707  0.4569 -0.4670
 4491SOL     OW14050   5.162   8.746   5.609  0.2689 -0.3040 -0.5572
 4491SOL    HW114051   5.165   8.841   5.598  0.3271 -0.2988 -0.4894
 4491SOL    HW214052   5.075   8.730   5.646  0.4743 -0.2289 -0.0488
 4492SOL     OW14053   8.810   1.257   9.259  0.4314 -0.4846  0.2828
 4492SOL    HW114054   8.871   1.329   9.245 -0.2104 -0.1385 -0.9046
 4492SOL    HW214055   8.804   1.215   9.173 -1.3053 -0.2493  0.2556
 4493SOL     OW14056   4.290   4.863   4.444  1.2194 -0.5931 -0.4032
 4493SOL    HW114057   4.225   4.818   4.390 -0.3345  2.8536 -1.7011
 4493SOL    HW214058   4.364   4.879   4.385  0.6019  0.9139 -0.7950
 4494SOL     OW14059   1.305   8.063   0.902 -0.7510 -0.7702 -0.5363
 4494SOL    HW114060   1.380   8.066   0.961 -0.9748 -0.8028 -0.2484
 4494SOL    HW214061   1.230   8.086   0.957 -0.8424  0.0802 -1.0143
 4495SOL     OW14062   7.609   1.096   2.004 -0.1581  0.7820  0.0374
 4495SOL    HW114063   7.549   1.115   2.076 -1.0522 -0.3119 -0.3839
 4495SOL    HW214064   7.591   1.165   1.939  0.8843  1.9685  0.9428
 4496SOL     OW14065   8.753   3.817   3.956 -0.1210 -0.1236 -0.2421
 4496SOL    HW114066   8.678   3.844   3.902 -0.1374 -0.0281 -0.1709
 4496SOL    HW214067   8.763   3.888   4.019 -1.6550 -1.3646  1.4980
 4497SOL     OW14068   0.090   8.996   0.229  0.1248 -0.2782  0.0397
 4497SOL    HW114069   0.029   8.934   0.270  1.2434 -1.3106  0.1814
 4497SOL    HW214070   0.164   9.001   0.289  0.7645 -0.0419 -0.7482
 4498SOL     OW14071   8.476   8.711   5.938 -0.1856 -0.1983 -0.3053
 4498SOL    HW114072   8.499   8.667   6.020  1.1666 -0.6268 -0.8877
 4498SOL    HW214073   8.497   8.648   5.869  0.7504  0.9251 -1.0993
 4499SOL     OW14074   8.040   3.776   9.861  0.3299  0.6944  0.4051
 4499SOL    HW114075   8.134   3.793   9.849  0.0240  1.7820 -0.6033
 4499SOL    HW214076   8.030   3.767   9.956  1.8314 -1.9072  0.4189
 4500SOL     OW14077   2.344   7.531   2.158 -0.2389 -0.4667  0.0416
 4500SOL    HW114078   2.403   7.596   2.198 -1.8771  1.7527 -0.9076
 4500SOL    HW214079   2.378   7.518   2.070 -0.1677 -0.5731  0.0839
 4501SOL     OW14080   9.169   8.221   8.330 -0.5373 -0.5102 -0.4555
 4501SOL    HW114081   9.168   8.280   8.405  0.7559  0.8125 -1.4093
 4501SOL    HW214082   9.262   8.199   8.319 -0.2445  1.6107 -3.3134
 4502SOL     OW14083   8.410   7.110   5.667 -0.0306 -0.1760 -0.0967
 4502SOL    HW114084   8.364   7.118   5.583  0.0598  1.5164 -0.0066
 4502SOL    HW214085   8.500   7.134   5.646  0.1339 -0.3971  0.3597
 4503SOL     OW14086   2.670   2.861   5.969  0.0170  0.0906 -0.6078
 4503SOL    HW114087   2.722   2.828   6.042  0.0240  1.3662 -0.0088
 4503SOL    HW214088   2.673   2.791   5.904 -0.5710 -1.3826  0.8795
 4504SOL     OW14089   1.261   2.723   5.850 -0.8348 -0.2117 -0.5007
 4504SOL    HW114090   1.313   2.647   5.823 -0.2864  0.3176 -0.9616
 4504SOL    HW214091   1.223   2.756   5.768 -1.4330 -0.2523 -0.2446
 4505SOL     OW14092   1.858   5.063   4.387  0.1861 -0.2073 -0.6854
 4505SOL    HW114093   1.795   5.016   4.441  0.6825 -0.3676 -0.2345
 4505SOL    HW214094   1.833   5.041   4.297 -0.3230 -0.3632 -0.5108
 4506SOL     OW14095   0.192   8.106   8.120  0.1044 -0.4902  0.4920
 4506SOL    HW114096   0.149   8.176   8.170  2.4316  0.2017  1.6639
 4506SOL    HW214097   0.250   8.153   8.059  1.6161 -1.3630  1.2080
 4507SOL     OW14098   8.968   8.978   6.591  0.1406 -0.4550 -1.0879
 4507SOL    HW114099   8.924   8.973   6.506 -0.8310 -2.7221 -0.5003
 4507SOL    HW214100   9.058   8.949   6.573 -0.5641 -2.8260 -1.0703
 4508SOL     OW14101   8.522   0.551   0.728 -0.3287  0.0852 -1.0216
 4508SOL    HW114102   8.503   0.645   0.737  1.8158  0.4182  0.8074
 4508SOL    HW214103   8.501   0.532   0.636 -0.6024  2.3881 -1.5136
 4509SOL     OW14104   5.118   1.450   1.022  0.3557 -0.8453 -0.4860
 4509SOL    HW114105   5.187   1.383   1.020 -0.1206 -1.3672  0.0640
 4509SOL    HW214106   5.043   1.407   0.980  0.8331  0.2854 -2.6113
 4510SOL     OW14107   1.451   3.985   0.459 -0.1362 -1.1441 -0.3493
 4510SOL    HW114108   1.356   3.981   0.467 -0.0888 -0.1128  1.2131
 4510SOL    HW214109   1.467   3.997   0.365 -1.5001 -1.7872 -0.6906
 4511SOL     OW14110   5.624   6.170   2.438  0.0165  0.9494 -0.1226
 4511SOL    HW114111   5.549   6.121   2.404  0.2110  0.8197 -0.3716
 4511SOL    HW214112   5.587   6.230   2.502 -0.4531  1.7433 -1.1279
 4512SOL     OW14113   3.303   8.281   4.824 -0.2355 -0.1173  0.5134
 4512SOL    HW114114   3.294   8.353   4.762  0.8958 -0.1978  0.2318
 4512SOL    HW214115   3.383   8.235   4.797 -0.0919 -0.5616  1.6150
 4513SOL     OW14116   5.757   8.233   9.190  0.4852 -0.2007  0.2355
 4513SOL    HW114117   5.686   8.229   9.127 -0.1831  1.0335  0.8743
 4513SOL    HW214118   5.815   8.303   9.158  0.6345 -0.2017  0.4966
 4514SOL     OW14119   9.168   9.533   9.892 -0.4244 -0.1320  0.3560
 4514SOL    HW114120   9.223   9.540   9.813  0.1014 -1.1465  0.6197
 4514SOL    HW214121   9.087   9.578   9.868 -0.3199 -0.5206 -0.8137
 4515SOL     OW14122   5.174   3.857   2.791 -0.3996  0.2180 -0.0253
 4515SOL    HW114123   5.116   3.926   2.824 -0.2167  0.0214  0.7244
 4515SOL    HW214124   5.115   3.785   2.771 -0.4016 -0.1023  1.0552
 4516SOL     OW14125   7.824   8.769   4.265  0.0183  0.3453  0.3676
 4516SOL    HW114126   7.878   8.848   4.262 -1.4131  1.3651  0.2209
 4516SOL    HW214127   7.786   8.763   4.177  0.2784 -0.6448  0.3091
 4517SOL     OW14128   6.241   2.026   6.011  0.7211 -0.4344 -0.0617
 4517SOL    HW114129   6.307   2.051   5.946  0.8762 -1.5791 -0.3630
 4517SOL    HW214130   6.292   1.996   6.086  0.5459 -0.9048 -0.1303
 4518SOL     OW14131   4.104   6.065   2.714  0.5037 -0.2488  0.2503
 4518SOL    HW114132   4.097   6.027   2.626 -0.8816 -0.3927  0.4054
 4518SOL    HW214133   4.065   6.152   2.706 -1.6128 -1.0505  1.1608
 4519SOL     OW14134   4.433   9.171   8.387  0.7094  0.2930 -0.3091
 4519SOL    HW114135   4.438   9.110   8.313  0.4484 -0.2551  0.1121
 4519SOL    HW214136   4.514   9.157   8.436  0.5890  0.1833 -0.1390
 4520SOL     OW14137   8.531   5.395   1.549  0.2283  0.1841  0.3824
 4520SOL    HW114138   8.506   5.339   1.476 -0.4581  0.6678  0.2443
 4520SOL    HW214139   8.620   5.367   1.571 -0.3268 -1.4467  0.7654
 4521SOL     OW14140   6.059   1.528   6.760 -0.3865  0.2286  0.2048
 4521SOL    HW114141   6.004   1.556   6.834  0.6484 -0.1211  1.1283
 4521SOL    HW214142   6.007   1.460   6.717 -1.4674  1.1799 -0.0603
 4522SOL     OW14143   2.694   2.081   3.626  0.2577 -0.0571 -0.2929
 4522SOL    HW114144   2.631   2.008   3.631  0.0630  0.0417 -1.0572
 4522SOL    HW214145   2.725   2.092   3.715 -1.9867  0.9260  0.4381
 4523SOL     OW14146   7.551   1.361   1.364 -0.3243 -0.2606 -0.6336
 4523SOL    HW114147   7.539   1.370   1.458 -2.3134  3.3110 -1.0505
 4523SOL    HW214148   7.644   1.341   1.353  0.1008 -0.0952  2.0491
 4524SOL     OW14149   8.055   7.699   1.966  0.3047 -0.3018  0.8326
 4524SOL    HW114150   8.034   7.626   2.024 -0.3666 -0.8842 -0.1116
 4524SOL    HW214151   8.068   7.659   1.880 -0.5083  0.7311  0.1998
 4525SOL     OW14152   1.861   6.613   6.962 -0.2354 -0.2229 -0.7782
 4525SOL    HW114153   1.769   6.639   6.958 -0.4407 -0.3858  1.4331
 4525SOL    HW214154   1.870   6.572   7.048  1.8533 -0.4468 -1.0592
 4526SOL     OW14155   9.292   9.885   5.626 -0.1270  0.7935 -0.0387
 4526SOL    HW114156   9.212   9.902   5.576 -3.4159 -1.0016  3.9689
 4526SOL    HW214157   9.294   9.790   5.636  0.6388  1.0020  2.5856
 4527SOL     OW14158   5.224   4.708   6.098 -0.2039 -0.0945 -0.1978
 4527SOL    HW114159   5.269   4.788   6.072 -1.4561  0.6234 -0.2551
 4527SOL    HW214160   5.175   4.732   6.177 -0.1986 -0.9471  0.0794
 4528SOL     OW14161   1.534   5.728   0.567 -0.6206 -0.7879 -0.6109
 4528SOL    HW114162   1.549   5.639   0.599  0.6933  0.0136  1.1336
 4528SOL    HW214163   1.621   5.763   0.550 -0.8882  1.0855  1.4641
 4529SOL     OW14164   7.299   9.961   6.822 -0.1859  0.1842 -0.0846
 4529SOL    HW114165   7.328  10.014   6.896 -1.9198 -0.3598  1.0720
 4529SOL    HW214166   7.319   9.870   6.847  0.2108  0.0679 -0.7849
 4530SOL     OW14167   2.934   5.429   1.121 -0.3720  0.2737  0.0512
 4530SOL    HW114168   2.886   5.460   1.198 -0.5413  0.1561 -0.0064
 4530SOL    HW214169   2.866   5.401   1.060 -0.2129 -0.7942  0.3506
 4531SOL     OW14170   5.658   7.835   2.062 -0.2659 -0.0012  0.3279
 4531SOL    HW114171   5.574   7.790   2.055 -1.0032  0.7732  2.9507
 4531SOL    HW214172   5.713   7.796   1.993 -2.7567 -0.4587 -1.5460
 4532SOL     OW14173   7.204   7.552   0.891 -0.1913  0.4359  0.4867
 4532SOL    HW114174   7.116   7.567   0.927  0.3591  0.3044  1.9553
 4532SOL    HW214175   7.192   7.485   0.824 -1.2326  0.5026  0.5933
 4533SOL     OW14176   2.880   5.397   3.048 -0.2232  0.2666  0.7356
 4533SOL    HW114177   2.967   5.394   3.007 -0.5517 -0.6868  0.0779
 4533SOL    HW214178   2.878   5.482   3.092  0.6260  0.7904 -0.1792
 4534SOL     OW14179   5.017   0.868   0.203  0.2527 -0.6710  0.8144
 4534SOL    HW114180   4.996   0.827   0.119 -1.3299 -0.4144  1.0391
 4534SOL    HW214181   4.953   0.831   0.264  0.5682  0.0711  1.6172
 4535SOL     OW14182   5.223   8.315   1.477 -0.3001  0.0925 -0.7709
 4535SOL    HW114183   5.186   8.357   1.554  1.6155  1.0661 -0.3283
 4535SOL    HW214184   5.294   8.261   1.511  0.2084  0.0967 -1.7889
 4536SOL     OW14185   2.416   4.183   7.372 -1.1032  0.5452  0.3616
 4536SOL    HW114186   2.503   4.191   7.411 -0.7225 -0.7473 -0.1542
 4536SOL    HW214187   2.392   4.091   7.387 -1.5692  0.4030 -1.1366
 4537SOL     OW14188   4.849   5.882   0.339  0.1318  0.0550  0.0054
 4537SOL    HW114189   4.881   5.799   0.375 -1.8403 -1.0041 -0.5694
 4537SOL    HW214190   4.922   5.913   0.285  1.9459  0.1189  2.3142
 4538SOL     OW14191   3.123   0.348   0.625 -0.2576 -0.0613  0.2847
 4538SOL    HW114192   3.131   0.437   0.658 -1.7748  0.0148  0.4859
 4538SOL    HW214193   3.133   0.292   0.703  0.0822 -0.0553  0.2491
 4539SOL     OW14194   9.598   9.128   4.901  0.2517 -0.0797  0.1011
 4539SOL    HW114195   9.583   9.098   4.990  0.4742 -0.2829  0.0709
 4539SOL    HW214196   9.646   9.211   4.912  2.1982 -1.1505  0.1565
 4540SOL     OW14197   8.385   7.686   5.633  0.2968 -0.6092 -0.2568
 4540SOL    HW114198   8.359   7.601   5.668  2.2490 -0.8666  0.7111
 4540SOL    HW214199   8.480   7.679   5.622  0.1599  0.5404 -2.7668
 4541SOL     OW14200   4.203   7.787   4.126 -0.5373  0.7149  0.0689
 4541SOL    HW114201   4.274   7.815   4.069  0.2641  2.1782  1.6914
 4541SOL    HW214202   4.240   7.717   4.180 -1.3662 -0.8436 -1.2923
 4542SOL     OW14203   0.595   6.809   5.904 -0.5226  0.5438 -0.0364
 4542SOL    HW114204   0.535   6.796   5.831  2.0317  0.9587 -2.3540
 4542SOL    HW214205   0.547   6.775   5.980 -2.9686 -0.7225 -1.9788
 4543SOL     OW14206   3.466   6.288   8.526  0.0676 -0.2754  0.0128
 4543SOL    HW114207   3.562   6.286   8.529  0.1859  2.5907  0.9054
 4543SOL    HW214208   3.446   6.332   8.444 -0.3470  1.1961  0.8587
 4544SOL     OW14209   4.562   1.221   2.206 -0.1070  0.3472 -0.2368
 4544SOL    HW114210   4.492   1.192   2.147  0.4935 -0.6192 -0.4995
 4544SOL    HW214211   4.608   1.289   2.156  0.0014 -0.0100 -0.6242
 4545SOL     OW14212   8.062   1.824   4.069  0.0971 -0.2238 -0.0204
 4545SOL    HW114213   8.018   1.754   4.020  1.1797 -1.8368  1.2163
 4545SOL    HW214214   7.997   1.851   4.135 -0.0282 -0.6904  0.0554
 4546SOL     OW14215   3.274   3.532   6.719 -0.2584  0.8418 -0.1187
 4546SOL    HW114216   3.369   3.519   6.716 -0.2178  1.2922 -1.0750
 4546SOL    HW214217   3.256   3.555   6.811  1.0410  4.0585 -0.5411
 4547SOL     OW14218   5.833   9.319   3.219 -0.0990  0.2691  0.0172
 4547SOL    HW114219   5.885   9.377   3.274  0.6061  0.0525 -0.4019
 4547SOL    HW214220   5.746   9.319   3.259 -0.0479  1.4121  0.1670
 4548SOL     OW14221   6.121   1.186   8.167 -0.0817  0.1773  0.6312
 4548SOL    HW114222   6.074   1.115   8.122  0.6765 -0.6171  1.0598
 4548SOL    HW214223   6.134   1.252   8.100  1.1643 -1.0526 -0.4179
 4549SOL     OW14224   1.814   1.237   6.644  0.6542  0.1149  0.3635
 4549SOL    HW114225   1.881   1.228   6.713  1.4876 -0.5958 -0.5155
 4549SOL    HW214226   1.856   1.204   6.565 -0.4839  0.3993 -0.3855
 4550SOL     OW14227   4.829   8.628   3.794  0.1500 -0.2367 -0.7797
 4550SOL    HW114228   4.913   8.583   3.805 -0.8919 -2.6170 -1.7244
 4550SOL    HW214229   4.807   8.613   3.702 -1.8291 -0.6853 -0.2729
 4551SOL     OW14230   2.586   5.306   6.124 -0.1219  0.1751  0.0404
 4551SOL    HW114231   2.641   5.270   6.054  2.0572  1.1064  1.1620
 4551SOL    HW214232   2.612   5.259   6.202 -0.1804  1.3439  0.7915
 4552SOL     OW14233   7.058   6.635   5.569  0.0590 -0.0313 -0.5843
 4552SOL    HW114234   6.996   6.683   5.514  1.3669  1.5923 -0.7183
 4552SOL    HW214235   7.008   6.613   5.648 -0.8422  0.7367 -0.9183
 4553SOL     OW14236   9.486   3.933   1.387  0.0553  0.1947 -0.1371
 4553SOL    HW114237   9.445   3.863   1.336  1.4535 -2.1172  1.6651
 4553SOL    HW214238   9.579   3.929   1.364  0.2051  1.2364  0.2338
 4554SOL     OW14239   8.059   8.338   9.787  0.4275  0.9859  0.4174
 4554SOL    HW114240   8.018   8.403   9.730  0.2882  0.7946  0.3001
 4554SOL    HW214241   7.987   8.303   9.839  0.6034  1.4110  0.9654
 4555SOL     OW14242   0.901   5.245   2.677 -0.6377 -0.3464  0.3274
 4555SOL    HW114243   0.843   5.176   2.645 -1.2738  0.7649 -1.0354
 4555SOL    HW214244   0.972   5.248   2.613 -0.1246 -0.3411  0.8875
 4556SOL     OW14245   7.719   4.937   0.262 -0.6668  0.0104  0.5714
 4556SOL    HW114246   7.712   4.859   0.208 -1.5177  1.0561 -0.9013
 4556SOL    HW214247   7.800   4.979   0.233 -0.8170  0.2719  0.5248
 4557SOL     OW14248   9.098   7.201   2.330 -0.4174 -0.0236 -0.2039
 4557SOL    HW114249   9.120   7.223   2.240 -1.0446  1.0624 -0.1087
 4557SOL    HW214250   9.164   7.244   2.383 -0.5419  0.0540 -0.1099
 4558SOL     OW14251   0.357   7.984   9.418  0.1953 -0.2249 -0.4515
 4558SOL    HW114252   0.366   8.075   9.443 -0.7276 -0.3784  0.4979
 4558SOL    HW214253   0.263   7.970   9.410  0.3113 -1.1491 -0.3638
 4559SOL     OW14254   3.261   2.297   5.879 -0.2729 -0.2840 -0.2191
 4559SOL    HW114255   3.248   2.202   5.882 -0.9311 -0.1631  2.1606
 4559SOL    HW214256   3.175   2.334   5.899  0.5161  0.7510  1.4967
 4560SOL     OW14257   4.523   1.785   8.703  0.4592  0.1247 -0.0612
 4560SOL    HW114258   4.500   1.871   8.668  2.6081  1.0242  0.5581
 4560SOL    HW214259   4.456   1.767   8.769 -1.0708  0.4244 -1.4763
 4561SOL     OW14260   1.642   5.455   6.957  0.1717 -0.1978 -0.5134
 4561SOL    HW114261   1.622   5.549   6.952  1.3268  0.0350 -0.9670
 4561SOL    HW214262   1.560   5.413   6.930 -0.4292  0.6628 -0.1119
 4562SOL     OW14263   5.272   6.698   9.722 -0.0754  0.1100  0.0038
 4562SOL    HW114264   5.308   6.771   9.670 -0.3714  0.2642  0.0111
 4562SOL    HW214265   5.340   6.631   9.719  0.1780  0.3641 -0.0542
 4563SOL     OW14266   5.051   4.528   9.592  0.4592 -0.1793  0.3772
 4563SOL    HW114267   4.974   4.519   9.648  0.7194 -1.3836  0.5618
 4563SOL    HW214268   5.125   4.526   9.653  0.6762  0.0311  0.1213
 4564SOL     OW14269   5.713   3.616   9.064 -0.0191 -0.4883 -0.8502
 4564SOL    HW114270   5.664   3.695   9.090  1.1319  0.5498 -1.7058
 4564SOL    HW214271   5.715   3.619   8.969  1.6384 -0.5073 -0.8471
 4565SOL     OW14272   3.028   3.083   5.392 -0.3518 -0.4342  0.0221
 4565SOL    HW114273   2.999   3.004   5.347 -1.2376 -0.6523  0.9526
 4565SOL    HW214274   2.954   3.143   5.387  0.3445  0.4035 -0.7612
 4566SOL     OW14275   3.050   9.712   6.906 -0.1240 -0.0595  0.0338
 4566SOL    HW114276   3.080   9.699   6.816  0.8539 -1.1822  0.5004
 4566SOL    HW214277   3.035   9.624   6.939 -1.0866  0.3767  0.7811
 4567SOL     OW14278   2.961   0.733   2.932 -0.7704 -0.1116 -0.2566
 4567SOL    HW114279   3.020   0.773   2.868  0.3034 -0.2878  0.5842
 4567SOL    HW214280   3.020   0.684   2.990 -1.9447 -2.3103 -0.7985
 4568SOL     OW14281   1.960   4.887   8.309 -0.1070 -0.2030  0.0511
 4568SOL    HW114282   1.989   4.834   8.236 -1.1165 -1.4903  0.5513
 4568SOL    HW214283   1.972   4.832   8.386  2.2792  1.6114  1.1233
 4569SOL     OW14284   0.851   0.269   0.381  0.3849 -0.0037 -0.4464
 4569SOL    HW114285   0.823   0.327   0.451  2.6200  0.5231  0.0963
 4569SOL    HW214286   0.893   0.326   0.317  0.7411 -0.7800 -0.9279
 4570SOL     OW14287   2.297   3.423   7.202 -0.2228 -0.1404  0.3196
 4570SOL    HW114288   2.288   3.332   7.230 -2.7041 -0.0025  0.2449
 4570SOL    HW214289   2.390   3.442   7.210 -0.1296 -1.3513  4.6195
 4571SOL     OW14290   0.930   8.193   4.077  0.2012  0.1359 -0.0292
 4571SOL    HW114291   0.975   8.118   4.037 -1.1372 -1.1657  0.7757
 4571SOL    HW214292   0.941   8.180   4.171 -0.3085  0.7728  0.1265
 4572SOL     OW14293   5.836   7.534   2.113 -0.2611 -0.0103  0.2391
 4572SOL    HW114294   5.824   7.608   2.172  0.2227 -0.5009  0.9649
 4572SOL    HW214295   5.873   7.465   2.168  1.4716 -0.0474 -0.8763
 4573SOL     OW14296   7.338   6.731   8.502 -0.2525 -0.5811 -0.4186
 4573SOL    HW114297   7.262   6.719   8.444 -0.2320  0.5060 -0.6853
 4573SOL    HW214298   7.335   6.823   8.527  0.4258 -0.7592  0.3686
 4574SOL     OW14299   0.120   9.596   4.836  0.5595 -0.2956  0.3745
 4574SOL    HW114300   0.193   9.647   4.801  0.6080 -0.1472  0.6936
 4574SOL    HW214301   0.155   9.552   4.913  0.1585  0.2087  0.8477
 4575SOL     OW14302   2.274   4.508   7.694  0.0243  0.7235 -0.1457
 4575SOL    HW114303   2.253   4.457   7.616  1.2722 -0.6757  0.3950
 4575SOL    HW214304   2.189   4.525   7.735 -0.4866 -0.1404 -0.8186
 4576SOL     OW14305   9.465   6.126   8.275 -0.0199 -1.1692 -0.0619
 4576SOL    HW114306   9.433   6.115   8.364  1.2033 -3.2347  0.2028
 4576SOL    HW214307   9.484   6.219   8.267 -0.7636 -0.8434  1.5983
 4577SOL     OW14308   1.959   0.664   0.521  0.1666  0.2053 -0.1626
 4577SOL    HW114309   1.951   0.755   0.547  0.3485 -0.1947  1.3514
 4577SOL    HW214310   2.053   0.650   0.508  0.7109 -0.7665  3.6644
 4578SOL     OW14311   0.129   3.489   7.507  0.7128  0.2052 -0.8528
 4578SOL    HW114312   0.050   3.447   7.542  1.6831 -0.5975  0.4796
 4578SOL    HW214313   0.097   3.568   7.463 -0.8219 -0.0699 -0.2867
 4579SOL     OW14314   6.909   3.761   2.762 -0.2176  0.0932  0.1491
 4579SOL    HW114315   6.868   3.688   2.809 -0.5782  0.6201  0.6642
 4579SOL    HW214316   6.947   3.815   2.831 -0.3518  0.6317 -0.1954
 4580SOL     OW14317   9.368   0.846   0.321 -0.0193 -0.0477  0.3306
 4580SOL    HW114318   9.394   0.767   0.273  1.3537 -0.1347  1.1491
 4580SOL    HW214319   9.401   0.831   0.410 -0.2317  1.2111  0.6337
 4581SOL     OW14320   6.136   6.942   2.289  0.2144  0.5851 -1.0420
 4581SOL    HW114321   6.158   6.914   2.378  0.3831  2.5538 -0.4135
 4581SOL    HW214322   6.058   6.996   2.300  0.0183  0.5550 -2.1657
 4582SOL     OW14323   3.921   4.742   3.287 -0.1802  0.0147  0.4509
 4582SOL    HW114324   3.880   4.725   3.372  0.4141 -2.3411  0.3384
 4582SOL    HW214325   3.858   4.709   3.223 -0.3306  1.1556 -0.0136
 4583SOL     OW14326   6.005   0.383   0.208 -0.1291 -0.3182 -0.4966
 4583SOL    HW114327   5.932   0.432   0.247  0.4030 -0.6715  0.9952
 4583SOL    HW214328   6.020   0.310   0.268  0.6564 -0.9545 -1.4354
 4584SOL     OW14329   6.371   7.837   0.745  0.4579 -0.0697  0.0883
 4584SOL    HW114330   6.411   7.905   0.690  0.0649 -0.6552 -0.9431
 4584SOL    HW214331   6.397   7.755   0.704 -0.9144 -0.4888  0.0162
 4585SOL     OW14332   9.606   7.798   1.018  0.1239 -0.0191  0.3488
 4585SOL    HW114333   9.638   7.887   1.033 -0.4285  0.4372 -1.0086
 4585SOL    HW214334   9.514   7.801   1.044 -0.4059  0.3461 -1.4360
 4586SOL     OW14335   7.098   0.529   8.219  0.3184 -0.5205  0.3659
 4586SOL    HW114336   7.009   0.555   8.195  0.8370 -0.0111 -1.1234
 4586SOL    HW214337   7.125   0.468   8.150  0.3201 -2.5205  2.0482
 4587SOL     OW14338   5.388   4.888   1.527  0.4052  0.0030 -0.5246
 4587SOL    HW114339   5.394   4.813   1.586 -0.2159 -0.1615 -0.6747
 4587SOL    HW214340   5.474   4.891   1.485  0.7534 -0.0592  0.1606
 4588SOL     OW14341   6.499   2.467   8.492  0.1498  0.3622 -0.3183
 4588SOL    HW114342   6.486   2.451   8.586  3.3209 -0.8633  0.0452
 4588SOL    HW214343   6.477   2.384   8.450  0.6232  0.2833 -0.4159
 4589SOL     OW14344   4.379   9.700   0.387 -0.0328 -0.1271 -0.4829
 4589SOL    HW114345   4.400   9.781   0.341  1.3964 -0.5814 -0.6985
 4589SOL    HW214346   4.450   9.690   0.451 -0.6153 -0.8037  0.0719
 4590SOL     OW14347   6.497   4.543   9.291  0.6681  0.1761  0.3040
 4590SOL    HW114348   6.432   4.482   9.326 -0.2788  0.9528 -0.0662
 4590SOL    HW214349   6.514   4.511   9.202  0.2631  0.3828  0.1521
 4591SOL     OW14350   8.810   6.850   1.302 -0.0923  0.1869 -0.4532
 4591SOL    HW114351   8.777   6.880   1.218 -1.5912  0.5399  0.2345
 4591SOL    HW214352   8.733   6.846   1.358  0.9462  0.4583  1.0532
 4592SOL     OW14353   1.881   6.161   5.478 -0.2437 -0.1013  0.3710
 4592SOL    HW114354   1.832   6.234   5.516 -0.7518 -1.2283  1.9907
 4592SOL    HW214355   1.847   6.154   5.388 -1.0497  0.8898  0.5770
 4593SOL     OW14356   9.356   2.353   7.117  0.2878  0.0347  0.0608
 4593SOL    HW114357   9.328   2.302   7.193  0.9414  0.6221  0.7244
 4593SOL    HW214358   9.361   2.443   7.150 -0.6226  0.4955 -1.0140
 4594SOL     OW14359   6.573   5.633   5.381  0.1750  0.1478 -0.1187
 4594SOL    HW114360   6.541   5.551   5.345  1.4368 -0.3733 -0.0783
 4594SOL    HW214361   6.502   5.663   5.438 -0.2289 -0.9878  0.0011
 4595SOL     OW14362   3.646   8.703   0.432 -0.1139  0.3092 -0.2345
 4595SOL    HW114363   3.692   8.624   0.461 -1.5238 -0.3821  0.2231
 4595SOL    HW214364   3.703   8.775   0.458 -0.1870 -0.4122  2.1073
 4596SOL     OW14365   8.402   8.510   4.595  0.0611 -1.0619  0.0250
 4596SOL    HW114366   8.324   8.539   4.643  0.9169  2.3969 -0.4570
 4596SOL    HW214367   8.470   8.501   4.662 -0.4106 -3.1205  0.3035
 4597SOL     OW14368   0.199   0.957   4.581  0.0576  0.3144 -0.0141
 4597SOL    HW114369   0.162   0.964   4.492 -0.2428  1.2357  0.1756
 4597SOL    HW214370   0.242   0.871   4.582  1.8363  1.0966 -1.7266
 4598SOL     OW14371   0.413   7.462   6.842  0.2277  0.2987  0.5215
 4598SOL    HW114372   0.444   7.551   6.858 -0.7203  0.8677 -0.6841
 4598SOL    HW214373   0.345   7.447   6.907  0.1673  0.5618  0.5166
 4599SOL     OW14374   1.027   5.190   2.954  0.2777  0.0335  0.3069
 4599SOL    HW114375   0.980   5.139   2.888 -1.5386  0.0129  1.5452
 4599SOL    HW214376   1.116   5.199   2.919 -0.7785  0.6407 -2.4412
 4600SOL     OW14377   7.235   3.492   1.302 -0.1630 -0.2565  1.1607
 4600SOL    HW114378   7.290   3.555   1.349  3.1453 -2.5297  0.6427
 4600SOL    HW214379   7.214   3.425   1.366 -0.3862 -0.5799  0.7570
 4601SOL     OW14380   6.308   2.169   2.925 -0.3429 -0.1001  0.1320
 4601SOL    HW114381   6.260   2.099   2.880  0.2825 -0.6564  0.3106
 4601SOL    HW214382   6.240   2.232   2.950 -0.5668  1.2092 -3.2315
 4602SOL     OW14383   7.660   3.370   7.089  0.1947  0.0153 -0.2163
 4602SOL    HW114384   7.663   3.455   7.045 -1.0741  0.6780  0.9169
 4602SOL    HW214385   7.750   3.353   7.116  0.3423  1.3559  0.1884
 4603SOL     OW14386   8.547   5.269   9.100 -0.4366  0.0977 -0.0156
 4603SOL    HW114387   8.486   5.340   9.121 -0.0902  0.0441  1.2101
 4603SOL    HW214388   8.526   5.201   9.163  0.4346 -0.1943 -0.0390
 4604SOL     OW14389   8.946   5.757   2.797  0.3180 -0.5541 -0.4818
 4604SOL    HW114390   9.032   5.769   2.756  1.7902  0.3271  2.5743
 4604SOL    HW214391   8.901   5.840   2.784  0.4226 -0.5709 -0.9721
 4605SOL     OW14392   7.401   0.114   2.104  0.2875 -0.7380  0.0387
 4605SOL    HW114393   7.421   0.202   2.071  1.2897 -0.8526  0.3128
 4605SOL    HW214394   7.387   0.126   2.198  0.3976 -0.8658  0.0721
 4606SOL     OW14395   0.301   8.600   3.806  0.1073  0.3304 -0.0993
 4606SOL    HW114396   0.386   8.576   3.771  0.8615  2.5899  0.0063
 4606SOL    HW214397   0.292   8.547   3.885 -0.3503 -2.7240 -2.0046
 4607SOL     OW14398   5.056   5.606   4.171 -0.6988  0.3801  0.3332
 4607SOL    HW114399   5.053   5.632   4.078 -0.5106  0.4789  0.3544
 4607SOL    HW214400   5.074   5.512   4.169  1.2842  0.7149  0.2919
 4608SOL     OW14401   1.795   8.405   5.874 -0.7298 -0.6019 -0.0541
 4608SOL    HW114402   1.738   8.458   5.929  0.4852 -1.9574  2.7388
 4608SOL    HW214403   1.736   8.347   5.826 -1.8967  1.4337 -1.1797
 4609SOL     OW14404   5.015   5.097   2.509  0.1883  0.2576  0.6974
 4609SOL    HW114405   5.075   5.127   2.578 -0.0990 -0.4930  1.2811
 4609SOL    HW214406   4.928   5.106   2.548  0.0331 -0.2744  0.4739
 4610SOL     OW14407   8.861   5.633   6.787  0.5300 -0.1261 -0.2141
 4610SOL    HW114408   8.819   5.713   6.818  0.2265 -0.2971 -0.1792
 4610SOL    HW214409   8.920   5.609   6.859 -4.6719 -4.0695  3.5460
 4611SOL     OW14410   9.937   4.946   5.785 -0.6149 -0.0921 -0.1678
 4611SOL    HW114411   9.985   4.872   5.748 -1.0245 -0.2448 -0.3948
 4611SOL    HW214412   9.848   4.914   5.795  0.0266 -1.1236  3.8293
 4612SOL     OW14413   6.815   1.737   6.907  0.5247 -0.2672 -0.1191
 4612SOL    HW114414   6.804   1.642   6.912 -0.0063 -0.1226  2.2897
 4612SOL    HW214415   6.728   1.770   6.884  0.2627 -0.2710  0.8342
 4613SOL     OW14416   4.527   8.784   4.776 -0.1825 -0.0836  0.4256
 4613SOL    HW114417   4.587   8.839   4.826  1.0078  1.0082 -2.0454
 4613SOL    HW214418   4.583   8.727   4.724 -1.3572 -0.9505  0.0532
 4614SOL     OW14419   7.902   8.289   5.834 -0.3070  0.3659  0.3134
 4614SOL    HW114420   7.812   8.314   5.814 -1.3506  0.4599  4.3694
 4614SOL    HW214421   7.905   8.195   5.816 -1.7042  0.0791  1.4279
 4615SOL     OW14422   3.893   4.716   5.479  0.3110  0.2496  0.4513
 4615SOL    HW114423   3.928   4.804   5.495  2.7696 -0.4048 -0.9176
 4615SOL    HW214424   3.826   4.729   5.412  0.7736  1.0811  0.1296
 4616SOL     OW14425   1.218   4.484   2.820 -0.1188  0.0685  0.1563
 4616SOL    HW114426   1.148   4.546   2.796 -1.2652 -1.4770 -0.6970
 4616SOL    HW214427   1.283   4.494   2.750 -0.1888  0.4752  0.1477
 4617SOL     OW14428   5.260   4.037   3.922  0.6969 -0.1923 -0.1915
 4617SOL    HW114429   5.222   4.122   3.898  1.3444 -0.0915 -0.8845
 4617SOL    HW214430   5.229   4.022   4.012  0.2380  0.5804 -0.2096
 4618SOL     OW14431   2.517   8.021   5.710  0.2635  0.1226  0.0078
 4618SOL    HW114432   2.510   7.944   5.653  0.3472 -0.2729  0.5309
 4618SOL    HW214433   2.446   8.010   5.773  0.2543  0.4945  0.0600
 4619SOL     OW14434   1.189   8.048  -0.009 -0.7660 -0.5109  0.5029
 4619SOL    HW114435   1.162   8.094   0.071 -1.3976 -2.3407  1.4031
 4619SOL    HW214436   1.156   7.960   0.002  0.5617 -1.2616 -1.0722
 4620SOL     OW14437   8.193   1.684   6.913  0.5127  0.2662  0.4242
 4620SOL    HW114438   8.136   1.623   6.866  0.3298 -0.0795  1.0804
 4620SOL    HW214439   8.273   1.634   6.931 -0.2114 -0.3260  2.3009
 4621SOL     OW14440   2.900   8.367   4.154 -0.0324  0.1458 -0.0877
 4621SOL    HW114441   2.830   8.426   4.179  0.1415  0.0730  0.5927
 4621SOL    HW214442   2.980   8.419   4.164  0.0157  0.2467 -0.9100
 4622SOL     OW14443   8.082   6.668   5.004  0.1676  0.1783  0.1976
 4622SOL    HW114444   8.111   6.584   5.038 -0.5331 -0.8054 -1.5307
 4622SOL    HW214445   8.148   6.692   4.939 -0.0823  0.5544  0.0780
 4623SOL     OW14446   8.733   2.227   1.056 -0.3374 -0.3018 -0.0785
 4623SOL    HW114447   8.738   2.274   1.139  1.9918 -0.2362 -0.1723
 4623SOL    HW214448   8.807   2.166   1.059 -1.4309 -1.7585 -1.2675
 4624SOL     OW14449   8.848   0.265   3.512 -0.4148  0.1741  0.3989
 4624SOL    HW114450   8.847   0.210   3.434 -2.1781  1.0794 -0.2746
 4624SOL    HW214451   8.817   0.208   3.583 -1.5087  0.0762 -0.1403
 4625SOL     OW14452   3.655   8.415   9.103 -0.9678 -0.3613  0.0073
 4625SOL    HW114453   3.743   8.402   9.068  0.2177 -0.7532  2.9021
 4625SOL    HW214454   3.661   8.392   9.196 -4.4852 -1.8859  0.0400
 4626SOL     OW14455   9.718   7.492   1.423 -0.2063  0.1004 -0.1139
 4626SOL    HW114456   9.768   7.562   1.382 -0.2898  0.3063  0.1315
 4626SOL    HW214457   9.686   7.439   1.350  0.0486  0.1865 -0.2887
 4627SOL     OW14458   6.105   0.379   6.392 -0.0385  0.8850  0.6699
 4627SOL    HW114459   6.022   0.334   6.399  0.0998  0.4732 -0.1617
 4627SOL    HW214460   6.137   0.387   6.482 -1.6974  2.4563  1.1824
 4628SOL     OW14461   7.110   3.304   1.717  0.2506 -0.3306 -0.2963
 4628SOL    HW114462   7.076   3.227   1.670  2.4400 -1.1897 -0.6116
 4628SOL    HW214463   7.153   3.267   1.794  1.0559  0.6063 -0.2837
 4629SOL     OW14464   1.902   8.337   5.570 -0.0814  0.2774  0.7881
 4629SOL    HW114465   1.906   8.242   5.580 -2.7748  0.0953  0.6910
 4629SOL    HW214466   1.955   8.371   5.642  1.9901 -1.2517  0.0762
 4630SOL     OW14467   2.091   7.796   1.579  0.5244  0.0751  0.2071
 4630SOL    HW114468   2.099   7.796   1.674  0.5433 -0.5232  0.2095
 4630SOL    HW214469   2.000   7.775   1.562  0.7716 -0.9468  0.0864
 4631SOL     OW14470   8.297   3.816   0.866 -0.0649  0.0739  0.2962
 4631SOL    HW114471   8.277   3.757   0.793  0.3832  0.2046  0.0664
 4631SOL    HW214472   8.322   3.898   0.824  0.8840 -0.0647  0.5751
 4632SOL     OW14473   9.599   1.284   7.913 -0.3159 -0.2293  0.9452
 4632SOL    HW114474   9.645   1.200   7.910  0.9311  0.4046  1.7514
 4632SOL    HW214475   9.596   1.313   7.822 -1.4235 -1.4768  0.5528
 4633SOL     OW14476   3.369   1.558   9.859 -0.3473 -0.5712  0.0285
 4633SOL    HW114477   3.464   1.548   9.849 -0.0110  0.7501  1.4320
 4633SOL    HW214478   3.336   1.468   9.865  0.7651 -1.0579 -0.7681
 4634SOL     OW14479   4.744   3.595   0.404 -0.0892 -0.4827  0.4466
 4634SOL    HW114480   4.786   3.593   0.319  0.0401 -1.3958  0.5246
 4634SOL    HW214481   4.729   3.503   0.426 -2.0784 -0.2069  0.4376
 4635SOL     OW14482   0.113   0.821   0.983 -0.4814 -0.0961  0.0688
 4635SOL    HW114483   0.069   0.894   0.940 -0.4182  0.5484  1.0583
 4635SOL    HW214484   0.145   0.857   1.065  1.0599 -0.7928 -0.1783
 4636SOL     OW14485   5.867   8.472   1.915  0.1137  0.0140  0.4594
 4636SOL    HW114486   5.805   8.543   1.902  0.3580  0.3351  1.0065
 4636SOL    HW214487   5.902   8.454   1.828 -0.0105  0.5055  0.3069
 4637SOL     OW14488   1.370   5.700   7.442  0.3730  0.0669 -0.4980
 4637SOL    HW114489   1.436   5.646   7.400  0.9160  1.4857 -1.5547
 4637SOL    HW214490   1.386   5.690   7.536  0.1068 -1.9720 -0.6341
 4638SOL     OW14491   7.414   3.240   7.761  0.2279 -0.5697  0.4699
 4638SOL    HW114492   7.359   3.261   7.836  0.0721  0.0501  0.1932
 4638SOL    HW214493   7.417   3.321   7.711  2.3517 -0.2406  1.0660
 4639SOL     OW14494   4.318   2.213   9.868  0.2351 -0.0440  0.3199
 4639SOL    HW114495   4.231   2.245   9.891  1.4869  1.9274  2.7095
 4639SOL    HW214496   4.365   2.291   9.838  1.4366 -0.9120 -0.1184
 4640SOL     OW14497   0.785   9.940   6.037  0.4457 -0.3967  0.0978
 4640SOL    HW114498   0.801   9.968   5.947  0.9635 -0.2245  0.2394
 4640SOL    HW214499   0.694   9.965   6.054  1.0724  1.9191  0.4695
 4641SOL     OW14500   5.073   5.472   7.846 -0.2933 -0.0012 -0.7353
 4641SOL    HW114501   5.073   5.379   7.823 -1.9789 -0.6845  1.6320
 4641SOL    HW214502   5.141   5.511   7.791 -0.9446 -2.2193 -3.3229
 4642SOL     OW14503   3.160   6.179   9.397 -0.2653 -0.0087 -0.7098
 4642SOL    HW114504   3.201   6.133   9.324 -0.1663  2.0766 -2.0367
 4642SOL    HW214505   3.069   6.189   9.371  0.1199  2.2071 -1.3839
 4643SOL     OW14506   5.716   1.419   5.047  0.1974 -0.2060  0.1820
 4643SOL    HW114507   5.797   1.389   5.087  0.3975  0.2280  0.1102
 4643SOL    HW214508   5.672   1.468   5.116 -0.3732 -1.0962  0.4584
 4644SOL     OW14509   0.796   9.426   2.444  0.4363 -0.5321 -0.2682
 4644SOL    HW114510   0.846   9.352   2.478 -0.1012  0.2237  2.3901
 4644SOL    HW214511   0.860   9.496   2.433  0.3106 -0.1334  1.3416
 4645SOL     OW14512   2.874   4.267   4.117 -0.7361  0.1001 -0.0329
 4645SOL    HW114513   2.822   4.292   4.194 -0.7685  3.5165 -0.9671
 4645SOL    HW214514   2.820   4.295   4.042 -0.2762 -2.2186 -1.3301
 4646SOL     OW14515   1.613   0.014   9.646 -0.4489 -0.5305  0.1420
 4646SOL    HW114516   1.640   0.092   9.695 -1.6986 -0.4192  0.6932
 4646SOL    HW214517   1.673  -0.054   9.675  1.0009  0.3095 -0.7278
 4647SOL     OW14518   7.430   0.749   7.419 -0.6640  0.1519 -0.2123
 4647SOL    HW114519   7.441   0.794   7.335 -1.9558 -1.9909 -1.6327
 4647SOL    HW214520   7.491   0.793   7.478 -0.1023  2.0989 -2.1110
 4648SOL     OW14521   3.842   6.819   8.338  0.3836 -0.3537 -0.4412
 4648SOL    HW114522   3.791   6.891   8.377 -0.0287  0.9001 -3.0222
 4648SOL    HW214523   3.932   6.851   8.338  0.3597 -0.2852 -0.6391
 4649SOL     OW14524   2.764   9.723   1.955  0.0288 -0.3504  0.0088
 4649SOL    HW114525   2.811   9.699   2.035 -0.0073  0.2707  0.2245
 4649SOL    HW214526   2.830   9.724   1.887  0.1702 -0.3211  0.1459
 4650SOL     OW14527   0.984   6.990   6.490  0.5097  0.0479 -0.3198
 4650SOL    HW114528   1.028   6.914   6.529 -0.8882  0.4536  2.2551
 4650SOL    HW214529   0.894   6.961   6.476  0.3056  0.8107 -0.6059
 4651SOL     OW14530   4.288   4.855   8.677  0.1916  0.3915 -0.5746
 4651SOL    HW114531   4.345   4.893   8.744 -2.5962  2.8247  0.5885
 4651SOL    HW214532   4.278   4.763   8.704  2.7465  0.0919 -0.3601
 4652SOL     OW14533   1.251   5.958   9.632 -0.4255  0.2267 -0.3330
 4652SOL    HW114534   1.330   5.926   9.677 -0.9537 -1.2744 -0.4154
 4652SOL    HW214535   1.282   6.030   9.578  0.5174  1.0485  1.2082
 4653SOL     OW14536   9.066   4.864   6.786  0.0565  0.2910  1.0381
 4653SOL    HW114537   9.148   4.914   6.786  1.9925 -2.6360  0.9991
 4653SOL    HW214538   9.050   4.844   6.878  0.5344 -0.8111  0.8955
 4654SOL     OW14539   6.820   8.439   9.754  0.1176  0.8303  0.0140
 4654SOL    HW114540   6.748   8.375   9.757 -1.1949  2.2503  0.2030
 4654SOL    HW214541   6.853   8.442   9.844  0.6050 -0.0042 -0.1234
 4655SOL     OW14542   9.454   8.625   8.730  0.7702  0.2102 -0.4678
 4655SOL    HW114543   9.463   8.534   8.759  0.6244  0.3778  0.1059
 4655SOL    HW214544   9.543   8.659   8.733  0.8119  0.1134 -0.5966
 4656SOL     OW14545   8.345   5.973   9.224 -0.4583 -0.3659  0.2644
 4656SOL    HW114546   8.372   5.896   9.173 -2.0438  0.0842 -1.3688
 4656SOL    HW214547   8.294   6.026   9.162  1.1660  2.3786  1.1353
 4657SOL     OW14548   9.443   2.625   2.719  0.2843 -0.1636  0.1048
 4657SOL    HW114549   9.433   2.644   2.626  1.5482 -1.4322 -0.3322
 4657SOL    HW214550   9.363   2.657   2.759  0.5802  2.2987 -1.0994
 4658SOL     OW14551   0.599   5.898   7.486 -0.1047 -0.3088 -0.0141
 4658SOL    HW114552   0.555   5.917   7.403  0.9588 -1.9132 -1.0024
 4658SOL    HW214553   0.546   5.830   7.527 -0.3880  0.1743  0.4398
 4659SOL     OW14554   3.577   1.443   8.614  0.5482  0.1782 -0.0135
 4659SOL    HW114555   3.545   1.441   8.524 -1.7694 -0.1352  0.7481
 4659SOL    HW214556   3.621   1.359   8.626  1.1989  0.3681 -0.9203
 4660SOL     OW14557   0.517   6.361   6.837 -0.1521  0.0948 -0.6805
 4660SOL    HW114558   0.592   6.376   6.894 -0.5077  0.1322 -0.2109
 4660SOL    HW214559   0.517   6.266   6.821  0.3477  0.1747 -1.1900
 4661SOL     OW14560   4.680   6.907   4.465 -0.7943 -0.8487  0.2071
 4661SOL    HW114561   4.713   6.921   4.553  0.4071 -2.5937  0.0867
 4661SOL    HW214562   4.650   6.993   4.436 -0.6500 -0.1310  2.0707
 4662SOL     OW14563   9.888   2.219   5.209  0.2106  0.9309 -0.0993
 4662SOL    HW114564   9.944   2.261   5.275 -0.8601  1.2841  0.6225
 4662SOL    HW214565   9.896   2.126   5.226 -0.3849  1.0356  0.8447
 4663SOL     OW14566   7.495   4.553   6.461  0.1492  0.1464  0.1067
 4663SOL    HW114567   7.416   4.602   6.480  0.2100  0.9422 -1.5369
 4663SOL    HW214568   7.490   4.476   6.519 -1.6922  0.2855  0.1893
 4664SOL     OW14569   9.380   8.624   4.473  0.1049  0.0636  0.1021
 4664SOL    HW114570   9.429   8.554   4.516 -2.1607 -1.5214  0.3172
 4664SOL    HW214571   9.339   8.673   4.545 -0.3624 -0.0093 -0.1059
 4665SOL     OW14572   4.378   4.448   8.324  0.0598  0.3363  0.1961
 4665SOL    HW114573   4.340   4.421   8.408  0.1278 -2.5440 -0.5801
 4665SOL    HW214574   4.304   4.476   8.272 -0.5530 -1.4971  0.0104
 4666SOL     OW14575   4.956   9.013   7.676 -0.0561 -0.2107  0.0039
 4666SOL    HW114576   4.937   9.075   7.747  1.2841  0.6818 -0.3686
 4666SOL    HW214577   4.900   8.938   7.693 -0.2233  0.2590  1.6542
 4667SOL     OW14578   7.178   1.988   3.473  0.2012 -0.0632  0.0525
 4667SOL    HW114579   7.084   1.992   3.451  0.6440  0.0914 -2.0059
 4667SOL    HW214580   7.201   1.896   3.463  0.0301 -0.3534  1.8891
 4668SOL     OW14581   1.729   8.951   3.143  0.5100 -0.2826 -0.9350
 4668SOL    HW114582   1.768   8.888   3.203  2.6706  2.1538  0.4194
 4668SOL    HW214583   1.640   8.964   3.177  0.9576 -0.5807  0.4252
 4669SOL     OW14584   9.185   8.437   6.087 -0.0892  0.4258  0.2717
 4669SOL    HW114585   9.206   8.525   6.054  1.7715  0.3602  1.1528
 4669SOL    HW214586   9.243   8.379   6.038 -0.2300 -0.1430  0.7729
 4670SOL     OW14587   3.572   4.487   4.670 -0.0644  0.6059  0.2735
 4670SOL    HW114588   3.510   4.437   4.723  0.9211 -0.4568  0.4497
 4670SOL    HW214589   3.637   4.519   4.733  1.6132 -1.4035 -0.3357
 4671SOL     OW14590   7.077   1.391   9.096  0.0528 -0.8222  0.0606
 4671SOL    HW114591   7.098   1.365   9.185 -1.3168 -3.3729 -0.2784
 4671SOL    HW214592   6.982   1.403   9.095  0.2202  0.8253 -0.7068
 4672SOL     OW14593   6.495   1.960   9.134 -0.0105 -0.5924 -0.2218
 4672SOL    HW114594   6.539   2.031   9.181  2.1616 -1.3131 -1.0293
 4672SOL    HW214595   6.455   1.907   9.203 -0.6245  0.7080  0.4645
 4673SOL     OW14596   4.889   4.934   9.570  0.1379 -0.3207  0.3443
 4673SOL    HW114597   4.909   4.865   9.506  0.5465 -0.0086  0.1363
 4673SOL    HW214598   4.965   4.937   9.627 -0.5135 -1.0852  1.2989
 4674SOL     OW14599   7.966   7.196   9.592  0.1367 -0.2313 -0.9180
 4674SOL    HW114600   7.974   7.138   9.516  0.0160 -1.4634 -0.0183
 4674SOL    HW214601   7.927   7.141   9.660 -0.5937  1.0963 -0.2208
 4675SOL     OW14602   0.328   8.741   0.214 -0.6263  0.2550 -0.2665
 4675SOL    HW114603   0.341   8.835   0.199  0.1578  0.2362  0.2647
 4675SOL    HW214604   0.416   8.706   0.228 -0.8205 -0.7227 -1.3097
 4676SOL     OW14605   9.461   3.331   6.890  0.2892 -0.2772 -0.2350
 4676SOL    HW114606   9.430   3.374   6.970  0.8608  1.4900 -0.8997
 4676SOL    HW214607   9.471   3.239   6.914  1.0876  0.3070  1.9206
 4677SOL     OW14608   0.938   4.360   8.493  0.0466 -1.0057  0.5214
 4677SOL    HW114609   0.991   4.362   8.572  3.5280  0.2478 -1.6114
 4677SOL    HW214610   0.974   4.289   8.441 -0.7398 -0.4712 -0.8109
 4678SOL     OW14611   6.952   8.038   0.946 -0.7359 -0.2394 -0.2642
 4678SOL    HW114612   7.024   7.987   0.908 -0.1415  0.3745  0.0253
 4678SOL    HW214613   6.983   8.062   1.033 -0.8676  0.8953 -0.5173
 4679SOL     OW14614   8.794   7.225   7.643  0.2659  0.1000 -0.6375
 4679SOL    HW114615   8.835   7.300   7.599 -0.5516  0.9113 -0.0440
 4679SOL    HW214616   8.756   7.174   7.571  0.5338  0.4305 -1.0208
 4680SOL     OW14617   2.813   8.526   0.473 -0.0041  0.2823 -0.0532
 4680SOL    HW114618   2.791   8.619   0.484 -1.6574 -0.3534  3.0445
 4680SOL    HW214619   2.878   8.508   0.540 -1.2022 -1.2112  0.7593
 4681SOL     OW14620   6.786   1.166   8.606 -0.2680  0.4874  0.3956
 4681SOL    HW114621   6.693   1.149   8.593 -0.4185 -0.6912  2.5482
 4681SOL    HW214622   6.830   1.103   8.549 -0.7729  0.5471 -0.0722
 4682SOL     OW14623   9.068   6.676   4.327 -0.3853 -0.1596  0.2979
 4682SOL    HW114624   9.141   6.700   4.270 -1.1860  0.5206 -0.4669
 4682SOL    HW214625   9.109   6.635   4.403  0.6662 -1.7548 -1.0704
 4683SOL     OW14626   5.144   2.944   3.149 -0.0300 -0.4730 -0.3854
 4683SOL    HW114627   5.147   2.850   3.129  1.1507 -0.7408  0.8119
 4683SOL    HW214628   5.069   2.977   3.101 -0.3409 -1.9990 -1.0129
 4684SOL     OW14629   5.491   6.232   3.937 -0.5308  0.0182 -0.1433
 4684SOL    HW114630   5.465   6.317   3.902 -0.5724 -0.4654 -1.3395
 4684SOL    HW214631   5.559   6.201   3.877  1.3517  0.3160  1.7222
 4685SOL     OW14632   8.772   7.661   8.227 -0.3111  0.2060 -0.0869
 4685SOL    HW114633   8.806   7.750   8.233 -0.1908  0.1481  0.1363
 4685SOL    HW214634   8.845   7.610   8.191 -0.5686  0.2972 -0.7418
 4686SOL     OW14635   8.925   6.053   5.970 -0.1935  0.9186  0.2405
 4686SOL    HW114636   8.918   6.118   5.900 -1.5134  0.5148 -0.0368
 4686SOL    HW214637   8.977   5.983   5.933 -2.5520 -0.2222 -1.1338
 4687SOL     OW14638   9.841   2.516   6.110  0.2156  0.6694 -0.1346
 4687SOL    HW114639   9.850   2.422   6.126  0.6866  0.7110 -0.1398
 4687SOL    HW214640   9.863   2.526   6.018 -0.3371  0.7206 -0.2639
 4688SOL     OW14641   3.833   7.207   0.815 -0.2642  0.4857 -0.2690
 4688SOL    HW114642   3.880   7.130   0.783 -0.3002  0.2777  0.1718
 4688SOL    HW214643   3.851   7.209   0.909 -0.3739  0.9396 -0.2531
 4689SOL     OW14644   6.769   1.698   9.649  0.3494  0.0919  0.0719
 4689SOL    HW114645   6.720   1.717   9.728  0.7134  1.6103 -0.0364
 4689SOL    HW214646   6.806   1.782   9.622  2.0585 -0.7711 -0.4868
 4690SOL     OW14647   7.146   5.609   5.624  0.4837 -0.3059 -0.3084
 4690SOL    HW114648   7.230   5.597   5.669  1.2846 -0.5017 -1.8166
 4690SOL    HW214649   7.081   5.577   5.688  1.5955 -0.8397  0.6058
 4691SOL     OW14650   3.652   5.178   0.535 -0.0496 -0.4510  0.1431
 4691SOL    HW114651   3.583   5.121   0.570 -0.4893  0.1801  0.3290
 4691SOL    HW214652   3.717   5.184   0.605  0.2793 -1.1855 -0.0970
 4692SOL     OW14653   5.169   9.536   1.972 -0.2858 -0.2261 -0.3144
 4692SOL    HW114654   5.206   9.472   1.911  0.0098  1.6288 -2.1913
 4692SOL    HW214655   5.230   9.536   2.046  0.5360 -1.0148 -0.9636
 4693SOL     OW14656   7.468   7.465   3.255 -0.2276  0.2550  0.3941
 4693SOL    HW114657   7.446   7.397   3.191 -0.6223  0.6747  0.0778
 4693SOL    HW214658   7.488   7.417   3.335 -0.5004 -0.2357  0.1706
 4694SOL     OW14659   9.074   9.313   7.531  0.1877 -0.2058  0.8911
 4694SOL    HW114660   9.144   9.377   7.522  0.2983 -0.4174  0.1745
 4694SOL    HW214661   9.118   9.232   7.559  0.0480  0.0220  1.7950
 4695SOL     OW14662   3.280   6.597   1.015  0.3022 -0.1126 -0.0771
 4695SOL    HW114663   3.263   6.666   0.950 -0.3688  0.2445  0.4720
 4695SOL    HW214664   3.198   6.587   1.061  1.2334  0.8774  1.9096
 4696SOL     OW14665   3.312   8.700   4.709 -0.2303 -0.4876  0.1588
 4696SOL    HW114666   3.333   8.609   4.691  0.8562 -0.4176  0.9618
 4696SOL    HW214667   3.395   8.747   4.697  1.0147 -0.5432  5.7760
 4697SOL     OW14668   2.865   4.791   2.493 -0.2219  0.4666  0.2452
 4697SOL    HW114669   2.952   4.799   2.454 -0.8726 -0.3645 -1.5007
 4697SOL    HW214670   2.868   4.709   2.542 -0.9385 -1.4768 -2.6626
 4698SOL     OW14671   9.763   1.779   3.455 -0.5312 -0.0718 -0.6086
 4698SOL    HW114672   9.782   1.771   3.361 -2.9532  2.4916 -1.4343
 4698SOL    HW214673   9.834   1.731   3.497  1.0891 -0.6739 -3.7102
 4699SOL     OW14674   8.127   7.062   0.692 -0.0298  0.1648  0.7036
 4699SOL    HW114675   8.049   7.118   0.695  0.0297  0.3063 -0.1382
 4699SOL    HW214676   8.135   7.038   0.600 -0.7763 -2.2698  1.2104
 4700SOL     OW14677   0.769   3.189   6.931 -0.4832  0.0585  0.3057
 4700SOL    HW114678   0.710   3.161   7.001 -0.3032  0.3089  0.5638
 4700SOL    HW214679   0.856   3.185   6.971 -0.2920 -0.6162 -0.1723
 4701SOL     OW14680   1.490   2.387   6.349 -0.0386 -0.6476  0.2121
 4701SOL    HW114681   1.457   2.304   6.384  0.2390 -0.3076  1.3166
 4701SOL    HW214682   1.573   2.401   6.395  0.2643 -0.1105 -0.4930
 4702SOL     OW14683   9.417   5.731   9.690 -0.3555 -0.2839  0.0996
 4702SOL    HW114684   9.390   5.823   9.690 -1.9462 -0.7096  0.8471
 4702SOL    HW214685   9.448   5.716   9.780  1.6392 -0.0478 -0.4994
 4703SOL     OW14686   4.744   7.509   9.610  0.9150  0.2993 -0.5389
 4703SOL    HW114687   4.819   7.468   9.568  0.7564  0.6559 -1.1806
 4703SOL    HW214688   4.741   7.470   9.697  1.5618 -0.0615 -0.6740
 4704SOL     OW14689   4.122   1.979   3.126  0.6784 -0.5528  0.4625
 4704SOL    HW114690   4.075   2.061   3.114  2.0607  0.1862 -0.0738
 4704SOL    HW214691   4.077   1.937   3.200 -0.7726  0.1219  0.0118
 4705SOL     OW14692   6.135   7.482   9.039 -0.1204 -0.0896 -0.2737
 4705SOL    HW114693   6.146   7.528   9.123 -1.5809  1.7004 -0.9844
 4705SOL    HW214694   6.051   7.438   9.047 -0.8940  1.1729 -1.2409
 4706SOL     OW14695   2.506   6.907   3.320  0.3328  0.4717 -0.4382
 4706SOL    HW114696   2.575   6.921   3.255 -0.0678 -0.3857 -1.0700
 4706SOL    HW214697   2.512   6.814   3.342 -1.2602  0.1244 -1.2868
 4707SOL     OW14698   0.618   9.766   9.627  0.2417 -0.6182  0.9136
 4707SOL    HW114699   0.650   9.739   9.540  0.3935  1.7292  0.1769
 4707SOL    HW214700   0.697   9.776   9.679  0.3164 -0.0573  0.6993
 4708SOL     OW14701   4.334   1.495   8.242  0.3376  0.4591 -0.2801
 4708SOL    HW114702   4.255   1.492   8.297 -0.1419 -0.3573 -0.9893
 4708SOL    HW214703   4.387   1.565   8.281 -1.3339  1.9679 -0.5725
 4709SOL     OW14704   6.241   0.914   5.989 -0.2044  0.1225  0.0697
 4709SOL    HW114705   6.301   0.906   5.915  1.2951  0.5546  1.1824
 4709SOL    HW214706   6.235   1.008   6.005  0.1872  0.0001  1.0161
 4710SOL     OW14707   5.423   4.803   3.085 -0.5641 -0.1718  0.0956
 4710SOL    HW114708   5.486   4.776   3.151 -0.7857  0.2093  0.4618
 4710SOL    HW214709   5.476   4.837   3.013 -0.3012 -1.1128 -0.1652
 4711SOL     OW14710   8.767   4.151   1.532  0.0207 -0.6332  0.0978
 4711SOL    HW114711   8.738   4.113   1.449 -1.1039  0.4280 -0.0299
 4711SOL    HW214712   8.849   4.107   1.552 -0.5258 -2.0784 -0.7425
 4712SOL     OW14713   1.495   7.051   3.741 -0.4547 -0.4092  0.1860
 4712SOL    HW114714   1.573   7.015   3.699 -1.1869 -1.3418 -0.3976
 4712SOL    HW214715   1.465   6.982   3.800 -0.1900  0.3900  1.2974
 4713SOL     OW14716   2.829   1.237   2.219  0.2554 -1.0701 -0.3453
 4713SOL    HW114717   2.909   1.222   2.268 -0.2621 -0.8156  0.6162
 4713SOL    HW214718   2.764   1.180   2.260 -0.7435  0.7580  0.7932
 4714SOL     OW14719   0.885   3.371   8.840 -0.0894 -0.1877  0.6616
 4714SOL    HW114720   0.934   3.289   8.845 -0.0328 -0.2554 -0.5556
 4714SOL    HW214721   0.805   3.348   8.792 -0.1094  0.4386  0.3816
 4715SOL     OW14722   5.604   1.848   6.529 -0.1691 -0.4838  0.2142
 4715SOL    HW114723   5.686   1.894   6.551 -1.4203  1.5032  1.0088
 4715SOL    HW214724   5.628   1.789   6.458  2.0398 -0.2573  0.6915
 4716SOL     OW14725   3.431   2.468   9.895 -0.1012 -0.1148  0.6416
 4716SOL    HW114726   3.336   2.480   9.902 -0.2339 -0.4556 -0.3414
 4716SOL    HW214727   3.468   2.552   9.921 -0.8017  0.9236 -1.4704
 4717SOL     OW14728   3.270   1.375   4.721 -0.0403  0.0976  0.1403
 4717SOL    HW114729   3.177   1.363   4.700 -0.1359 -0.7453  0.9808
 4717SOL    HW214730   3.289   1.464   4.693 -1.1423  0.3309  0.0780
 4718SOL     OW14731   9.183   5.452   3.287  0.3039 -0.5584  0.2275
 4718SOL    HW114732   9.188   5.393   3.363 -3.8062 -1.1585  0.2735
 4718SOL    HW214733   9.242   5.412   3.223  0.4143 -2.7023  1.5337
 4719SOL     OW14734   3.922   2.784   1.577  0.4281  0.4451 -0.6397
 4719SOL    HW114735   3.963   2.757   1.495  1.6751  1.5083 -0.3926
 4719SOL    HW214736   3.978   2.854   1.610  0.4895 -0.6150  1.6276
 4720SOL     OW14737   9.111   2.260   6.347  0.3015 -0.3090 -0.0072
 4720SOL    HW114738   9.157   2.306   6.276 -1.0365  0.0312 -0.6761
 4720SOL    HW214739   9.117   2.167   6.322 -1.1805 -0.1080 -1.2150
 4721SOL     OW14740   1.872   4.142   3.267  0.4563 -0.2431 -0.2624
 4721SOL    HW114741   1.784   4.175   3.286  0.5127  0.1237 -0.6153
 4721SOL    HW214742   1.893   4.180   3.182  0.2540 -1.7308 -1.0075
 4722SOL     OW14743   2.205   7.084   1.710  0.6002  0.1635 -0.4768
 4722SOL    HW114744   2.188   7.065   1.618 -0.0825 -0.6545 -0.1993
 4722SOL    HW214745   2.211   6.998   1.751 -0.3254  0.5109  0.4439
 4723SOL     OW14746   1.826   3.675   3.007 -0.2876  0.1030  0.4606
 4723SOL    HW114747   1.847   3.762   3.041 -1.0865  0.0585  1.0838
 4723SOL    HW214748   1.782   3.631   3.080 -1.2884 -0.2825 -0.3630
 4724SOL     OW14749   9.604   4.754   2.882  0.1535  0.1618 -0.2507
 4724SOL    HW114750   9.639   4.666   2.895 -3.0091 -1.1186  0.4706
 4724SOL    HW214751   9.534   4.743   2.818 -0.2138  2.1943 -0.2761
 4725SOL     OW14752   1.270   6.647   9.243  0.0338  0.1462 -0.3894
 4725SOL    HW114753   1.325   6.582   9.200 -1.0287 -0.6163 -0.6578
 4725SOL    HW214754   1.322   6.727   9.244  1.8805 -1.0026  1.0701
 4726SOL     OW14755   0.246   1.404   3.566  0.3257  0.4707 -0.3002
 4726SOL    HW114756   0.281   1.397   3.477  1.1614 -0.0778  0.0599
 4726SOL    HW214757   0.302   1.468   3.609  0.2270  0.3675 -0.0214
 4727SOL     OW14758   4.634   0.696   9.819  0.1792  0.5424  0.1715
 4727SOL    HW114759   4.598   0.772   9.772  0.5903  1.2444  0.9826
 4727SOL    HW214760   4.675   0.643   9.750 -1.7980  0.0428 -0.7009
 4728SOL     OW14761   7.209   9.108   9.744 -0.6562 -0.2363  0.1074
 4728SOL    HW114762   7.261   9.139   9.818 -1.0489  0.8037 -0.0192
 4728SOL    HW214763   7.264   9.044   9.700  0.1683  0.2056  0.4686
 4729SOL     OW14764   9.160   1.244   0.011 -0.2452 -0.6377 -0.0530
 4729SOL    HW114765   9.097   1.202   0.069 -0.5235 -2.6313 -1.6755
 4729SOL    HW214766   9.234   1.184   0.007  1.3343  1.1364  0.9301
 4730SOL     OW14767   3.794   5.878   9.152 -0.7852  0.0797  0.8565
 4730SOL    HW114768   3.736   5.950   9.179  1.5737  2.2067  0.6284
 4730SOL    HW214769   3.749   5.837   9.078 -0.7327  3.6457 -1.3880
 4731SOL     OW14770   3.425   9.621   7.560 -0.1411  0.1680  0.0520
 4731SOL    HW114771   3.355   9.575   7.515  0.5757 -0.7241 -0.1965
 4731SOL    HW214772   3.431   9.578   7.645  0.5554 -0.2542 -0.1937
 4732SOL     OW14773   6.347   3.294   2.945  0.4391 -0.0317 -0.1534
 4732SOL    HW114774   6.280   3.354   2.979  0.2616  1.1005 -2.2905
 4732SOL    HW214775   6.316   3.207   2.970 -0.9136  0.5875  0.4370
 4733SOL     OW14776   9.928   1.907   0.092 -0.3796  0.2887  1.0628
 4733SOL    HW114777   9.846   1.940   0.054 -0.0525 -0.2479 -0.1645
 4733SOL    HW214778   9.981   1.986   0.106  0.0379  0.4329 -0.9951
 4734SOL     OW14779   8.375   6.944   3.849  0.6345  0.0852 -0.2489
 4734SOL    HW114780   8.464   6.954   3.884  0.3755  2.2277 -0.1022
 4734SOL    HW214781   8.333   7.028   3.864 -1.4647 -0.8915 -0.2904
 4735SOL     OW14782   5.836   1.530   4.226  0.1377 -0.2666  0.4311
 4735SOL    HW114783   5.753   1.578   4.227  0.4736  0.3217  0.7529
 4735SOL    HW214784   5.877   1.553   4.143 -0.1676 -0.8309  0.1149
 4736SOL     OW14785   1.817   5.785   2.984 -0.0107  0.3821  0.5317
 4736SOL    HW114786   1.722   5.789   2.994  0.0826  0.0670  1.7967
 4736SOL    HW214787   1.842   5.870   2.949 -0.6452  0.9414  1.4053
 4737SOL     OW14788   7.117   2.681   8.165 -0.0996 -0.3428  0.2470
 4737SOL    HW114789   7.111   2.775   8.185 -0.6395 -0.3827  0.2660
 4737SOL    HW214790   7.085   2.674   8.075  0.9024 -0.3736 -0.1196
 4738SOL     OW14791   4.896   8.122   0.924  0.2130  0.0059 -0.1349
 4738SOL    HW114792   4.827   8.123   0.991  0.5436 -0.2369  0.2191
 4738SOL    HW214793   4.852   8.094   0.844  0.0862 -1.1207  0.3110
 4739SOL     OW14794   7.086   9.445   3.969 -0.7663  0.4919 -0.9319
 4739SOL    HW114795   7.045   9.363   3.996 -0.6851  0.3370 -1.2689
 4739SOL    HW214796   7.028   9.480   3.902 -0.5672  0.4756 -1.1174
 4740SOL     OW14797   4.971   4.905   1.181 -0.4300  0.2111  0.2264
 4740SOL    HW114798   5.005   4.865   1.261  2.9730 -2.2978 -2.1907
 4740SOL    HW214799   4.925   4.835   1.136  0.4179  0.6469 -1.4024
 4741SOL     OW14800   9.502   2.113   4.897  0.1702 -0.4207 -0.3763
 4741SOL    HW114801   9.418   2.080   4.865 -1.3984  1.7681  1.2562
 4741SOL    HW214802   9.506   2.085   4.988  0.7007  0.4369 -0.1283
 4742SOL     OW14803   3.125   5.589   0.502  0.1036 -0.2156 -0.0671
 4742SOL    HW114804   3.107   5.664   0.445 -1.8719  0.0118  0.7744
 4742SOL    HW214805   3.133   5.626   0.589  1.8521 -0.7114  0.0157
 4743SOL     OW14806   2.161   3.918   2.668  0.3149 -0.1830 -0.5502
 4743SOL    HW114807   2.217   3.992   2.644  0.2926  0.2938  0.8016
 4743SOL    HW214808   2.082   3.959   2.704  0.3286 -0.8551  0.2621
 4744SOL     OW14809   6.742   2.007   0.094 -0.2944 -0.0840  0.0265
 4744SOL    HW114810   6.809   1.990   0.027  0.7309  0.2449  0.9404
 4744SOL    HW214811   6.668   2.042   0.045  0.3821  0.0140 -0.9559
 4745SOL     OW14812   6.765   6.828   0.050 -0.0500  0.4678  0.5855
 4745SOL    HW114813   6.795   6.820   0.140  1.0071  0.0701  0.2147
 4745SOL    HW214814   6.845   6.825  -0.002 -0.7668 -1.1849 -0.4810
 4746SOL     OW14815   4.573   4.668   7.266  0.3261  0.0502  0.7627
 4746SOL    HW114816   4.588   4.645   7.174 -0.7538  0.1503  0.5435
 4746SOL    HW214817   4.478   4.667   7.275  0.4346 -0.7219  2.0849
 4747SOL     OW14818   3.206   8.824   6.930 -0.0851  0.3700  0.1661
 4747SOL    HW114819   3.239   8.877   6.857  0.4270 -0.9270 -0.5813
 4747SOL    HW214820   3.112   8.816   6.912 -0.1197  0.7837  0.1384
 4748SOL     OW14821   7.605   8.650   2.772 -0.1288 -0.5357 -0.2103
 4748SOL    HW114822   7.609   8.594   2.849  0.1500 -0.6030 -0.2729
 4748SOL    HW214823   7.550   8.724   2.798 -2.0114 -1.6930 -0.6712
 4749SOL     OW14824   2.283   1.126   1.825  0.4624  0.3931 -0.2644
 4749SOL    HW114825   2.335   1.047   1.812 -0.1177 -0.1481  0.6669
 4749SOL    HW214826   2.275   1.163   1.737  0.3641 -0.8164 -0.7902
 4750SOL     OW14827   4.847   9.446   2.104  0.3501 -0.1999 -0.2865
 4750SOL    HW114828   4.816   9.356   2.094 -1.1008  0.2359  0.0152
 4750SOL    HW214829   4.942   9.439   2.098  0.2257 -1.6309 -1.1369
 4751SOL     OW14830   9.055   3.919   5.699 -0.5406  0.2593  0.2673
 4751SOL    HW114831   9.139   3.946   5.736  0.4623 -2.0462 -0.1500
 4751SOL    HW214832   9.070   3.915   5.604 -1.2144  0.0832  0.1597
 4752SOL     OW14833  -0.022   7.141   5.546  0.4315 -0.6093 -0.0256
 4752SOL    HW114834   0.041   7.213   5.546 -0.9966  0.6885 -0.7390
 4752SOL    HW214835   0.030   7.064   5.523  2.0905  0.0717  1.2186
 4753SOL     OW14836   6.734   0.819   6.622  0.5374 -0.3315  0.4067
 4753SOL    HW114837   6.708   0.769   6.544  0.0572  0.0050  0.3471
 4753SOL    HW214838   6.817   0.860   6.597  0.8696 -0.9899  0.4120
 4754SOL     OW14839   3.151   8.859   4.961 -0.1686 -0.2035  0.1886
 4754SOL    HW114840   3.229   8.912   4.946 -0.4120  0.8218  2.1626
 4754SOL    HW214841   3.086   8.895   4.900  0.3934  0.1116 -0.2348
 4755SOL     OW14842   8.397   6.956   6.481 -0.0965 -0.1803  1.1189
 4755SOL    HW114843   8.480   7.003   6.492  0.2794 -0.4646 -0.2352
 4755SOL    HW214844   8.414   6.894   6.410 -2.2545  1.7801 -1.3278
 4756SOL     OW14845   7.834   0.906   0.010 -0.0013 -0.2908  0.1248
 4756SOL    HW114846   7.776   0.943   0.076 -0.6935 -0.3438 -0.4434
 4756SOL    HW214847   7.801   0.817  -0.005 -1.4296  0.5157 -2.0651
 4757SOL     OW14848   6.795   4.479   6.500  0.4245 -0.3558 -0.0633
 4757SOL    HW114849   6.858   4.473   6.429  0.1807 -1.3492 -0.2119
 4757SOL    HW214850   6.757   4.567   6.492  1.4182  0.0681 -0.2709
 4758SOL     OW14851   7.450   9.166   9.159 -0.2295 -0.1245  0.1466
 4758SOL    HW114852   7.403   9.232   9.107  2.0821 -0.1300 -2.1344
 4758SOL    HW214853   7.397   9.087   9.152 -1.3156  0.5861  0.0889
 4759SOL     OW14854   2.344   7.704   3.003  0.5173  0.1861 -0.2683
 4759SOL    HW114855   2.422   7.699   3.058  0.4458 -0.1184 -0.1909
 4759SOL    HW214856   2.376   7.690   2.914  0.4982 -0.3537 -0.1921
 4760SOL     OW14857   8.772   2.385   9.548 -0.2199  0.2855  0.4087
 4760SOL    HW114858   8.858   2.412   9.580 -0.9650  3.9925 -0.2317
 4760SOL    HW214859   8.786   2.366   9.455  0.2391 -1.2549  0.7679
 4761SOL     OW14860   4.801   5.962   3.499 -0.1636  0.4271 -0.2759
 4761SOL    HW114861   4.750   5.989   3.423 -0.9815 -0.3673 -0.0443
 4761SOL    HW214862   4.795   5.866   3.498  0.2422  0.3885  0.4936
 4762SOL     OW14863   6.131   3.334   1.559 -0.1296 -0.1223  0.1833
 4762SOL    HW114864   6.063   3.302   1.500 -0.1104  1.1110 -0.5317
 4762SOL    HW214865   6.157   3.256   1.610  1.2015 -1.7149 -2.6812
 4763SOL     OW14866   0.141   5.449   6.656 -0.0403  0.4662  0.1635
 4763SOL    HW114867   0.155   5.369   6.706  0.0093  0.0908 -0.4382
 4763SOL    HW214868   0.212   5.449   6.591  0.6165  1.5595  0.8571
 4764SOL     OW14869   3.945   8.736   9.388  0.5151  0.1211  0.5095
 4764SOL    HW114870   3.961   8.761   9.297 -0.2372 -1.6111 -0.1505
 4764SOL    HW214871   3.851   8.717   9.392  1.1908 -4.4627  0.2902
 4765SOL     OW14872   8.536   7.190   7.256 -0.2558 -0.5017 -0.0820
 4765SOL    HW114873   8.597   7.211   7.186  1.4061  2.1741  1.9819
 4765SOL    HW214874   8.490   7.112   7.225  2.1542 -0.9433 -2.9834
 4766SOL     OW14875   0.121   3.863   5.505  0.2320  0.0704  0.4947
 4766SOL    HW114876   0.114   3.932   5.572 -0.1834  0.2501  0.2681
 4766SOL    HW214877   0.197   3.887   5.453 -0.1631  0.5974  0.1499
 4767SOL     OW14878   5.941   1.053   6.493  0.6497 -0.1406  0.2699
 4767SOL    HW114879   5.878   1.044   6.421  1.7684  0.8940 -0.8994
 4767SOL    HW214880   5.902   1.005   6.566 -1.5334  0.5629 -0.3725
 4768SOL     OW14881   8.598   3.356   7.205 -0.5697 -0.4384 -0.5229
 4768SOL    HW114882   8.663   3.349   7.136  1.2956  0.1204  1.1064
 4768SOL    HW214883   8.521   3.392   7.161 -0.1551 -1.9798 -2.6879
 4769SOL     OW14884   5.091   1.560   6.569  0.1976 -0.2326 -0.3511
 4769SOL    HW114885   5.057   1.477   6.533  0.5496 -0.2114 -0.7412
 4769SOL    HW214886   5.088   1.620   6.495  1.7482 -0.4225 -0.5911
 4770SOL     OW14887   8.335   7.519   8.560 -0.9455 -0.2456  0.2704
 4770SOL    HW114888   8.244   7.549   8.554 -0.3786  1.3608 -1.1209
 4770SOL    HW214889   8.370   7.529   8.471  0.2535 -2.0780  0.4761
 4771SOL     OW14890   0.641   9.172   3.380  0.4514  0.2838  0.1205
 4771SOL    HW114891   0.694   9.193   3.303  0.5225  0.1178  0.1255
 4771SOL    HW214892   0.551   9.169   3.347  0.4976  0.0548  0.0118
 4772SOL     OW14893   8.193   5.993   3.696 -0.6104  0.2692 -0.0010
 4772SOL    HW114894   8.141   6.000   3.777  0.9213  0.3165  1.0184
 4772SOL    HW214895   8.152   5.921   3.648 -1.0632 -0.3091  1.1971
 4773SOL     OW14896   9.689   9.257   1.150 -0.7583  0.2130  0.3783
 4773SOL    HW114897   9.687   9.254   1.055  1.0979  1.2638  0.2485
 4773SOL    HW214898   9.635   9.332   1.174 -1.2863 -0.0985  0.1540
 4774SOL     OW14899   6.742   8.920   4.173  0.0597  0.6134  0.2113
 4774SOL    HW114900   6.837   8.921   4.185 -0.1266  0.6851  1.9279
 4774SOL    HW214901   6.707   8.933   4.261 -1.5545 -0.3108 -0.2572
 4775SOL     OW14902   9.601   9.347   3.971 -0.2814  0.0497 -0.3500
 4775SOL    HW114903   9.671   9.344   4.035  0.2654  0.7178 -0.9076
 4775SOL    HW214904   9.645   9.353   3.886 -0.9980 -0.2289 -0.7581
 4776SOL     OW14905   5.039   1.434   4.115  0.2740  0.1403 -0.1821
 4776SOL    HW114906   4.951   1.408   4.088  0.2408  0.0869 -0.0208
 4776SOL    HW214907   5.078   1.471   4.036  0.3648 -0.5071 -0.4521
 4777SOL     OW14908   7.518   6.167   8.917  0.4017 -0.1653 -0.0444
 4777SOL    HW114909   7.477   6.254   8.917  1.3144  0.2785  0.1331
 4777SOL    HW214910   7.445   6.106   8.914 -0.2930  0.5999  0.7121
 4778SOL     OW14911   0.318   0.896   3.958 -0.0651  0.1076  0.1057
 4778SOL    HW114912   0.399   0.946   3.951 -0.7839  1.5910  1.5226
 4778SOL    HW214913   0.329   0.823   3.898  1.9769  0.7197 -0.3406
 4779SOL     OW14914   7.024   9.020   7.390  0.4177 -0.2330 -0.1908
 4779SOL    HW114915   6.968   9.077   7.339  0.5484  0.9380  0.9270
 4779SOL    HW214916   7.050   8.951   7.329  1.8779  1.9462 -2.2211
 4780SOL     OW14917   2.523   0.866   2.888  0.7587 -0.0719  0.1881
 4780SOL    HW114918   2.483   0.801   2.830 -3.3818  1.3492  1.1554
 4780SOL    HW214919   2.490   0.844   2.975  2.3520  1.1320  1.1464
 4781SOL     OW14920   9.698   3.494   5.491 -0.1238 -0.1283  0.5973
 4781SOL    HW114921   9.716   3.578   5.448  0.7054 -0.3806  0.4411
 4781SOL    HW214922   9.683   3.433   5.419 -0.0608 -0.2647  0.7000
 4782SOL     OW14923   6.619   0.328   3.781  0.0701 -0.1763  0.2493
 4782SOL    HW114924   6.603   0.312   3.688 -0.6349 -0.1382  0.3567
 4782SOL    HW214925   6.594   0.420   3.793  0.5142 -0.0732  0.4050
 4783SOL     OW14926   3.279   1.255   5.159  0.8317 -0.2313 -0.3702
 4783SOL    HW114927   3.318   1.336   5.125  0.2785 -0.3370 -1.2912
 4783SOL    HW214928   3.273   1.198   5.083  0.0638 -0.6872  0.0227
 4784SOL     OW14929   6.728   4.838   4.355  0.0885  0.0803 -0.3307
 4784SOL    HW114930   6.790   4.901   4.317 -0.8035  0.7884 -0.6427
 4784SOL    HW214931   6.736   4.851   4.450  0.8810 -0.2919 -0.3399
 4785SOL     OW14932   7.593   4.752   8.913 -0.2806  0.3142 -0.3745
 4785SOL    HW114933   7.556   4.761   8.825 -0.4615  2.1788 -0.1347
 4785SOL    HW214934   7.518   4.760   8.972 -0.1145 -0.5999 -0.0114
 4786SOL     OW14935   4.496   3.773   0.003 -0.1284 -0.0879  0.4883
 4786SOL    HW114936   4.507   3.683   0.033 -0.1306  0.3385  1.8201
 4786SOL    HW214937   4.448   3.817   0.073  0.1413  1.0382  0.0024
 4787SOL     OW14938   0.808   7.218   2.003 -1.0704  0.2678  0.5810
 4787SOL    HW114939   0.841   7.280   1.938 -0.9356 -0.3906  0.0053
 4787SOL    HW214940   0.739   7.169   1.957  0.5843 -1.8107  0.1290
 4788SOL     OW14941   3.350   9.079   4.945  0.2927 -0.1353 -0.0650
 4788SOL    HW114942   3.388   9.065   5.032  0.5560 -0.3251 -0.2109
 4788SOL    HW214943   3.293   9.155   4.956 -0.4512 -0.7623  0.5125
 4789SOL     OW14944   6.240   1.839   7.817 -0.0212 -0.1482  0.5328
 4789SOL    HW114945   6.247   1.760   7.871  0.4828  0.5237  1.4864
 4789SOL    HW214946   6.222   1.909   7.881 -0.5700  0.4920 -0.3043
 4790SOL     OW14947   5.607   7.669   1.681  0.3265 -0.4980  0.2219
 4790SOL    HW114948   5.589   7.761   1.700 -0.1045 -0.6618  0.6372
 4790SOL    HW214949   5.651   7.670   1.596 -1.1770 -0.0112 -0.6038
 4791SOL     OW14950   2.102   7.757   8.410 -0.5330  0.1108  0.3841
 4791SOL    HW114951   2.117   7.708   8.491 -1.1291  0.5764  0.7944
 4791SOL    HW214952   2.131   7.846   8.430 -2.1822  0.6306  0.6596
 4792SOL     OW14953   0.254   2.420   8.467  0.6234  0.2975 -0.1368
 4792SOL    HW114954   0.321   2.352   8.472 -0.6514 -1.0119 -0.4422
 4792SOL    HW214955   0.304   2.501   8.457  2.1595 -0.6699 -0.6584
 4793SOL     OW14956   3.668   3.057   1.643  0.3623 -0.2243  0.4406
 4793SOL    HW114957   3.743   3.110   1.669 -0.5006  0.7320  1.0658
 4793SOL    HW214958   3.644   3.010   1.723 -1.2184  1.3851  0.9819
 4794SOL     OW14959   1.860   0.507   8.751  0.1783 -0.4968  0.5230
 4794SOL    HW114960   1.939   0.553   8.782 -1.1081  0.3189  2.8688
 4794SOL    HW214961   1.787   0.558   8.787 -1.5548 -0.2695 -2.9467
 4795SOL     OW14962   9.159   8.489   9.847 -0.3163  0.0025 -0.5344
 4795SOL    HW114963   9.211   8.437   9.909 -0.0556 -0.7599 -1.3735
 4795SOL    HW214964   9.069   8.484   9.881 -0.0922  0.0672  0.0843
 4796SOL     OW14965   8.785   6.546   2.606 -0.2532 -0.3313 -0.2541
 4796SOL    HW114966   8.755   6.539   2.697 -0.7140 -1.6482 -0.4875
 4796SOL    HW214967   8.729   6.613   2.568 -1.3479 -1.0985 -0.0474
 4797SOL     OW14968   9.440   9.730   9.385  0.2620  0.1357  0.3589
 4797SOL    HW114969   9.495   9.660   9.421 -0.2128  0.8131  2.5745
 4797SOL    HW214970   9.501   9.785   9.336  1.2840 -0.0502  1.3711
 4798SOL     OW14971   8.377   8.923   1.442 -0.0057 -0.3494 -0.3561
 4798SOL    HW114972   8.341   9.012   1.452 -1.8801 -1.0384 -0.4695
 4798SOL    HW214973   8.364   8.883   1.528  0.8003 -0.5367 -0.3160
 4799SOL     OW14974   1.845   3.140   7.078  0.1776  0.1630 -0.0494
 4799SOL    HW114975   1.816   3.052   7.102 -0.2012  0.3947  0.3586
 4799SOL    HW214976   1.877   3.177   7.160  2.4462 -0.3728 -0.6106
 4800SOL     OW14977   7.479   1.526   5.064 -0.3283 -0.0017  0.6322
 4800SOL    HW114978   7.466   1.481   4.981 -1.6349  0.1462  0.7405
 4800SOL    HW214979   7.427   1.606   5.057 -0.8322 -0.2046  1.7527
 4801SOL     OW14980   0.518   0.528   9.084 -0.0357  0.7226 -0.2041
 4801SOL    HW114981   0.511   0.460   9.016  3.2137 -0.2672  0.2755
 4801SOL    HW214982   0.438   0.579   9.075 -1.0262 -1.0763 -2.8999
 4802SOL     OW14983   9.167   2.088   1.776  0.1061  0.5728 -0.0676
 4802SOL    HW114984   9.196   2.167   1.822  1.7717  0.6366 -1.1426
 4802SOL    HW214985   9.120   2.121   1.700 -0.2955  0.5118  0.1559
 4803SOL     OW14986   5.515   3.224   5.591  0.4914  0.3473 -0.4293
 4803SOL    HW114987   5.471   3.298   5.634  1.6495  0.6277  0.3117
 4803SOL    HW214988   5.443   3.170   5.558 -0.4140  0.8430  0.6419
 4804SOL     OW14989   2.710   2.750   4.546  0.0398 -0.4099  0.3938
 4804SOL    HW114990   2.681   2.815   4.611  1.0649  1.4199 -0.8779
 4804SOL    HW214991   2.787   2.709   4.585 -1.2120 -1.6609  1.6464
 4805SOL     OW14992   9.937   9.540   3.964 -0.2860  0.3390  0.0357
 4805SOL    HW114993   9.975   9.628   3.960 -1.5211  0.8479 -1.1206
 4805SOL    HW214994   9.945   9.506   3.875 -1.6715  0.1030 -0.0212
 4806SOL     OW14995   0.923   5.678   3.248  0.0047  0.2099  0.7224
 4806SOL    HW114996   0.845   5.715   3.289 -0.4807 -0.0407  0.0613
 4806SOL    HW214997   0.982   5.659   3.320 -1.0434 -0.7325  1.3662
 4807SOL     OW14998   5.045   5.551   3.205 -0.7196  0.1540 -0.1305
 4807SOL    HW114999   5.018   5.598   3.126 -1.2542 -2.3336 -1.5348
 4807SOL    HW215000   5.139   5.535   3.192 -1.2665 -2.3853 -1.5619
 4808SOL     OW15001   5.753   8.743   9.876 -0.0701 -0.4399 -0.4227
 4808SOL    HW115002   5.794   8.783   9.798  0.4987 -1.4022 -0.6271
 4808SOL    HW215003   5.689   8.809   9.905  1.9131  1.3461  0.1935
 4809SOL     OW15004   0.820   6.046   3.319 -0.1794  0.2852  0.4279
 4809SOL    HW115005   0.765   6.016   3.392  1.5784 -0.0108  1.7054
 4809SOL    HW215006   0.809   6.141   3.319  0.0158  0.3219  1.2866
 4810SOL     OW15007   7.660   1.720   0.090  0.1681 -0.4765  0.0746
 4810SOL    HW115008   7.717   1.769   0.031  0.8684 -0.9520  0.3552
 4810SOL    HW215009   7.687   1.629   0.080 -0.0615 -0.6207  0.7430
 4811SOL     OW15010   8.154   8.783   4.382  0.0800 -0.2805 -0.2707
 4811SOL    HW115011   8.116   8.833   4.310 -1.4945 -0.3391  0.4810
 4811SOL    HW215012   8.101   8.703   4.387 -0.4567  0.1445  1.5254
 4812SOL     OW15013   0.811   9.522   4.594  0.1518  0.1475  0.1439
 4812SOL    HW115014   0.754   9.508   4.670  0.0142  0.1483  0.0418
 4812SOL    HW215015   0.891   9.475   4.615 -0.2841 -0.7673 -0.1679
 4813SOL     OW15016   9.908   2.628   8.772 -0.7434 -0.1095  0.0960
 4813SOL    HW115017   9.954   2.685   8.833 -1.0412  1.8674 -1.4173
 4813SOL    HW215018   9.971   2.559   8.752  0.5931  1.0443  0.1257
 4814SOL     OW15019   6.794   0.759   5.434 -0.2291  0.2239  0.4860
 4814SOL    HW115020   6.839   0.773   5.351  0.8610 -2.5503  0.4724
 4814SOL    HW215021   6.704   0.740   5.410 -0.1297  0.3519 -0.0010
 4815SOL     OW15022   2.349   4.655   0.877 -0.1633  0.0890 -0.3621
 4815SOL    HW115023   2.330   4.582   0.819  1.8546 -1.0872  0.3633
 4815SOL    HW215024   2.355   4.616   0.964  3.7783  0.4305 -0.2814
 4816SOL     OW15025   4.677   8.625   5.129  0.6989  0.0407  0.0177
 4816SOL    HW115026   4.600   8.626   5.073  0.7578  1.1560 -0.0665
 4816SOL    HW215027   4.661   8.553   5.190  0.1905 -0.5645 -0.8053
 4817SOL     OW15028   2.664   4.049   3.854 -0.3937  0.2872  0.1458
 4817SOL    HW115029   2.673   4.039   3.760 -1.3631  0.8367 -0.0211
 4817SOL    HW215030   2.650   4.143   3.867  2.3697  0.6835  1.0834
 4818SOL     OW15031   7.657   7.179   6.268  0.3549  0.3631 -0.3006
 4818SOL    HW115032   7.606   7.144   6.341 -0.0129 -1.4306 -1.3563
 4818SOL    HW215033   7.747   7.156   6.289  0.2115 -0.4587 -0.5707
 4819SOL     OW15034   3.614   7.357   6.839  0.0088 -0.6435  0.3443
 4819SOL    HW115035   3.659   7.385   6.919 -2.8468 -0.3918  1.9843
 4819SOL    HW215036   3.559   7.431   6.814 -0.7409 -1.4828 -0.6182
 4820SOL     OW15037   8.617   6.641   7.801  0.2173  0.1348 -0.2786
 4820SOL    HW115038   8.659   6.650   7.715  1.4914 -1.0214  0.1821
 4820SOL    HW215039   8.616   6.730   7.837 -0.0755  0.5843 -1.3557
 4821SOL     OW15040   6.345   2.150   8.718 -0.7725 -0.6573  0.7140
 4821SOL    HW115041   6.396   2.223   8.753 -2.4154  1.2347 -0.5763
 4821SOL    HW215042   6.400   2.114   8.647 -1.0401  1.1612 -0.4770
 4822SOL     OW15043   7.495   7.211   0.282 -0.6683 -0.0092 -0.0918
 4822SOL    HW115044   7.483   7.157   0.360 -0.3396  0.1214  0.0510
 4822SOL    HW215045   7.589   7.208   0.265 -0.5732  0.9055  0.1999
 4823SOL     OW15046   5.478   0.444   1.232  0.3101 -0.8903  0.3935
 4823SOL    HW115047   5.538   0.504   1.278  2.7932 -1.7642 -1.4621
 4823SOL    HW215048   5.393   0.488   1.237  1.0400  0.4965  3.0717
 4824SOL     OW15049   4.535   4.580   3.043 -0.0104  0.4016 -0.1530
 4824SOL    HW115050   4.457   4.524   3.046  0.4001 -0.1633  0.2227
 4824SOL    HW215051   4.504   4.661   3.003 -1.2989  1.0197  1.9171
 4825SOL     OW15052   8.365   4.336   8.527  0.2567  0.0291  0.3305
 4825SOL    HW115053   8.377   4.251   8.485 -0.0793 -0.2526  0.7972
 4825SOL    HW215054   8.314   4.387   8.464  1.7225  0.3994 -0.5971
 4826SOL     OW15055   6.733   9.303   5.624  0.5487 -0.0313  0.3508
 4826SOL    HW115056   6.718   9.299   5.529  1.8056 -1.8991  0.1798
 4826SOL    HW215057   6.685   9.228   5.659  1.3355 -0.2314  1.0107
 4827SOL     OW15058   7.800   4.461   0.811 -0.3638  0.3808 -0.1991
 4827SOL    HW115059   7.781   4.499   0.725  0.9556 -0.0454 -0.7123
 4827SOL    HW215060   7.728   4.399   0.826 -0.0889 -0.2985 -1.4890
 4828SOL     OW15061   5.160   0.743   6.936  0.1383  0.4167 -0.1249
 4828SOL    HW115062   5.198   0.830   6.929  0.9960  0.1297  0.7002
 4828SOL    HW215063   5.220   0.687   6.887 -0.9007  0.4043 -1.4400
 4829SOL     OW15064   5.868   3.096   3.140 -0.0242 -0.0967  0.3895
 4829SOL    HW115065   5.811   3.036   3.187 -1.4667  0.6833 -0.2999
 4829SOL    HW215066   5.835   3.183   3.162 -0.9091  0.2977 -2.1674
 4830SOL     OW15067   2.744   1.438   0.432 -0.0480  0.0793 -0.2989
 4830SOL    HW115068   2.721   1.369   0.370 -0.4656  0.5314 -0.6499
 4830SOL    HW215069   2.772   1.512   0.377 -0.5399  0.5269  0.0440
 4831SOL     OW15070   5.241   9.724   8.828  0.2778 -0.2934  0.1199
 4831SOL    HW115071   5.243   9.764   8.916 -1.3715 -1.1068  0.5623
 4831SOL    HW215072   5.149   9.708   8.811  0.6870 -1.4719 -1.1796
 4832SOL     OW15073   6.982   7.837   6.921  0.1461  0.3451  0.0643
 4832SOL    HW115074   6.936   7.889   6.986  0.4879  1.7773 -0.8077
 4832SOL    HW215075   6.925   7.839   6.844  0.9209  0.8226 -0.5109
 4833SOL     OW15076   9.479   2.864   8.811 -0.3160  0.2825  0.3072
 4833SOL    HW115077   9.429   2.935   8.772  0.9306  1.7973  1.3088
 4833SOL    HW215078   9.447   2.858   8.901  0.8137  0.8454  0.7702
 4834SOL     OW15079   8.951   2.334   5.317 -0.4147  0.4435  0.2721
 4834SOL    HW115080   8.990   2.247   5.324 -0.2945  0.5180  0.5261
 4834SOL    HW215081   9.020   2.395   5.343 -0.8044  0.5523  1.1163
 4835SOL     OW15082   8.871   2.860   6.613  0.0022 -0.1718  0.0076
 4835SOL    HW115083   8.964   2.856   6.593  0.0332  0.8314 -0.0959
 4835SOL    HW215084   8.831   2.901   6.536 -0.6997 -1.5696 -0.4268
 4836SOL     OW15085   1.827   3.020   8.123  0.5871  0.0278 -0.7248
 4836SOL    HW115086   1.786   3.076   8.188  0.0889  0.6846 -1.5748
 4836SOL    HW215087   1.791   3.050   8.039 -0.6722 -2.3651 -1.1372
 4837SOL     OW15088   1.253   4.903   4.544  0.0254  0.4053  0.4452
 4837SOL    HW115089   1.174   4.946   4.511 -0.0966 -0.5265 -0.5360
 4837SOL    HW215090   1.253   4.818   4.501  2.8188  1.2631 -1.4994
 4838SOL     OW15091   0.332   0.683   4.542 -0.3407 -0.1888  0.3764
 4838SOL    HW115092   0.412   0.676   4.489  1.3665 -0.3513  2.8276
 4838SOL    HW215093   0.265   0.641   4.488  1.6140 -1.7490 -1.0255
 4839SOL     OW15094   5.047   4.166   0.652 -0.7870 -0.5622 -0.8579
 4839SOL    HW115095   4.953   4.148   0.654 -1.0128  0.5833 -0.7347
 4839SOL    HW215096   5.053   4.261   0.651  0.4327 -0.5270  2.0169
 4840SOL     OW15097   2.390   2.989   3.824  0.0366  0.0641  0.3843
 4840SOL    HW115098   2.359   2.983   3.734 -0.2788  2.1346  0.3218
 4840SOL    HW215099   2.484   2.971   3.818  0.2169  1.2040 -0.5337
 4841SOL     OW15100   4.815   5.723   5.651  0.2178  0.3660 -0.3831
 4841SOL    HW115101   4.818   5.809   5.694  0.2516  0.8538 -1.3339
 4841SOL    HW215102   4.760   5.669   5.708 -0.1145  1.1291  0.0315
 4842SOL     OW15103   8.335   7.994   1.746  0.4433  0.3949 -0.6413
 4842SOL    HW115104   8.300   7.907   1.725  1.5090  0.0370 -1.0262
 4842SOL    HW215105   8.376   8.023   1.664  0.2297  1.1892 -0.4645
 4843SOL     OW15106   0.123   7.644   9.572 -0.4764  0.1866 -0.0482
 4843SOL    HW115107   0.198   7.611   9.522  0.3764  2.6029 -0.4748
 4843SOL    HW215108   0.155   7.649   9.662 -0.0562  1.3654 -0.2560
 4844SOL     OW15109   8.143   4.379   5.811 -0.4922  0.5957  0.7129
 4844SOL    HW115110   8.161   4.448   5.874 -0.4908  0.3193  1.0165
 4844SOL    HW215111   8.058   4.344   5.837  0.6423 -1.2599  2.1693
 4845SOL     OW15112   2.458   9.705   1.044 -0.1203  0.0195  0.4211
 4845SOL    HW115113   2.365   9.703   1.067 -0.2759 -0.4980 -0.2321
 4845SOL    HW215114   2.498   9.759   1.112 -0.9547  0.5441  0.5114
 4846SOL     OW15115   8.283   2.468   1.619  0.1778 -0.1029 -0.1171
 4846SOL    HW115116   8.312   2.456   1.529  1.0380 -3.2000  0.4465
 4846SOL    HW215117   8.199   2.422   1.624 -0.1837  0.6035  0.5104
 4847SOL     OW15118   3.808   2.448   1.377  0.0058  0.2306 -0.0964
 4847SOL    HW115119   3.898   2.419   1.365  0.0371  0.7631 -1.2721
 4847SOL    HW215120   3.793   2.511   1.306 -0.6879  1.5662  1.1626
 4848SOL     OW15121   4.898   1.669   0.161 -0.1835 -0.3014  0.1058
 4848SOL    HW115122   4.859   1.743   0.114  0.4867 -1.3172 -2.1960
 4848SOL    HW215123   4.841   1.595   0.140  0.0106 -0.7513  1.1148
 4849SOL     OW15124   8.608   8.063   9.881  0.0599 -0.1675  0.4554
 4849SOL    HW115125   8.580   7.978   9.916 -4.6251  0.3217 -1.3732
 4849SOL    HW215126   8.680   8.042   9.822  0.5688 -2.4986  1.7735
 4850SOL     OW15127   4.661   9.817   5.004 -0.1941  0.7763 -0.1525
 4850SOL    HW115128   4.756   9.825   5.010 -0.0610  0.0507 -1.0928
 4850SOL    HW215129   4.630   9.826   5.094  1.0604 -2.8624  0.8083
 4851SOL     OW15130   8.454   2.135   5.725 -0.0590 -0.3323  0.1921
 4851SOL    HW115131   8.463   2.223   5.763 -2.7859 -0.4110  1.2461
 4851SOL    HW215132   8.536   2.091   5.749 -0.2045  0.7218  3.0612
 4852SOL     OW15133   4.644   8.930   8.458 -0.7385  0.2451  0.0196
 4852SOL    HW115134   4.619   8.945   8.549 -0.6498 -0.2594  0.1318
 4852SOL    HW215135   4.647   8.834   8.449 -0.2660  0.2929 -0.3797
 4853SOL     OW15136   3.991   9.718   8.848  0.1374 -0.1298  0.0503
 4853SOL    HW115137   3.901   9.710   8.882  0.5528 -0.2407  1.1499
 4853SOL    HW215138   4.047   9.697   8.922  1.1882  3.5011  0.4518
 4854SOL     OW15139   7.699   4.106   3.909  0.2282  0.0369 -0.8051
 4854SOL    HW115140   7.616   4.152   3.896 -0.3037 -1.2179 -2.0944
 4854SOL    HW215141   7.748   4.123   3.829  1.2956  0.8891  0.0104
 4855SOL     OW15142   9.254   5.722   0.518 -0.4487 -0.1290  0.3340
 4855SOL    HW115143   9.335   5.688   0.557 -0.8862 -0.0155  1.3889
 4855SOL    HW215144   9.192   5.650   0.524 -0.4920 -0.1436 -0.2710
 4856SOL     OW15145   1.803   7.309   3.928  0.3520 -0.4240 -0.0268
 4856SOL    HW115146   1.826   7.395   3.893  1.7393 -0.3358  1.0230
 4856SOL    HW215147   1.852   7.248   3.874  2.3175 -0.3006  1.5162
 4857SOL     OW15148   2.423   9.739   5.630  1.2714  0.2907 -0.4428
 4857SOL    HW115149   2.502   9.793   5.636  2.4646 -1.1438 -2.2822
 4857SOL    HW215150   2.447   9.656   5.672 -0.2352  0.7805  1.5128
 4858SOL     OW15151   3.720   6.565   8.346 -0.0242 -0.0600  0.6399
 4858SOL    HW115152   3.746   6.489   8.398  0.8044 -1.4434 -1.6119
 4858SOL    HW215153   3.794   6.625   8.352  0.0214 -0.1607  1.1138
 4859SOL     OW15154   6.347   3.374   7.267  0.5474 -0.2917  0.0179
 4859SOL    HW115155   6.307   3.333   7.190 -0.9533 -1.0622  1.1435
 4859SOL    HW215156   6.308   3.462   7.269 -1.7590 -1.2365  1.4480
 4860SOL     OW15157   7.729   3.586   6.927 -0.0060 -0.1825 -0.1932
 4860SOL    HW115158   7.651   3.621   6.883  0.3965  2.3470  0.9433
 4860SOL    HW215159   7.797   3.588   6.859 -0.4700 -0.6256 -0.6793
 4861SOL     OW15160   3.803   6.203   5.307 -0.0448  0.2090 -0.2786
 4861SOL    HW115161   3.759   6.127   5.346 -1.3273  1.4326  0.7401
 4861SOL    HW215162   3.896   6.180   5.310 -0.2674 -0.6698  1.5094
 4862SOL     OW15163   8.645   9.456   1.215  0.0013  0.4905  0.3657
 4862SOL    HW115164   8.679   9.450   1.305 -1.5049 -0.3624  0.9314
 4862SOL    HW215165   8.705   9.403   1.163  0.0149 -0.3205  1.1730
 4863SOL     OW15166   5.741   3.709   9.893 -0.2470  1.1072 -0.4059
 4863SOL    HW115167   5.787   3.645   9.838  1.8795  0.8899  1.4974
 4863SOL    HW215168   5.655   3.669   9.908  0.3734 -0.4589 -0.7441
 4864SOL     OW15169   2.228   6.723   5.297 -0.3186 -0.2922 -0.4037
 4864SOL    HW115170   2.250   6.814   5.313 -1.6386  0.2903 -1.6421
 4864SOL    HW215171   2.262   6.676   5.373  1.5056  1.0346 -0.3389
 4865SOL     OW15172   2.881   7.204   9.170  0.5667 -0.1193 -0.1265
 4865SOL    HW115173   2.838   7.226   9.253  1.4496  0.5890  0.1766
 4865SOL    HW215174   2.917   7.288   9.140 -0.8353 -0.1020 -1.9093
 4866SOL     OW15175   2.217   3.272   7.552  0.3458  0.0894  0.0090
 4866SOL    HW115176   2.186   3.353   7.512  0.4309  0.0177 -0.2053
 4866SOL    HW215177   2.184   3.275   7.642  1.0027  0.7292  0.2439
 4867SOL     OW15178   8.327   3.745   7.432  0.0191  0.2140 -0.0932
 4867SOL    HW115179   8.280   3.688   7.371  1.7886 -0.6719 -0.6920
 4867SOL    HW215180   8.415   3.751   7.396 -0.1120  3.5060 -0.1302
 4868SOL     OW15181   8.721   8.817   3.166 -0.3307 -0.1520 -0.3329
 4868SOL    HW115182   8.739   8.723   3.167 -2.3619 -0.5906  0.6867
 4868SOL    HW215183   8.718   8.840   3.073  1.0811 -0.8713 -0.5844
 4869SOL     OW15184   7.882   1.788   1.367 -0.3102 -0.1017 -0.3504
 4869SOL    HW115185   7.918   1.868   1.405 -1.0289  0.6823 -1.2759
 4869SOL    HW215186   7.866   1.731   1.442 -0.1471  0.7681  0.3609
 4870SOL     OW15187   2.909   7.579   3.085 -0.2012  0.1198  0.3661
 4870SOL    HW115188   2.820   7.553   3.065  0.3729 -1.1085 -0.7391
 4870SOL    HW215189   2.949   7.501   3.125  0.5633  0.4301  0.2324
 4871SOL     OW15190   4.014   1.323   3.617  0.2319 -0.2502 -0.2732
 4871SOL    HW115191   4.033   1.415   3.599  0.2994 -0.0243  0.8568
 4871SOL    HW215192   3.928   1.324   3.658 -0.1308 -0.7825 -1.0039
 4872SOL     OW15193   5.209   5.495   9.823  0.6479 -0.4224 -0.5145
 4872SOL    HW115194   5.140   5.535   9.875  0.3759 -0.4482 -0.8504
 4872SOL    HW215195   5.184   5.403   9.816 -0.7675  0.0436 -2.9085
 4873SOL     OW15196   1.832   6.228   2.784 -0.8909  0.5952  0.2730
 4873SOL    HW115197   1.900   6.161   2.784 -0.8409  0.6441 -0.1508
 4873SOL    HW215198   1.876   6.306   2.818 -0.3361  1.0068 -1.2867
 4874SOL     OW15199   5.948   7.089   4.555 -0.2021  0.5035 -0.5757
 4874SOL    HW115200   5.876   7.152   4.545 -0.8264 -0.1027  0.0129
 4874SOL    HW215201   5.938   7.030   4.480 -1.2409 -0.4629  0.2869
 4875SOL     OW15202   0.898   3.587   7.442 -0.5366 -0.3506  0.1548
 4875SOL    HW115203   0.804   3.605   7.429 -0.7012 -1.7126 -0.7475
 4875SOL    HW215204   0.942   3.665   7.408 -1.3064 -0.2818 -0.7408
 4876SOL     OW15205   3.263   4.442   8.186 -0.1031  0.2053  0.0648
 4876SOL    HW115206   3.190   4.494   8.153  0.8148  0.0809 -2.3779
 4876SOL    HW215207   3.245   4.432   8.280 -2.5938  1.1393 -0.2285
 4877SOL     OW15208   2.111   7.359   4.481  0.0088  0.0615  0.7024
 4877SOL    HW115209   2.126   7.265   4.491  0.6595 -0.1756 -1.8093
 4877SOL    HW215210   2.185   7.401   4.525  0.2340 -0.6284  0.9840
 4878SOL     OW15211   6.113   4.341   6.978 -0.0792 -0.1618  0.0313
 4878SOL    HW115212   6.172   4.290   6.923 -0.4552  0.6534 -1.1819
 4878SOL    HW215213   6.171   4.393   7.033  0.3119 -0.7008  0.1376
 4879SOL     OW15214   3.978   0.393   8.826  0.6036 -0.3693 -0.2490
 4879SOL    HW115215   3.921   0.320   8.805 -0.5432  0.2728  0.5234
 4879SOL    HW215216   3.948   0.465   8.771 -1.2534  0.7977  2.0956
 4880SOL     OW15217   5.127   0.271   8.892 -0.0199 -0.0256  0.0403
 4880SOL    HW115218   5.080   0.229   8.820 -0.0419  0.6077 -0.3250
 4880SOL    HW215219   5.215   0.233   8.889 -0.2041 -0.4606  0.0786
 4881SOL     OW15220   0.594   6.275   7.472  0.2780  0.0668  0.1899
 4881SOL    HW115221   0.573   6.213   7.542 -0.9191  0.2520  0.0264
 4881SOL    HW215222   0.508   6.299   7.435  0.9193 -1.8133 -2.9132
 4882SOL     OW15223   8.465   3.351   8.339 -0.1339  0.0951 -0.1404
 4882SOL    HW115224   8.438   3.281   8.279  1.3415  0.1257 -0.8919
 4882SOL    HW215225   8.392   3.413   8.338  0.2423  0.6476 -2.8304
 4883SOL     OW15226   1.547   5.365   3.452  1.0324 -0.6322 -0.3642
 4883SOL    HW115227   1.521   5.303   3.520 -1.4666 -0.3645 -0.9929
 4883SOL    HW215228   1.531   5.318   3.370 -1.2030  0.8749 -0.8562
 4884SOL     OW15229   6.912   3.349   7.625 -0.5477  0.0648 -0.0278
 4884SOL    HW115230   6.967   3.356   7.546 -2.4483  1.2239 -1.3166
 4884SOL    HW215231   6.824   3.371   7.595 -1.6114 -0.9494  2.1406
 4885SOL     OW15232   9.692   9.503   6.788  0.1913  0.2403 -0.0480
 4885SOL    HW115233   9.710   9.562   6.862 -0.6601 -1.8995  2.0063
 4885SOL    HW215234   9.757   9.433   6.798 -1.0496 -0.9661 -0.2760
 4886SOL     OW15235   8.958   4.449   1.656  0.2972 -0.5817  0.5081
 4886SOL    HW115236   9.053   4.441   1.664  0.1078 -1.7907  2.1834
 4886SOL    HW215237   8.945   4.510   1.583  2.3132 -1.6102 -0.8048
 4887SOL     OW15238   2.194   6.510   7.202 -0.3024  0.4224  0.1861
 4887SOL    HW115239   2.250   6.508   7.125  1.0701  1.0123  1.1238
 4887SOL    HW215240   2.218   6.591   7.247  0.0374 -0.6184  2.0056
 4888SOL     OW15241   0.486   5.697   5.276  0.0560  0.5131 -0.1257
 4888SOL    HW115242   0.488   5.745   5.193  0.3186 -0.7947 -0.8906
 4888SOL    HW215243   0.576   5.667   5.289  0.1886  1.3244  1.0292
 4889SOL     OW15244   1.314   1.040   1.526 -0.2424  1.1331  0.4607
 4889SOL    HW115245   1.380   0.972   1.539  1.4842  2.5925 -0.1883
 4889SOL    HW215246   1.232   1.000   1.553  0.3203 -1.9236 -1.7635
 4890SOL     OW15247   4.573   6.631   0.666  0.1513  0.2523 -0.2690
 4890SOL    HW115248   4.576   6.601   0.575 -0.9915 -0.0181 -0.2318
 4890SOL    HW215249   4.504   6.578   0.707  0.7612  0.2498  0.8058
 4891SOL     OW15250   7.552   2.116   6.931 -0.2070  0.1941 -0.0327
 4891SOL    HW115251   7.526   2.206   6.949 -2.9495 -0.4907 -0.1469
 4891SOL    HW215252   7.643   2.123   6.901 -1.0313  3.1687 -2.3497
 4892SOL     OW15253   9.747   7.573   5.305 -0.3912  0.0370  0.4533
 4892SOL    HW115254   9.764   7.656   5.350  0.8410 -0.6954  1.4175
 4892SOL    HW215255   9.716   7.598   5.218  0.1804  1.5075  0.6494
 4893SOL     OW15256   5.153   7.488   2.600 -0.3268  0.1197  0.2888
 4893SOL    HW115257   5.088   7.551   2.567 -0.5244 -1.1377 -1.8915
 4893SOL    HW215258   5.165   7.426   2.528  2.1021 -0.6327  1.2502
 4894SOL     OW15259   4.154   9.558   4.653  0.1241 -0.2521 -0.0064
 4894SOL    HW115260   4.231   9.561   4.709  1.5547 -0.5796 -1.8598
 4894SOL    HW215261   4.143   9.648   4.623  0.9461 -0.5008 -1.1588
 4895SOL     OW15262   6.122   6.424   6.935 -0.2230  0.3523 -0.2338
 4895SOL    HW115263   6.150   6.397   7.022 -1.9965 -1.1427 -0.0591
 4895SOL    HW215264   6.203   6.432   6.885  0.7754  0.5916  1.3537
 4896SOL     OW15265   8.607   5.157   2.800 -0.3378 -0.0512  0.3657
 4896SOL    HW115266   8.538   5.205   2.846 -1.0396 -0.6241 -0.0718
 4896SOL    HW215267   8.583   5.065   2.810 -0.2663 -0.2053 -0.7741
 4897SOL     OW15268   2.433   1.436   3.360 -0.2288 -0.2433 -0.4005
 4897SOL    HW115269   2.497   1.508   3.356 -1.6993  1.1293 -0.3196
 4897SOL    HW215270   2.374   1.461   3.432 -0.9557 -1.3801 -0.5856
 4898SOL     OW15271   1.905   7.031   5.809 -0.0523 -0.3805 -0.3018
 4898SOL    HW115272   1.939   7.118   5.789  0.5800 -0.6510 -0.4480
 4898SOL    HW215273   1.892   7.033   5.904  1.3449 -0.5760 -0.0749
 4899SOL     OW15274   6.443   7.719   8.773 -0.0287  0.6095 -0.3171
 4899SOL    HW115275   6.381   7.785   8.806  1.2041  2.2489 -1.1183
 4899SOL    HW215276   6.483   7.760   8.696  0.6783 -1.1684 -0.9465
 4900SOL     OW15277   3.431   6.974   1.601  0.0614 -0.2367 -0.3606
 4900SOL    HW115278   3.493   6.902   1.606 -0.4650 -0.7205 -0.6762
 4900SOL    HW215279   3.363   6.943   1.541 -0.0325  0.6266 -0.7161
 4901SOL     OW15280   9.598   6.555   3.555  0.5138 -0.2945  0.2759
 4901SOL    HW115281   9.509   6.534   3.583  0.9522 -1.5354  0.8078
 4901SOL    HW215282   9.638   6.470   3.537  1.0948  0.3175 -1.5850
 4902SOL     OW15283   7.621   2.377   7.454 -0.2952 -0.0845 -0.5314
 4902SOL    HW115284   7.631   2.400   7.362  0.8717  1.0649 -0.1516
 4902SOL    HW215285   7.673   2.443   7.501 -0.3397 -1.0248  0.9045
 4903SOL     OW15286   3.810   7.008   1.894 -0.1236 -0.6087  0.1897
 4903SOL    HW115287   3.792   7.101   1.884  1.1647 -0.4498 -0.8808
 4903SOL    HW215288   3.728   6.971   1.928 -0.6851  0.8735  0.5031
 4904SOL     OW15289   3.123   5.057   7.166  0.5577 -0.2737  0.3317
 4904SOL    HW115290   3.046   5.003   7.150 -0.0001 -0.3526  2.8945
 4904SOL    HW215291   3.197   4.998   7.152  0.1507 -0.5454 -0.8424
 4905SOL     OW15292   9.195   7.334   1.597  0.2059 -0.2745  0.6976
 4905SOL    HW115293   9.214   7.283   1.519  0.5141 -1.0829  1.2878
 4905SOL    HW215294   9.100   7.328   1.607  0.0938  0.3482  0.0442
 4906SOL     OW15295   8.948   0.833   5.087 -0.2304 -0.2615  0.9100
 4906SOL    HW115296   9.018   0.806   5.147  1.7525  0.8189 -0.7762
 4906SOL    HW215297   8.943   0.764   5.022  0.7361  0.5820 -0.1016
 4907SOL     OW15298   2.577   8.492   7.668 -0.3514  0.3771 -0.0306
 4907SOL    HW115299   2.632   8.526   7.598 -0.4048 -1.4023 -0.9875
 4907SOL    HW215300   2.494   8.539   7.659 -0.1058  0.6985 -0.6530
 4908SOL     OW15301   7.347   8.982   0.457 -0.5638  0.4625 -0.4058
 4908SOL    HW115302   7.335   8.965   0.364  3.2126  1.1453 -1.1850
 4908SOL    HW215303   7.435   9.019   0.463 -0.1933 -0.6277  3.5842
 4909SOL     OW15304   0.842   1.022   6.240 -0.0070  0.2284 -1.1314
 4909SOL    HW115305   0.772   1.008   6.176 -2.2570  1.4094  0.8864
 4909SOL    HW215306   0.860   0.935   6.276 -0.7394 -0.0341 -1.3939
 4910SOL     OW15307   5.668   2.859   6.132 -0.1983  0.2135 -0.0789
 4910SOL    HW115308   5.639   2.866   6.041 -1.5811  2.1465  0.4411
 4910SOL    HW215309   5.740   2.921   6.140 -1.2017  1.3562  0.5005
 4911SOL     OW15310   5.651   3.758   8.800  0.1262  0.3928 -0.5477
 4911SOL    HW115311   5.556   3.750   8.797  0.1317 -0.0307  0.1031
 4911SOL    HW215312   5.667   3.842   8.843 -0.0014 -0.9605  2.4285
 4912SOL     OW15313   4.708   0.127   5.739 -0.1526  0.0750 -0.4701
 4912SOL    HW115314   4.796   0.134   5.702  0.5625 -0.8936  0.9617
 4912SOL    HW215315   4.651   0.106   5.665  1.1184 -1.1639 -1.1136
 4913SOL     OW15316   6.867   7.766   2.301 -0.2984  0.5237  0.4564
 4913SOL    HW115317   6.930   7.732   2.364 -0.3266 -0.1391  0.1254
 4913SOL    HW215318   6.918   7.784   2.223 -0.8779 -2.4450 -0.7373
 4914SOL     OW15319   0.450   7.851   2.550 -0.1625  0.6581  0.3680
 4914SOL    HW115320   0.394   7.925   2.574 -0.5506  0.3186  0.5161
 4914SOL    HW215321   0.446   7.792   2.625 -0.1773  0.2956  0.0854
 4915SOL     OW15322   7.506   0.356   2.570  0.4747 -0.2802 -0.4525
 4915SOL    HW115323   7.440   0.378   2.636  1.0593 -1.3075  0.5025
 4915SOL    HW215324   7.548   0.440   2.550  0.8465 -0.0556  1.1118
 4916SOL     OW15325   5.140   1.814   2.959 -0.2757 -0.9746 -0.0323
 4916SOL    HW115326   5.116   1.898   3.000 -0.5380  0.6200 -3.1474
 4916SOL    HW215327   5.180   1.764   3.029  0.6749  2.0829  1.8106
 4917SOL     OW15328   0.647   9.586   0.932 -0.3633 -0.3228  0.2840
 4917SOL    HW115329   0.598   9.596   0.850 -0.7657 -3.0618  0.0953
 4917SOL    HW215330   0.582   9.556   0.995  0.3958 -0.4877  1.0003
 4918SOL     OW15331   5.186   7.414   1.883  0.3117  0.6656  0.0761
 4918SOL    HW115332   5.260   7.353   1.882  0.8949  1.3435  0.9952
 4918SOL    HW215333   5.110   7.359   1.864  0.8988 -0.2419  0.2789
 4919SOL     OW15334   4.328   6.356   2.264  0.3266  1.0185 -0.0015
 4919SOL    HW115335   4.319   6.444   2.301 -0.8796  1.1695 -0.5890
 4919SOL    HW215336   4.239   6.331   2.240  0.9231  0.5222 -1.8594
 4920SOL     OW15337   3.707   0.490   9.472  0.0820 -0.4078  0.3143
 4920SOL    HW115338   3.791   0.498   9.427 -0.9779 -1.8227 -2.1611
 4920SOL    HW215339   3.654   0.561   9.435 -0.7787 -1.5246 -0.6931
 4921SOL     OW15340   3.759   4.300   9.996 -1.0015 -0.2619  0.2410
 4921SOL    HW115341   3.796   4.318   9.909 -1.5968  1.5154  0.3129
 4921SOL    HW215342   3.809   4.226  10.029  0.6664  0.3614 -0.7741
 4922SOL     OW15343   3.990   5.760   6.660  0.3106  0.5596  0.8415
 4922SOL    HW115344   4.010   5.704   6.586  0.3806  1.7481 -0.0697
 4922SOL    HW215345   4.069   5.811   6.674 -1.1500  3.8141 -1.4526
 4923SOL     OW15346   5.904   8.625   4.072  0.4647  0.2875  0.5022
 4923SOL    HW115347   5.928   8.696   4.012  0.2903 -1.3701 -1.6148
 4923SOL    HW215348   5.980   8.567   4.072 -0.3555 -0.8160  0.2134
 4924SOL     OW15349   9.671   1.365   3.005 -0.0274 -0.7520 -0.3153
 4924SOL    HW115350   9.743   1.329   3.056  2.4863  3.1022 -0.6774
 4924SOL    HW215351   9.670   1.314   2.924 -0.2753 -3.2279  1.1510
 4925SOL     OW15352   9.433   0.611   8.530 -0.1055 -0.4391  0.0036
 4925SOL    HW115353   9.502   0.618   8.596 -1.6097 -1.3453  1.7338
 4925SOL    HW215354   9.445   0.689   8.476  1.4952  0.0724  1.0131
 4926SOL     OW15355   6.973   8.368   4.106  0.3608 -0.1460 -0.2234
 4926SOL    HW115356   7.015   8.339   4.025  1.4266  1.8277 -0.4201
 4926SOL    HW215357   6.906   8.430   4.078  1.9379  1.9690  0.4144
 4927SOL     OW15358   7.263   2.925   2.578  0.0227  0.1736 -0.2270
 4927SOL    HW115359   7.342   2.913   2.631  0.8621  0.5709 -1.3454
 4927SOL    HW215360   7.278   3.007   2.532 -1.2947  0.5218 -0.0616
 4928SOL     OW15361   8.000   0.032   0.993 -0.3945 -0.2345 -0.2698
 4928SOL    HW115362   7.982   0.120   0.960 -2.9434 -0.3643  0.5381
 4928SOL    HW215363   8.096   0.027   0.997 -0.1476  2.0233 -1.5306
 4929SOL     OW15364   6.203   1.367   7.966 -0.0056 -0.2497  0.4213
 4929SOL    HW115365   6.250   1.448   7.987  0.5489 -0.0640 -1.3930
 4929SOL    HW215366   6.273   1.304   7.945 -0.4963 -0.4897 -0.5380
 4930SOL     OW15367   3.864   1.728   7.066  0.0602 -0.3691  0.1837
 4930SOL    HW115368   3.826   1.644   7.094 -0.4070  0.1741  1.2373
 4930SOL    HW215369   3.793   1.771   7.018 -0.0401 -0.1742  0.4963
 4931SOL     OW15370   1.011   6.729   8.962  0.4611 -0.2101  0.1126
 4931SOL    HW115371   0.984   6.733   9.054  1.0028  0.9287  0.2358
 4931SOL    HW215372   0.945   6.673   8.921 -1.2920  1.3057  0.6988
 4932SOL     OW15373   6.622   3.561   0.477  0.4188  0.5741  0.4161
 4932SOL    HW115374   6.621   3.482   0.531 -0.7489  0.1405 -0.2154
 4932SOL    HW215375   6.682   3.540   0.405  0.4582  0.4292  0.4914
 4933SOL     OW15376   8.047   2.727   8.013 -0.4145  0.5088  1.0881
 4933SOL    HW115377   8.055   2.762   7.924 -0.4735 -0.8988  0.5039
 4933SOL    HW215378   8.034   2.804   8.068  0.2115  1.4621 -0.0440
 4934SOL     OW15379   5.855   0.046   6.274 -0.0111 -0.1848 -0.4371
 4934SOL    HW115380   5.870  -0.015   6.346 -0.0665  0.4953  0.1662
 4934SOL    HW215381   5.942   0.082   6.255 -0.1256  0.2458 -0.1510
 4935SOL     OW15382   9.209   7.253   8.264 -0.5281  0.3250 -0.0992
 4935SOL    HW115383   9.130   7.211   8.299  0.9196 -0.8984  1.9816
 4935SOL    HW215384   9.263   7.179   8.234 -0.1295  1.1268 -1.3903
 4936SOL     OW15385   8.758   0.470   1.081  0.0579 -0.0229  0.1112
 4936SOL    HW115386   8.769   0.475   0.986 -1.1097 -2.4578 -0.2309
 4936SOL    HW215387   8.791   0.383   1.104 -1.4472 -0.2276  1.6393
 4937SOL     OW15388   4.893   5.235   0.452 -0.1648 -0.0085 -0.1845
 4937SOL    HW115389   4.936   5.227   0.367 -0.0035 -0.1243 -0.0932
 4937SOL    HW215390   4.800   5.238   0.433 -0.1693 -0.7753 -0.3126
 4938SOL     OW15391   2.360   2.670   9.214 -0.1188  0.2998  0.1308
 4938SOL    HW115392   2.305   2.739   9.250  1.3708  1.8751 -0.4929
 4938SOL    HW215393   2.388   2.619   9.290 -2.6674 -0.8165  0.4359
 4939SOL     OW15394   3.055   5.600   4.068 -0.3871  0.1157 -0.2651
 4939SOL    HW115395   2.982   5.543   4.092 -1.1043  1.2618  0.3406
 4939SOL    HW215396   3.115   5.593   4.142 -0.5926  0.3311 -0.0755
 4940SOL     OW15397   1.791   1.534   0.674  0.2449 -0.5745 -0.2152
 4940SOL    HW115398   1.723   1.565   0.733  2.2973 -0.4868  2.2576
 4940SOL    HW215399   1.807   1.609   0.615  0.4281  0.6222  1.2969
 4941SOL     OW15400   9.059   3.861   8.016  0.8009 -0.2165 -0.5297
 4941SOL    HW115401   9.077   3.932   8.077 -1.0033 -1.7769  2.0580
 4941SOL    HW215402   8.964   3.864   8.004  0.5167 -2.7249  0.4872
 4942SOL     OW15403   7.375   7.676   5.501 -0.1632  0.5671 -0.0039
 4942SOL    HW115404   7.393   7.719   5.584  1.7138 -1.4652  0.7327
 4942SOL    HW215405   7.322   7.600   5.524  3.6720 -2.3547  0.1014
 4943SOL     OW15406   6.131   2.215   1.711 -0.2296  0.0647 -0.1912
 4943SOL    HW115407   6.171   2.144   1.761  0.9054 -0.0273 -1.1555
 4943SOL    HW215408   6.158   2.294   1.756 -2.8081 -0.0853  1.8192
 4944SOL     OW15409   4.852   4.584   7.811 -0.0433  0.3971 -0.6233
 4944SOL    HW115410   4.790   4.571   7.739  0.2871  1.5892 -1.1596
 4944SOL    HW215411   4.935   4.605   7.768  0.0066  1.7831  0.0717
 4945SOL     OW15412   1.585   5.321   4.182 -0.0047 -0.3866 -0.0439
 4945SOL    HW115413   1.638   5.296   4.258  0.2835  1.3075  0.3615
 4945SOL    HW215414   1.585   5.244   4.126  2.2684 -0.7051  0.3029
 4946SOL     OW15415   2.314   0.084   7.787 -0.0044 -0.1247 -0.5336
 4946SOL    HW115416   2.300   0.163   7.736  0.4239  0.7169  0.5987
 4946SOL    HW215417   2.408   0.069   7.784  0.1112  0.2935  0.4820
 4947SOL     OW15418   5.032   0.930   3.550 -0.2139 -0.3060  0.3235
 4947SOL    HW115419   4.978   0.935   3.471 -0.5593 -2.6815  0.3240
 4947SOL    HW215420   5.110   0.980   3.529 -1.3093  1.0910 -0.6234
 4948SOL     OW15421   0.244   0.569   5.295  0.3845 -0.2873 -0.0532
 4948SOL    HW115422   0.177   0.627   5.260 -0.5767 -0.3040  1.6228
 4948SOL    HW215423   0.207   0.538   5.378  2.4333 -0.3511  0.8919
 4949SOL     OW15424   8.548   8.885   6.353  0.5379 -0.2583  0.2771
 4949SOL    HW115425   8.550   8.957   6.416  1.7609  0.6885 -0.7997
 4949SOL    HW215426   8.485   8.823   6.390 -0.5601  1.3496  1.2232
 4950SOL     OW15427   9.755   6.525   5.002 -0.4778 -0.5026  0.2166
 4950SOL    HW115428   9.716   6.547   4.917  0.2861 -0.6259 -0.1694
 4950SOL    HW215429   9.744   6.605   5.054 -0.1935 -0.1305 -0.2798
 4951SOL     OW15430   4.611   6.146   0.934 -0.1535 -0.8350  0.3261
 4951SOL    HW115431   4.566   6.063   0.920  0.8423 -1.6885  1.8758
 4951SOL    HW215432   4.685   6.143   0.873 -0.5412 -0.7384 -0.1549
 4952SOL     OW15433   4.065   6.315   0.862  0.5850  0.5743 -0.2659
 4952SOL    HW115434   4.065   6.347   0.772 -0.2187 -0.3557 -0.6161
 4952SOL    HW215435   4.095   6.225   0.855  0.0963  0.3618  0.3429
 4953SOL     OW15436   4.767   0.729   3.727  0.1214 -0.1041 -0.4522
 4953SOL    HW115437   4.803   0.818   3.718  0.0690 -0.0485 -0.1505
 4953SOL    HW215438   4.794   0.684   3.647  1.2956 -0.2070 -0.0255
 4954SOL     OW15439   1.928   0.120   5.978  0.0129 -0.5700  0.3144
 4954SOL    HW115440   1.836   0.095   5.973  0.4135 -2.0979 -0.2218
 4954SOL    HW215441   1.933   0.182   6.050 -1.0807 -2.3152  1.9718
 4955SOL     OW15442   5.494   7.733   2.735  0.2695  0.0380 -0.5839
 4955SOL    HW115443   5.586   7.712   2.716 -0.1611 -1.3532 -1.2363
 4955SOL    HW215444   5.458   7.761   2.651  0.3839  1.8057 -0.0768
 4956SOL     OW15445   3.997   6.266   5.694 -0.0215  0.3983 -0.0517
 4956SOL    HW115446   4.039   6.229   5.617  1.9379 -0.4284  1.3449
 4956SOL    HW215447   3.936   6.198   5.723  1.7240 -0.7972  1.0303
 4957SOL     OW15448   4.955   5.691   6.164 -0.1762  0.1836 -1.0669
 4957SOL    HW115449   4.953   5.741   6.245 -1.7649  0.6975 -1.3863
 4957SOL    HW215450   5.022   5.733   6.111 -0.0431  0.6606 -0.5199
 4958SOL     OW15451   4.010   0.366   1.866 -0.0976  0.5184  0.3083
 4958SOL    HW115452   3.985   0.455   1.892 -0.3831  0.4639  0.2324
 4958SOL    HW215453   4.064   0.334   1.938  0.0397  0.7698  0.3170
 4959SOL     OW15454   6.335   2.615   3.712  0.2431  0.5903  0.3398
 4959SOL    HW115455   6.259   2.606   3.653  0.8866  1.9235 -0.7411
 4959SOL    HW215456   6.410   2.616   3.653  1.2278 -1.6898  1.4568
 4960SOL     OW15457   5.781   1.990   9.942 -0.2980 -0.1945 -0.1548
 4960SOL    HW115458   5.783   2.070   9.889 -0.2865 -0.2111 -0.1794
 4960SOL    HW215459   5.730   2.014  10.020  1.5296  0.4800  0.8946
 4961SOL     OW15460   9.079   9.570   1.012  0.0321  0.6262 -0.1000
 4961SOL    HW115461   9.018   9.498   1.029  0.3406  0.4375  0.1920
 4961SOL    HW215462   9.029   9.630   0.956 -0.7021  0.8545  0.7681
 4962SOL     OW15463   1.934   7.935   0.603  1.0627 -0.1557 -0.1179
 4962SOL    HW115464   1.982   7.947   0.521  0.0407  1.0860 -0.5613
 4962SOL    HW215465   1.961   8.009   0.658 -1.0854  1.2041 -0.7767
 4963SOL     OW15466   1.820   5.007   2.029  0.4042 -0.5950 -0.2474
 4963SOL    HW115467   1.865   5.077   1.982  1.4348 -0.6862  0.5623
 4963SOL    HW215468   1.784   5.051   2.107  2.1663 -1.1668  0.9405
 4964SOL     OW15469   5.206   4.332   5.305  0.1211  0.1716 -0.2601
 4964SOL    HW115470   5.276   4.274   5.276 -0.3818  0.2562 -1.6871
 4964SOL    HW215471   5.172   4.371   5.225  0.2695  2.2499  0.6198
 4965SOL     OW15472   0.623   7.689   6.700 -0.7578 -0.0677  0.6046
 4965SOL    HW115473   0.668   7.769   6.729 -1.0128  1.0670 -1.8367
 4965SOL    HW215474   0.694   7.628   6.680 -0.2589  1.0745 -1.4706
 4966SOL     OW15475   0.879   2.958  -0.014  0.1191 -0.0446  0.5197
 4966SOL    HW115476   0.913   2.932   0.072  0.2495  0.4498  0.6246
 4966SOL    HW215477   0.784   2.960  -0.002  0.1606  0.5381  0.8144
 4967SOL     OW15478   6.249   0.167   8.840  0.0602 -0.2742 -0.7385
 4967SOL    HW115479   6.252   0.130   8.751  0.3125 -0.3721 -0.6892
 4967SOL    HW215480   6.199   0.248   8.830  1.0016  0.2691 -1.1723
 4968SOL     OW15481   3.260   2.705   5.692  0.4816 -0.4859 -0.1082
 4968SOL    HW115482   3.313   2.626   5.707 -0.9988 -1.6593 -0.8122
 4968SOL    HW215483   3.321   2.767   5.652  1.4239 -1.6398 -0.5307
 4969SOL     OW15484   8.668   0.810   2.200  0.0314  0.1692  0.1327
 4969SOL    HW115485   8.587   0.826   2.250 -0.4370 -0.8352 -0.2719
 4969SOL    HW215486   8.693   0.896   2.167 -1.2347  0.4084 -0.2581
 4970SOL     OW15487   1.961   5.574   2.543 -0.4845  0.3811 -0.1084
 4970SOL    HW115488   1.952   5.645   2.606  0.1144  0.5130 -0.1678
 4970SOL    HW215489   2.032   5.601   2.485 -0.6747  0.0210 -0.5199
 4971SOL     OW15490   3.863   3.773   5.560 -0.2423  0.2938  0.0652
 4971SOL    HW115491   3.774   3.738   5.572 -0.3351  0.4060 -0.2647
 4971SOL    HW215492   3.915   3.731   5.627  0.2634 -2.6280 -1.9668
 4972SOL     OW15493   6.705   9.595   8.712 -0.2822 -0.0459  0.5100
 4972SOL    HW115494   6.759   9.519   8.691 -0.4059  0.3420 -1.3672
 4972SOL    HW215495   6.764   9.653   8.761 -0.7199 -2.0702  3.7237
 4973SOL     OW15496   3.841   0.666   2.888  0.4706  0.3360 -0.4695
 4973SOL    HW115497   3.790   0.693   2.964 -0.1282 -0.8295 -0.4322
 4973SOL    HW215498   3.779   0.665   2.816  0.4758 -0.8335 -0.4801
 4974SOL     OW15499   3.604   8.857   3.604 -0.0041  0.1811  0.0580
 4974SOL    HW115500   3.621   8.919   3.675 -0.0651  1.2571 -0.8358
 4974SOL    HW215501   3.595   8.912   3.526  0.4601 -0.9927 -0.8600
 4975SOL     OW15502   5.548   2.599   4.845 -0.3841  0.0352  0.0918
 4975SOL    HW115503   5.484   2.627   4.910  0.6305 -1.3640  1.7824
 4975SOL    HW215504   5.497   2.582   4.766 -1.9940 -0.2710  1.1615
 4976SOL     OW15505   3.435   7.518   9.027 -0.5437 -0.2367  0.3445
 4976SOL    HW115506   3.455   7.426   9.041  0.8047  0.1265  1.0115
 4976SOL    HW215507   3.385   7.544   9.104  0.2860 -0.0767  0.8315
 4977SOL     OW15508   4.614   8.443   9.280 -0.0698  0.2124 -0.0406
 4977SOL    HW115509   4.548   8.412   9.342 -1.0681  1.9277 -0.1745
 4977SOL    HW215510   4.661   8.512   9.326  1.6145 -0.8947  0.0044
 4978SOL     OW15511   3.169   5.881   4.338 -0.5454 -0.2700  0.1581
 4978SOL    HW115512   3.241   5.904   4.279 -0.1697 -1.3445  0.1704
 4978SOL    HW215513   3.121   5.963   4.351 -0.6155 -0.0023 -1.6092
 4979SOL     OW15514   9.306   8.979   9.534  0.1777 -0.0533  0.3938
 4979SOL    HW115515   9.275   8.981   9.625  0.5983 -1.1506  0.5759
 4979SOL    HW215516   9.240   9.028   9.485 -0.3071  0.1357  1.2184
 4980SOL     OW15517   7.408   7.279   3.464  0.2548  0.1332  0.4561
 4980SOL    HW115518   7.324   7.317   3.489 -0.9672 -1.9466 -0.2539
 4980SOL    HW215519   7.473   7.333   3.510 -1.3844  2.2761  0.4184
 4981SOL     OW15520   5.244   9.320   0.212 -0.5276  0.0986 -0.1663
 4981SOL    HW115521   5.192   9.247   0.178  0.2242 -0.2515 -0.5931
 4981SOL    HW215522   5.182   9.392   0.219 -1.3676 -0.6611  0.5793
 4982SOL     OW15523   8.331   1.568   0.504  0.2331  0.0431  0.0244
 4982SOL    HW115524   8.329   1.573   0.408 -0.3903  0.1454  0.0407
 4982SOL    HW215525   8.249   1.607   0.532  0.2004 -0.4164  0.5854
 4983SOL     OW15526   0.411   0.195   6.437 -0.5940 -0.7379  0.0380
 4983SOL    HW115527   0.457   0.215   6.519 -0.0928 -0.5133 -0.2925
 4983SOL    HW215528   0.481   0.183   6.373 -1.0087  0.1330 -0.5928
 4984SOL     OW15529   3.228   7.481   5.542 -0.2750 -0.8004  0.1913
 4984SOL    HW115530   3.151   7.522   5.501  1.2052 -0.2939 -2.3128
 4984SOL    HW215531   3.284   7.555   5.565  0.3317 -1.2421  0.1388
 4985SOL     OW15532   8.047   8.181   3.876 -0.5491  0.1526 -0.6138
 4985SOL    HW115533   8.078   8.168   3.966  0.1993  0.2641 -0.8451
 4985SOL    HW215534   8.076   8.103   3.829 -0.0059  0.5738 -0.9898
 4986SOL     OW15535   8.278   7.693   9.736  0.3025 -0.8872  0.2094
 4986SOL    HW115536   8.285   7.674   9.829  0.6855  1.6086  0.7422
 4986SOL    HW215537   8.191   7.730   9.725  0.3317 -0.9873 -0.3920
 4987SOL     OW15538   0.854   2.307   2.697 -0.1106  0.2866 -0.7446
 4987SOL    HW115539   0.800   2.366   2.750  1.6058  0.7043  0.6387
 4987SOL    HW215540   0.896   2.364   2.633 -0.8043  0.0549 -1.4224
 4988SOL     OW15541   2.465   1.608   3.900 -0.1475  0.1494 -0.2697
 4988SOL    HW115542   2.534   1.574   3.958  0.5425 -0.2983 -1.3229
 4988SOL    HW215543   2.416   1.669   3.955  0.4114 -0.3491  0.8208
 4989SOL     OW15544   6.322   3.996   8.424 -0.1408 -0.1626 -0.2666
 4989SOL    HW115545   6.321   3.982   8.519  0.1123 -1.9078 -0.4943
 4989SOL    HW215546   6.294   3.913   8.387  2.4226 -0.4340 -1.7989
 4990SOL     OW15547   8.461   0.695   9.866  0.3639  0.8427 -0.1070
 4990SOL    HW115548   8.542   0.744   9.855  1.5562 -1.0836 -0.5553
 4990SOL    HW215549   8.485   0.605   9.845 -1.8298  0.1442  0.1026
 4991SOL     OW15550   0.757   7.202   4.302  0.0468 -0.4940  0.4342
 4991SOL    HW115551   0.788   7.286   4.269 -1.0546 -0.0191  0.5660
 4991SOL    HW215552   0.826   7.140   4.279  1.1711  0.5490  0.8903
 4992SOL     OW15553   2.334   7.326   5.610 -0.2444  0.0440 -0.1873
 4992SOL    HW115554   2.269   7.315   5.541  0.0348  1.2703 -0.6566
 4992SOL    HW215555   2.401   7.382   5.572 -0.6983  1.8111  1.4680
 4993SOL     OW15556   1.610   3.223   5.511  0.0712 -0.0998 -0.0763
 4993SOL    HW115557   1.644   3.251   5.426  1.5994 -0.7740  0.2724
 4993SOL    HW215558   1.643   3.134   5.522 -0.2961 -0.1050  1.1321
 4994SOL     OW15559   2.400   4.563   9.146 -0.2246 -0.5377  0.4982
 4994SOL    HW115560   2.373   4.557   9.055 -0.5355 -1.5068  0.6365
 4994SOL    HW215561   2.399   4.656   9.166  1.5780 -0.1413 -0.9911
 4995SOL     OW15562   1.568   0.996   6.944 -0.2692  0.2055 -0.0236
 4995SOL    HW115563   1.599   1.081   6.910 -0.2099  0.7304  1.2908
 4995SOL    HW215564   1.605   0.991   7.032 -0.9159 -0.8483  0.1988
 4996SOL     OW15565   8.160   6.098   8.988  0.4210  0.0739 -0.4533
 4996SOL    HW115566   8.099   6.033   8.953  0.0605 -0.9973  1.9255
 4996SOL    HW215567   8.166   6.165   8.920 -2.8111 -0.1632 -1.1565
 4997SOL     OW15568   8.826   5.020   4.488 -0.3200  0.2005  0.0317
 4997SOL    HW115569   8.889   5.051   4.423 -1.0429  0.7201 -0.4292
 4997SOL    HW215570   8.862   5.050   4.572 -0.0306  0.6210 -0.2393
 4998SOL     OW15571   0.868   5.002   1.786  0.0644 -0.1650 -0.3450
 4998SOL    HW115572   0.940   5.023   1.846 -1.6020  1.3947  1.2298
 4998SOL    HW215573   0.825   4.926   1.827  0.3301 -0.5912 -0.8516
 4999SOL     OW15574   3.338   3.935   9.170 -0.0286 -0.1711  0.5625
 4999SOL    HW115575   3.265   3.997   9.165 -0.6114 -0.6934  1.9429
 4999SOL    HW215576   3.378   3.937   9.083 -1.3218  0.5756 -0.0440
 5000SOL     OW15577   7.026   5.016   8.031  0.2929  0.1295  0.1854
 5000SOL    HW115578   7.027   4.985   8.122 -0.7390  0.7607  0.4214
 5000SOL    HW215579   6.953   4.969   7.990  0.5295  0.1188 -0.2275
 5001SOL     OW15580   8.967   3.380   4.653  0.0598 -0.3600 -1.0696
 5001SOL    HW115581   8.960   3.369   4.558 -1.4304 -0.0891 -1.0265
 5001SOL    HW215582   8.876   3.378   4.684  0.5778 -1.5395  0.4869
 5002SOL     OW15583   8.113   8.926   2.932  0.2187 -0.1581  0.4885
 5002SOL    HW115584   8.209   8.915   2.931  0.0647 -1.7418 -0.3294
 5002SOL    HW215585   8.079   8.836   2.931 -1.2937  0.2412 -3.7050
 5003SOL     OW15586   1.320   6.202   7.384  0.7455 -0.0352 -0.0717
 5003SOL    HW115587   1.282   6.119   7.412 -0.9028  0.9188  0.6820
 5003SOL    HW215588   1.409   6.200   7.419  0.7295 -1.4569 -0.0383
 5004SOL     OW15589   7.925   0.110   5.138 -0.2878 -0.2576 -0.1504
 5004SOL    HW115590   7.858   0.060   5.091 -0.6509  0.9692 -1.0056
 5004SOL    HW215591   7.908   0.201   5.112  1.5273  0.1118 -0.1419
 5005SOL     OW15592   4.296   0.577   7.604  0.0942  0.0058  0.4194
 5005SOL    HW115593   4.223   0.637   7.590  1.1802  1.2157 -0.3099
 5005SOL    HW215594   4.353   0.623   7.666  0.1029 -1.0637  1.2368
 5006SOL     OW15595   4.518   9.085   7.051  0.0372  0.7792  0.7683
 5006SOL    HW115596   4.613   9.077   7.040 -0.2476 -1.1050 -1.1698
 5006SOL    HW215597   4.506   9.160   7.109  2.7491  0.1367  2.3139
 5007SOL     OW15598   4.357   6.267   7.555 -0.1451 -0.5830 -0.0445
 5007SOL    HW115599   4.325   6.182   7.524 -1.1298 -0.1796 -0.1533
 5007SOL    HW215600   4.452   6.257   7.555 -0.2513 -1.8041  0.2906
 5008SOL     OW15601   7.944   9.086   0.107  0.2751  0.4825  0.1136
 5008SOL    HW115602   7.893   9.025   0.161  0.2909  0.0073 -0.3960
 5008SOL    HW215603   7.989   9.142   0.170  0.2468 -0.0246  0.5937
 5009SOL     OW15604   0.718   8.716   6.104  0.2164  0.0505 -0.0415
 5009SOL    HW115605   0.701   8.663   6.183 -0.3586 -1.0478 -0.8691
 5009SOL    HW215606   0.643   8.776   6.100 -0.4350 -0.7621 -0.4317
 5010SOL     OW15607   1.138  10.004   7.248 -0.5999  0.5868 -0.0826
 5010SOL    HW115608   1.223  10.013   7.206 -1.3046  0.8779 -1.4808
 5010SOL    HW215609   1.125   9.909   7.255  0.8411  0.4780  2.3160
 5011SOL     OW15610   3.892   3.609   0.849  0.3909  0.3439 -0.4253
 5011SOL    HW115611   3.900   3.625   0.943  0.4023  0.9024 -0.5156
 5011SOL    HW215612   3.854   3.690   0.814 -0.6344 -0.2554 -0.7541
 5012SOL     OW15613   0.981   3.143   4.468  0.3854  0.5768  0.6124
 5012SOL    HW115614   0.897   3.161   4.509  0.3723  0.1266  0.7944
 5012SOL    HW215615   1.035   3.218   4.490 -0.4086  1.5966 -0.7657
 5013SOL     OW15616   2.873   6.691   3.909 -0.4440 -0.8024  0.1444
 5013SOL    HW115617   2.784   6.726   3.916  0.1141  1.0502 -1.1399
 5013SOL    HW215618   2.897   6.704   3.817  2.0500  1.2529  0.9520
 5014SOL     OW15619   7.963   3.602   4.626 -0.2534 -0.9010  0.0783
 5014SOL    HW115620   8.034   3.545   4.657 -0.5740 -0.6007  1.4074
 5014SOL    HW215621   7.950   3.665   4.697 -1.9213 -1.0151 -0.0902
 5015SOL     OW15622   7.705   0.286   8.748 -0.7868  0.1679  0.1360
 5015SOL    HW115623   7.710   0.319   8.838 -0.6417 -0.5987  0.4178
 5015SOL    HW215624   7.776   0.332   8.702 -1.5469  1.3783  0.1273
 5016SOL     OW15625   6.160   5.210   9.378 -0.4063  0.2116 -0.0847
 5016SOL    HW115626   6.077   5.206   9.425 -1.2230 -1.6905 -1.5687
 5016SOL    HW215627   6.214   5.143   9.418 -0.1933  0.3056 -0.2114
 5017SOL     OW15628   5.281   9.760   9.504  0.0525  0.2055  0.3048
 5017SOL    HW115629   5.250   9.842   9.465 -0.2975  1.1254  2.3821
 5017SOL    HW215630   5.366   9.783   9.543 -0.6755 -0.0084  2.1005
 5018SOL     OW15631   5.156   5.658   1.728 -0.3345  0.1523  0.0822
 5018SOL    HW115632   5.163   5.666   1.823 -0.0356  1.5980 -0.0396
 5018SOL    HW215633   5.153   5.748   1.696  1.3389 -0.2491 -1.4057
 5019SOL     OW15634   3.074   5.206   8.364 -0.4497  0.1656 -0.5080
 5019SOL    HW115635   3.030   5.269   8.420 -0.3073  0.4152 -0.6762
 5019SOL    HW215636   3.051   5.121   8.401  1.4462  0.3675  1.2961
 5020SOL     OW15637   3.325   8.761   4.313  0.2171 -0.3191  0.0540
 5020SOL    HW115638   3.404   8.732   4.268  1.7069  3.1535  0.1362
 5020SOL    HW215639   3.355   8.795   4.397 -1.5242  0.1524  0.5419
 5021SOL     OW15640   0.527   6.177   1.145  0.0873  0.2616 -0.0280
 5021SOL    HW115641   0.434   6.176   1.168 -0.1587  1.9540 -0.8670
 5021SOL    HW215642   0.529   6.185   1.050  1.0813  1.4158  0.0651
 5022SOL     OW15643   3.075   0.377   3.973  0.1614  0.4386 -0.4819
 5022SOL    HW115644   3.000   0.358   3.917 -0.0957  0.3445 -0.1168
 5022SOL    HW215645   3.141   0.414   3.915  1.6711 -3.7178 -1.8208
 5023SOL     OW15646   9.373   3.251   7.450 -0.2302 -0.1449  0.0016
 5023SOL    HW115647   9.463   3.257   7.483  0.0877  0.9342 -1.0051
 5023SOL    HW215648   9.332   3.184   7.505  1.0286 -0.2687  0.8321
 5024SOL     OW15649   6.525   3.618   1.090  0.4865 -0.0032 -0.3256
 5024SOL    HW115650   6.462   3.601   1.020 -0.9437  1.2194  0.6089
 5024SOL    HW215651   6.472   3.641   1.166  2.0032 -0.9411  1.0912
 5025SOL     OW15652   4.368   6.413   7.297  0.7480 -0.2451 -0.2277
 5025SOL    HW115653   4.393   6.387   7.386  3.3980 -1.1092 -1.1599
 5025SOL    HW215654   4.318   6.339   7.263  1.7482 -0.9132 -0.2561
 5026SOL     OW15655   0.162   2.283   2.002 -0.4347 -0.0730  0.5399
 5026SOL    HW115656   0.100   2.354   1.986 -1.2746 -1.0303 -0.6759
 5026SOL    HW215657   0.241   2.327   2.034 -0.5676  1.5155 -1.1472
 5027SOL     OW15658   9.075   7.728   8.434 -0.0678 -0.0340 -0.4375
 5027SOL    HW115659   9.138   7.662   8.462 -2.4660 -2.5673 -0.5534
 5027SOL    HW215660   9.029   7.754   8.514 -1.2958 -1.0060 -0.7887
 5028SOL     OW15661   3.566   3.229   2.807 -0.2385  0.3043  0.3944
 5028SOL    HW115662   3.538   3.216   2.716 -1.7648 -1.9593  1.1153
 5028SOL    HW215663   3.657   3.260   2.800 -0.0029 -0.7049 -1.8691
 5029SOL     OW15664   6.734   9.227   4.756 -0.0484 -0.2878  0.2016
 5029SOL    HW115665   6.753   9.261   4.668  0.2796  0.0184  0.3854
 5029SOL    HW215666   6.784   9.146   4.762 -1.4876 -1.2664 -0.5417
 5030SOL     OW15667   8.818   5.546   4.152 -0.5231 -0.5047 -0.2112
 5030SOL    HW115668   8.722   5.545   4.149 -0.5240  0.1835 -0.5684
 5030SOL    HW215669   8.845   5.580   4.067 -0.0893  2.7662  1.0701
 5031SOL     OW15670   4.231   6.150   8.171 -0.1635 -0.3508  0.0042
 5031SOL    HW115671   4.202   6.229   8.217 -2.0086 -0.4979 -0.8089
 5031SOL    HW215672   4.325   6.145   8.189 -0.2491  1.2893  1.1608
 5032SOL     OW15673   5.165   6.703   7.704  0.3325  0.7303  0.2020
 5032SOL    HW115674   5.163   6.676   7.612  1.9584  0.2751  0.2598
 5032SOL    HW215675   5.258   6.721   7.721  0.1751  0.0297  1.9653
 5033SOL     OW15676   7.013   1.599   4.958 -0.3385  0.3975 -0.0072
 5033SOL    HW115677   6.948   1.538   4.993  0.1685 -0.2715 -0.2032
 5033SOL    HW215678   7.053   1.638   5.036 -1.6699  1.6000  0.1175
 5034SOL     OW15679   6.998   4.974   2.171 -0.8956  0.1166 -1.3164
 5034SOL    HW115680   7.061   5.005   2.106  1.2092 -0.0558  0.5114
 5034SOL    HW215681   7.022   4.883   2.186 -0.4780  0.5067  0.6091
 5035SOL     OW15682   2.690   1.152   1.556 -0.0635 -0.5897  0.0146
 5035SOL    HW115683   2.715   1.203   1.479 -0.1162  1.0774  1.0498
 5035SOL    HW215684   2.595   1.141   1.547 -0.4764  1.6735  0.9667
 5036SOL     OW15685   0.292   0.222   8.685  0.7680  0.4394  0.0535
 5036SOL    HW115686   0.252   0.304   8.656  1.1007  0.8505  0.7489
 5036SOL    HW215687   0.256   0.206   8.772  0.1665 -0.5304 -0.3480
 5037SOL     OW15688   6.200   1.946   9.830  0.5017 -0.1862  0.2921
 5037SOL    HW115689   6.134   1.929   9.897  0.6987 -0.4435  0.4238
 5037SOL    HW215690   6.155   1.997   9.763 -0.3974 -2.0452 -0.6063
 5038SOL     OW15691   2.656   6.330   4.522 -0.1065 -0.1959 -0.3334
 5038SOL    HW115692   2.733   6.353   4.573  1.6438 -0.9445 -2.4666
 5038SOL    HW215693   2.609   6.267   4.576 -0.3410  1.7436  1.8440
 5039SOL     OW15694   2.026   4.118   4.516 -0.1253 -0.1154  0.2925
 5039SOL    HW115695   1.980   4.199   4.538 -0.4237 -0.4434  0.8913
 5039SOL    HW215696   1.978   4.083   4.441  0.3147  0.5157 -0.2997
 5040SOL     OW15697   1.647   1.841   5.808  0.5700  0.0437  0.3809
 5040SOL    HW115698   1.613   1.838   5.719 -0.8898 -0.2460  0.9114
 5040SOL    HW215699   1.668   1.933   5.823  1.4993 -0.0177 -0.4850
 5041SOL     OW15700   7.491   2.760   4.553  0.1809  0.9841  0.0220
 5041SOL    HW115701   7.498   2.670   4.585 -3.4201  0.7959  0.7184
 5041SOL    HW215702   7.436   2.804   4.618 -0.6033  2.8889 -1.8227
 5042SOL     OW15703   2.418   3.007   1.334 -0.1074  0.3480 -0.5404
 5042SOL    HW115704   2.471   3.035   1.408  0.4005  0.4544 -0.9364
 5042SOL    HW215705   2.330   3.038   1.353  0.0419  0.4541 -0.0302
 5043SOL     OW15706   6.061   6.113   7.892  0.2897  0.3595  0.0113
 5043SOL    HW115707   5.980   6.099   7.941 -0.1103  1.8222 -0.1893
 5043SOL    HW215708   6.032   6.124   7.801  0.6000  1.6937  0.0516
 5044SOL     OW15709   1.020   4.553   1.458  0.1237  0.5059  0.2454
 5044SOL    HW115710   0.943   4.513   1.417 -0.1215  2.0875 -0.9392
 5044SOL    HW215711   0.990   4.579   1.545 -0.1485 -0.4735  0.4585
 5045SOL     OW15712   0.990   8.407   1.315 -0.0409  0.0624 -0.0961
 5045SOL    HW115713   0.934   8.331   1.326 -2.9567  2.1013  0.2459
 5045SOL    HW215714   0.994   8.421   1.220  1.1214 -0.8586 -0.2124
 5046SOL     OW15715   1.823   1.955   8.333 -0.3753 -0.2429  1.1631
 5046SOL    HW115716   1.875   2.033   8.312  0.6059 -1.1190  0.2704
 5046SOL    HW215717   1.758   1.987   8.396 -0.2452  1.3810  0.5277
 5047SOL     OW15718   8.742   7.856   0.588 -0.1907  0.1478  0.1920
 5047SOL    HW115719   8.762   7.949   0.578  2.7816 -0.2503  1.5878
 5047SOL    HW215720   8.765   7.818   0.503  0.6568  0.4015  0.2960
 5048SOL     OW15721   3.200   3.235   6.537 -0.3920 -0.2583  0.5604
 5048SOL    HW115722   3.252   3.312   6.559 -2.2926  0.5627  2.4631
 5048SOL    HW215723   3.130   3.268   6.481  0.4021 -1.1678 -1.0502
 5049SOL     OW15724   6.979   4.581   4.616  0.2934  0.2270  0.0170
 5049SOL    HW115725   6.996   4.674   4.626  1.3249  0.0400  0.1469
 5049SOL    HW215726   6.959   4.570   4.523 -0.4652  0.6660  0.1264
 5050SOL     OW15727   3.530   1.764   0.576 -0.1991  0.7235 -0.0435
 5050SOL    HW115728   3.487   1.819   0.510  0.1635  1.3210  0.2134
 5050SOL    HW215729   3.461   1.745   0.639 -1.0186 -1.2680 -1.4301
 5051SOL     OW15730   0.255   3.170   1.337  0.6628 -0.1371 -0.0744
 5051SOL    HW115731   0.221   3.180   1.426  1.5648 -0.1969  0.2819
 5051SOL    HW215732   0.233   3.080   1.314 -0.5208  0.1986 -0.3289
 5052SOL     OW15733   8.364   7.454   1.590 -0.3425 -0.3233  0.3205
 5052SOL    HW115734   8.435   7.516   1.575 -1.0898  0.5070  0.1588
 5052SOL    HW215735   8.349   7.413   1.505 -1.3720  0.9353 -0.1295
 5053SOL     OW15736   1.883   3.857   5.143 -0.3616 -0.2747 -0.4874
 5053SOL    HW115737   1.901   3.763   5.134  1.3295 -0.1949  1.3352
 5053SOL    HW215738   1.947   3.899   5.086  0.1828 -0.1996  0.1656
 5054SOL     OW15739   0.460   7.259   8.935 -0.0072  0.3611 -0.2429
 5054SOL    HW115740   0.489   7.281   9.024 -0.6815  0.7080 -0.1026
 5054SOL    HW215741   0.540   7.234   8.889  0.1779 -1.2720  0.8703
 5055SOL     OW15742   0.255   7.401   4.459 -0.4759 -0.5152  0.5435
 5055SOL    HW115743   0.347   7.424   4.475 -0.8579  2.1066 -0.6927
 5055SOL    HW215744   0.255   7.358   4.373 -0.4452 -0.3645  0.4694
 5056SOL     OW15745   4.171   0.447   5.654  0.5756  0.2357  0.1255
 5056SOL    HW115746   4.096   0.507   5.653 -0.2517 -0.7871 -0.1699
 5056SOL    HW215747   4.164   0.400   5.736  1.2101  0.5142  0.3431
 5057SOL     OW15748   3.278   9.390   2.221  0.0963  0.1558  0.0459
 5057SOL    HW115749   3.367   9.366   2.192  0.1722  0.9423 -0.4010
 5057SOL    HW215750   3.291   9.464   2.280 -0.2863  0.5266 -0.3261
 5058SOL     OW15751   5.157   0.073   0.763 -0.2614  0.0576 -0.0735
 5058SOL    HW115752   5.235   0.121   0.735  0.1277 -0.8628 -0.6469
 5058SOL    HW215753   5.190  -0.011   0.794 -1.0925 -0.7957 -1.3821
 5059SOL     OW15754   4.395   7.035   0.508 -0.1425  0.4238  0.1226
 5059SOL    HW115755   4.402   7.025   0.413 -0.3795  0.9419  0.0477
 5059SOL    HW215756   4.399   6.946   0.542  1.0847  0.3025 -0.2939
 5060SOL     OW15757   9.051   6.082   0.359  0.2874 -0.7085 -0.0142
 5060SOL    HW115758   9.018   6.167   0.389  0.1336 -0.5988 -0.4848
 5060SOL    HW215759   8.972   6.030   0.343  0.3953 -1.6736  2.3053
 5061SOL     OW15760   6.851   7.927   3.714 -0.5080 -0.0971 -0.0994
 5061SOL    HW115761   6.882   7.876   3.789 -1.0688  0.1661  0.3145
 5061SOL    HW215762   6.774   7.880   3.683 -0.0153 -0.4563 -0.8009
 5062SOL     OW15763   1.824   1.476   6.301 -0.1236  0.1612 -0.2249
 5062SOL    HW115764   1.817   1.538   6.374  1.4773 -0.7796  0.7827
 5062SOL    HW215765   1.793   1.526   6.225 -2.9496  0.8209  1.2018
 5063SOL     OW15766   7.504   5.142   6.648  0.3752  0.0201 -0.1482
 5063SOL    HW115767   7.589   5.184   6.658  0.5872 -0.5701  0.7270
 5063SOL    HW215768   7.491   5.095   6.731 -0.6739 -0.1264 -0.3809
 5064SOL     OW15769   7.037   1.464   2.373 -0.2270  0.1193  0.4674
 5064SOL    HW115770   7.060   1.396   2.436  2.0184  1.9139  1.7416
 5064SOL    HW215771   7.068   1.431   2.289 -0.0193 -0.8196  0.9052
 5065SOL     OW15772   6.963   2.744   0.982 -0.2789 -0.7971 -0.2710
 5065SOL    HW115773   6.946   2.826   0.935 -1.2928 -1.0041 -0.2713
 5065SOL    HW215774   7.022   2.696   0.925  1.1365  0.3346  0.1636
 5066SOL     OW15775   2.718   3.984   2.869  0.1107 -0.1477  0.1516
 5066SOL    HW115776   2.777   4.016   2.937 -0.0353 -1.1484  0.7636
 5066SOL    HW215777   2.647   4.048   2.866  1.5075  1.4489 -1.0566
 5067SOL     OW15778   7.111   2.880   1.845  0.0724  0.3976  0.1067
 5067SOL    HW115779   7.066   2.907   1.925 -0.1563  0.2558  0.0262
 5067SOL    HW215780   7.175   2.950   1.829 -0.7049  1.0445 -0.2557
 5068SOL     OW15781   0.275   4.240   1.580  0.0924  0.1991 -0.7971
 5068SOL    HW115782   0.348   4.179   1.583 -0.2530 -0.2431  2.7104
 5068SOL    HW215783   0.197   4.185   1.581 -0.2253  0.6304  0.7289
 5069SOL     OW15784   2.336   6.069   9.298  0.1165  0.3741  0.2090
 5069SOL    HW115785   2.368   6.031   9.380  0.4099 -0.3237 -0.2219
 5069SOL    HW215786   2.414   6.084   9.246  0.0320  1.8071  0.4467
 5070SOL     OW15787   2.695   4.362   8.882 -0.2464 -0.3776  0.3244
 5070SOL    HW115788   2.707   4.267   8.890 -0.9214 -0.5368 -0.4100
 5070SOL    HW215789   2.739   4.398   8.959 -1.9070 -1.4378  1.8602
 5071SOL     OW15790   6.776   7.679   6.107  0.1914 -0.4287  0.5438
 5071SOL    HW115791   6.686   7.705   6.127 -0.1268 -0.3331 -0.8710
 5071SOL    HW215792   6.825   7.695   6.187 -0.8221  0.6377  0.9701
 5072SOL     OW15793   4.432   6.495   8.135  0.5960  0.4831 -0.0160
 5072SOL    HW115794   4.506   6.465   8.187 -0.0846  2.6534  2.3930
 5072SOL    HW215795   4.472   6.536   8.058  1.8916  1.2507  1.0368
 5073SOL     OW15796   1.493   5.699   9.394  0.4149  0.0149 -0.3983
 5073SOL    HW115797   1.522   5.674   9.482  0.6585  0.7846 -0.2549
 5073SOL    HW215798   1.562   5.756   9.361  0.5270 -0.5922 -1.2605
 5074SOL     OW15799   1.520   0.620   4.962  0.3606 -0.5922  0.4763
 5074SOL    HW115800   1.451   0.571   4.918 -0.4267 -0.9693  2.0739
 5074SOL    HW215801   1.500   0.712   4.944  1.6501 -0.7221 -2.2461
 5075SOL     OW15802   4.913   3.243   1.931 -0.2790  0.1283 -0.2725
 5075SOL    HW115803   4.841   3.305   1.937  0.6665  1.2490 -0.2082
 5075SOL    HW215804   4.964   3.271   1.855  0.0518 -0.7062 -0.3786
 5076SOL     OW15805   4.914   0.031   4.203 -0.5604 -0.0918  0.3557
 5076SOL    HW115806   5.006   0.005   4.213 -0.0824  1.4358  0.3272
 5076SOL    HW215807   4.919   0.117   4.161 -2.1056 -0.9766 -1.7875
 5077SOL     OW15808   5.514   4.028   3.584 -0.2128  0.5519 -0.1289
 5077SOL    HW115809   5.557   4.035   3.499  2.2636 -2.0793  0.7345
 5077SOL    HW215810   5.517   4.116   3.620 -1.5752  1.7934 -2.7878
 5078SOL     OW15811   8.342   3.798   9.209 -0.2869 -0.0649 -0.0537
 5078SOL    HW115812   8.380   3.886   9.208 -0.3580 -0.0167 -1.3481
 5078SOL    HW215813   8.417   3.740   9.225  0.0376  0.1541 -0.7019
 5079SOL     OW15814   2.990   1.882   9.249  0.1332 -0.3245  0.2213
 5079SOL    HW115815   2.997   1.804   9.194  0.5710 -1.1798  1.4468
 5079SOL    HW215816   2.967   1.848   9.336  0.2075  0.9277  0.7492
 5080SOL     OW15817   4.303   4.968   0.702  0.1404  0.1664 -0.2158
 5080SOL    HW115818   4.357   4.984   0.780  1.0152  0.2718 -0.8303
 5080SOL    HW215819   4.365   4.934   0.637 -0.0557  2.4787 -1.7151
 5081SOL     OW15820   8.128   3.952   1.061 -0.3492  0.0149  0.2057
 5081SOL    HW115821   8.068   4.000   1.004  0.7340  1.2077  0.0161
 5081SOL    HW215822   8.177   3.895   1.003 -0.4067 -0.0041  0.1763
 5082SOL     OW15823   7.181   8.867   6.405  0.0737 -0.7505 -0.7624
 5082SOL    HW115824   7.220   8.860   6.492  1.9172  0.4094 -1.4363
 5082SOL    HW215825   7.118   8.939   6.412  0.1116 -0.7594 -0.3454
 5083SOL     OW15826   3.010   1.209   1.769 -0.2926 -0.0063  0.3394
 5083SOL    HW115827   3.012   1.115   1.753  1.4772 -0.4021  2.3579
 5083SOL    HW215828   2.934   1.223   1.825  0.3392 -0.5456  1.3680
 5084SOL     OW15829   1.036   0.054   4.320  0.3727  0.6533 -0.4794
 5084SOL    HW115830   1.032  -0.012   4.390 -1.7445  3.0065  1.8303
 5084SOL    HW215831   0.984   0.015   4.249  1.1909 -1.1306 -0.1577
 5085SOL     OW15832   8.323   6.890   3.581  0.2843 -0.0320  0.2481
 5085SOL    HW115833   8.385   6.899   3.510  0.4962  1.7234  0.6203
 5085SOL    HW215834   8.371   6.918   3.659 -0.7383  0.6565  0.6528
 5086SOL     OW15835   2.976   5.198   6.295  0.1939 -0.2451  0.0280
 5086SOL    HW115836   3.046   5.173   6.355  0.9768 -1.5744 -1.3935
 5086SOL    HW215837   3.018   5.205   6.210 -0.7291  2.4439 -0.3053
 5087SOL     OW15838   9.918   7.048   7.331  0.0107 -0.4594  0.5391
 5087SOL    HW115839   9.826   7.023   7.345 -0.2996  0.9198  1.0302
 5087SOL    HW215840   9.926   7.052   7.236  0.3306 -3.2408  0.3530
 5088SOL     OW15841   7.907   0.175   8.154  0.1115  0.0536 -0.1606
 5088SOL    HW115842   7.973   0.125   8.202 -0.2418 -1.0744 -0.8067
 5088SOL    HW215843   7.946   0.262   8.143 -0.4578  0.9657  3.6019
 5089SOL     OW15844   6.154   5.631   5.864  0.1217  0.8623  0.5359
 5089SOL    HW115845   6.195   5.646   5.779  0.4163 -1.9430  0.0916
 5089SOL    HW215846   6.064   5.609   5.843  0.7604 -2.2292  0.6345
 5090SOL     OW15847   1.182   0.244   5.327 -0.0032 -0.5052 -0.3137
 5090SOL    HW115848   1.128   0.280   5.398 -1.3136  0.8388 -1.8964
 5090SOL    HW215849   1.169   0.305   5.255  1.6423 -1.5882 -1.5858
 5091SOL     OW15850   1.628   6.275   4.201 -0.1873  0.3569  0.4928
 5091SOL    HW115851   1.677   6.334   4.258 -0.5519 -0.2091  1.4175
 5091SOL    HW215852   1.565   6.332   4.156  0.6784  0.9398 -0.0144
 5092SOL     OW15853   5.949   0.802   5.785 -0.0159 -0.6305  0.2059
 5092SOL    HW115854   5.944   0.706   5.780 -0.5097 -0.7389  2.0802
 5092SOL    HW215855   5.870   0.828   5.831 -0.4117  0.8098 -1.2092
 5093SOL     OW15856   3.545   7.328   6.204 -0.4940 -0.3871 -0.5080
 5093SOL    HW115857   3.569   7.245   6.162  1.8630  0.0424 -0.1523
 5093SOL    HW215858   3.587   7.324   6.290 -0.1534  1.2476 -0.5658
 5094SOL     OW15859   4.489   6.784   1.876  0.1596 -0.0871  0.3114
 5094SOL    HW115860   4.457   6.874   1.884 -1.2493 -0.5954  0.6672
 5094SOL    HW215861   4.475   6.762   1.784  0.7821  0.1472  0.1561
 5095SOL     OW15862   8.075   7.479   3.729  0.2072 -0.5620 -0.1160
 5095SOL    HW115863   8.030   7.537   3.790  0.1058 -0.2848 -0.4511
 5095SOL    HW215864   8.164   7.472   3.764  0.3072  0.0411 -0.2373
 5096SOL     OW15865   0.156   8.503   1.558 -0.1335 -0.3720 -0.0066
 5096SOL    HW115866   0.061   8.513   1.553 -0.0617  0.7796  0.5971
 5096SOL    HW215867   0.170   8.440   1.629 -0.4288  0.8464  1.1947
 5097SOL     OW15868   3.235   6.160   4.039  0.4439 -0.4447 -0.2966
 5097SOL    HW115869   3.311   6.167   4.097  1.9059  0.7592 -2.2234
 5097SOL    HW215870   3.273   6.162   3.951 -1.6716 -2.2678 -1.3397
 5098SOL     OW15871   3.581   7.535   4.179  0.0641 -0.0351 -0.4010
 5098SOL    HW115872   3.581   7.482   4.258 -1.4011  1.2796  0.5422
 5098SOL    HW215873   3.528   7.486   4.116  0.6553 -0.7535 -0.3544
 5099SOL     OW15874   5.386   7.116   3.755  0.5193  0.8078  0.4745
 5099SOL    HW115875   5.463   7.152   3.711  0.9664 -2.2727 -1.5380
 5099SOL    HW215876   5.336   7.074   3.685  0.1588 -2.5476  2.5313
 5100SOL     OW15877   5.375   5.330   9.391 -0.0700  0.5394  0.2195
 5100SOL    HW115878   5.289   5.332   9.350  0.0681  0.3265 -0.0779
 5100SOL    HW215879   5.386   5.240   9.421  0.4042  0.3419 -0.5062
 5101SOL     OW15880   7.503   9.365   2.524  0.0220  0.3616  0.0055
 5101SOL    HW115881   7.589   9.401   2.500  0.7125 -2.1137 -1.6481
 5101SOL    HW215882   7.442   9.402   2.460  0.9914 -2.2920 -2.7222
 5102SOL     OW15883   2.474   5.809   3.521  0.1154  0.7822  0.5682
 5102SOL    HW115884   2.546   5.747   3.534  1.0121  1.4047 -1.1020
 5102SOL    HW215885   2.518   5.893   3.503 -1.0301  1.1710 -0.4892
 5103SOL     OW15886   9.305   8.460   6.948 -0.4981  0.6440 -0.2306
 5103SOL    HW115887   9.273   8.374   6.919  1.1959 -0.1502  0.1075
 5103SOL    HW215888   9.240   8.522   6.915 -2.1722 -0.8142  0.1430
 5104SOL     OW15889   3.955   7.219   6.109 -0.6919 -0.0873  0.1676
 5104SOL    HW115890   3.966   7.252   6.198  0.2508 -1.7419  0.7083
 5104SOL    HW215891   4.043   7.224   6.071 -0.8034 -0.6927 -0.1802
 5105SOL     OW15892   6.425   9.089   3.214  0.3699  0.4636 -0.1284
 5105SOL    HW115893   6.454   9.005   3.249 -0.5459  0.7113  1.3130
 5105SOL    HW215894   6.334   9.074   3.188  0.4722  0.7794 -0.6819
 5106SOL     OW15895   3.187   7.943   9.162  0.2818 -0.0535 -0.0593
 5106SOL    HW115896   3.166   7.902   9.078  0.1170  0.6767 -0.3902
 5106SOL    HW215897   3.254   8.008   9.140  1.5052 -1.0290  0.6707
 5107SOL     OW15898   3.606   2.383   2.122 -0.2212  0.1093  0.2272
 5107SOL    HW115899   3.683   2.352   2.075 -0.6223 -0.2293 -0.2104
 5107SOL    HW215900   3.569   2.450   2.066  0.4154  1.1359  0.9867
 5108SOL     OW15901   2.926   6.794   8.018  0.3654 -0.3351 -0.1218
 5108SOL    HW115902   3.018   6.799   7.992  0.5314 -0.4288  0.4356
 5108SOL    HW215903   2.927   6.744   8.100 -0.0615  0.6453  0.5021
 5109SOL     OW15904   2.996   4.017   8.893 -0.1112  0.0298  0.3993
 5109SOL    HW115905   3.069   3.996   8.952 -0.3333 -0.5738  0.4589
 5109SOL    HW215906   3.026   4.095   8.846 -0.0885  0.7593  1.5802
 5110SOL     OW15907   5.251   6.759   3.639 -0.2480 -0.7230  0.3135
 5110SOL    HW115908   5.177   6.794   3.689  0.7704  1.0701  0.6364
 5110SOL    HW215909   5.251   6.665   3.658 -1.3205 -0.4543  1.7695
 5111SOL     OW15910   3.164   3.278   7.131 -0.0487 -0.2926 -0.9307
 5111SOL    HW115911   3.093   3.337   7.106 -3.0608 -2.9682  0.5508
 5111SOL    HW215912   3.149   3.198   7.080  0.5697 -1.6751  0.9166
 5112SOL     OW15913   1.531   0.044   1.664 -0.4370 -0.7383  0.1135
 5112SOL    HW115914   1.603  -0.018   1.672  1.1867  1.1394  0.8419
 5112SOL    HW215915   1.496   0.052   1.752 -0.9430 -0.9172 -0.0633
 5113SOL     OW15916   1.447   4.382   4.546 -0.2334  0.2614 -0.2292
 5113SOL    HW115917   1.540   4.405   4.539 -0.0205 -0.7285 -0.9304
 5113SOL    HW215918   1.445   4.288   4.528 -1.1963 -0.0360  1.3005
 5114SOL     OW15919   6.000   0.603   3.906 -0.1373  0.2792 -0.5164
 5114SOL    HW115920   5.992   0.619   3.812  1.1365 -0.8893 -0.8520
 5114SOL    HW215921   5.975   0.686   3.947 -0.3722  0.9083 -1.9044
 5115SOL     OW15922   9.118   8.023   5.171 -0.8109  0.1193 -0.2492
 5115SOL    HW115923   9.068   8.103   5.153 -0.8309  0.0886 -0.3305
 5115SOL    HW215924   9.175   8.013   5.095 -0.9071 -0.0187 -0.3031
 5116SOL     OW15925   6.517   7.975   3.330 -0.0808  0.1406 -0.5485
 5116SOL    HW115926   6.441   7.934   3.288  0.6620 -0.9544 -0.8867
 5116SOL    HW215927   6.495   7.978   3.423 -0.7718  0.3728 -0.7163
 5117SOL     OW15928   8.648   8.321   9.930  0.0045 -0.2222  0.8155
 5117SOL    HW115929   8.641   8.229   9.903 -1.2641  0.1735 -0.2906
 5117SOL    HW215930   8.631   8.371   9.851  0.8890  0.9939  1.3618
 5118SOL     OW15931   3.390   6.335   8.265  0.1183 -0.0329  0.6597
 5118SOL    HW115932   3.344   6.399   8.211  0.3142  0.2959  0.8835
 5118SOL    HW215933   3.367   6.250   8.226 -1.3294  0.0628  1.2564
 5119SOL     OW15934   6.607   7.115   6.148  0.6421  0.5321 -0.4457
 5119SOL    HW115935   6.531   7.081   6.196  1.4487 -0.4387  0.1695
 5119SOL    HW215936   6.644   7.040   6.103  1.2823  0.9811 -0.6892
 5120SOL     OW15937   2.130   0.305   8.542  0.3561  0.7995 -0.0638
 5120SOL    HW115938   2.204   0.357   8.572  0.5720  1.3865 -1.5247
 5120SOL    HW215939   2.169   0.236   8.488 -0.1656  1.6291 -1.5780
 5121SOL     OW15940   7.936   5.166   6.191 -0.0890  0.1628  0.1020
 5121SOL    HW115941   7.907   5.167   6.100  0.2294  0.8973  0.0010
 5121SOL    HW215942   8.000   5.095   6.194 -1.9470 -1.5671  0.3680
 5122SOL     OW15943   0.529   9.429   3.474 -0.0910  0.0089  0.6573
 5122SOL    HW115944   0.566   9.424   3.386 -0.8551  0.0152  0.3221
 5122SOL    HW215945   0.481   9.346   3.484 -3.0888  1.4540 -0.3913
 5123SOL     OW15946   7.110   1.507   4.444  0.7045 -0.4488 -0.1995
 5123SOL    HW115947   7.155   1.443   4.389  0.7409  0.3098 -1.0763
 5123SOL    HW215948   7.122   1.591   4.398 -0.1862  0.0285  0.4083
 5124SOL     OW15949   2.700   7.776   1.852  0.2973 -0.0238  0.1170
 5124SOL    HW115950   2.637   7.706   1.834  0.6967 -0.2962 -0.2396
 5124SOL    HW215951   2.784   7.731   1.864  0.2231  0.2166  1.8424
 5125SOL     OW15952   0.058   0.521   4.749 -0.7094  0.0340  0.5620
 5125SOL    HW115953   0.037   0.530   4.656  1.2471 -2.0094 -0.1500
 5125SOL    HW215954   0.113   0.597   4.768 -0.0143 -0.2403 -0.3063
 5126SOL     OW15955   8.534   2.818   4.102  0.0113  0.2578  0.4213
 5126SOL    HW115956   8.535   2.896   4.046  1.3231  1.2887  1.8058
 5126SOL    HW215957   8.474   2.758   4.058  0.1733  1.4291 -1.5119
 5127SOL     OW15958   8.566   9.836   2.844 -0.7424 -0.2640 -0.1337
 5127SOL    HW115959   8.585   9.744   2.828 -2.2765 -0.4355 -1.2348
 5127SOL    HW215960   8.640   9.883   2.806  0.4048 -1.0328  1.0704
 5128SOL     OW15961   5.030   8.288   0.165  0.2097  0.2354  1.1078
 5128SOL    HW115962   5.019   8.199   0.197 -0.6645 -0.3791 -0.7691
 5128SOL    HW215963   4.943   8.313   0.134  0.7895  1.1543  0.1675
 5129SOL     OW15964   4.776   3.683   5.788 -0.6640 -0.1160 -0.0335
 5129SOL    HW115965   4.790   3.612   5.850 -1.3084 -1.0630 -0.9289
 5129SOL    HW215966   4.688   3.669   5.754 -1.6598  2.3286  1.2427
 5130SOL     OW15967   8.818   6.536   7.966 -0.3358 -0.5579  0.4270
 5130SOL    HW115968   8.760   6.574   7.901 -0.6546 -0.3673  0.8152
 5130SOL    HW215969   8.843   6.609   8.022 -0.9111 -0.8970  1.1483
 5131SOL     OW15970   3.911   2.577   0.929 -0.3938 -0.6875 -0.2346
 5131SOL    HW115971   3.971   2.646   0.957 -1.1965  0.1464 -0.5460
 5131SOL    HW215972   3.833   2.589   0.984 -0.5600 -1.3273 -0.3208
 5132SOL     OW15973   7.223   7.087   3.849 -0.2246 -0.0431  0.1265
 5132SOL    HW115974   7.175   7.030   3.790  0.5639 -0.1656 -0.4130
 5132SOL    HW215975   7.165   7.162   3.864  0.0770  0.6644 -1.9052
 5133SOL     OW15976   4.091   7.083   8.634  0.8783 -0.0270  0.6478
 5133SOL    HW115977   4.178   7.118   8.619  0.3115  1.0475 -0.2784
 5133SOL    HW215978   4.099   6.989   8.617  1.2470  0.4527 -2.3900
 5134SOL     OW15979   7.434   0.130   7.034 -0.0468 -0.4366 -0.5446
 5134SOL    HW115980   7.474   0.215   7.050 -0.1024 -0.6533  0.8572
 5134SOL    HW215981   7.508   0.073   7.009  0.1967 -0.3117 -0.1162
 5135SOL     OW15982   7.309   3.608   0.656  0.6661 -0.0950 -0.2824
 5135SOL    HW115983   7.257   3.531   0.633 -0.3194  0.8631 -1.4698
 5135SOL    HW215984   7.343   3.590   0.744 -0.2998 -1.4741 -0.1673
 5136SOL     OW15985   3.674   3.625   7.608  0.0550  0.3340  0.9352
 5136SOL    HW115986   3.714   3.685   7.546 -1.2375 -0.2367 -0.5129
 5136SOL    HW215987   3.665   3.677   7.688  3.5813  0.4811  1.4015
 5137SOL     OW15988   4.446   1.892   5.316 -0.5732  0.5379  0.3204
 5137SOL    HW115989   4.537   1.917   5.301 -0.9776  0.9974 -1.7675
 5137SOL    HW215990   4.442   1.800   5.288 -0.7844  0.5890  0.1771
 5138SOL     OW15991   3.423   6.252   6.719 -0.3680 -0.2574 -0.6196
 5138SOL    HW115992   3.481   6.180   6.697 -0.1980  0.3865 -2.4393
 5138SOL    HW215993   3.346   6.238   6.664 -0.9305  0.2027  0.0320
 5139SOL     OW15994   8.569   7.200   0.783 -0.1371 -0.2064 -0.5318
 5139SOL    HW115995   8.575   7.261   0.857  0.6374  0.1773 -0.8993
 5139SOL    HW215996   8.477   7.203   0.757 -0.4827 -0.5615  0.5916
 5140SOL     OW15997   1.328   7.942   3.074  0.0917 -0.0099  0.2814
 5140SOL    HW115998   1.319   7.936   2.979 -0.2017 -0.4877  0.3350
 5140SOL    HW215999   1.383   7.867   3.098  0.7648  0.5129  0.4167
 5141SOL     OW16000   8.226   8.744   2.330  0.0191 -0.7676 -0.0801
 5141SOL    HW116001   8.224   8.667   2.387  1.5230  0.3611  1.6286
 5141SOL    HW216002   8.153   8.798   2.360  0.0073 -0.7639 -0.1153
 5142SOL     OW16003   3.111   2.962   8.599 -0.2681  0.4562  0.0840
 5142SOL    HW116004   3.015   2.967   8.607 -0.3097 -1.3781  1.3775
 5142SOL    HW216005   3.143   2.974   8.688  0.7789  1.6006 -0.4130
 5143SOL     OW16006   8.234   5.890   2.299 -0.3606 -0.0371 -0.5418
 5143SOL    HW116007   8.327   5.885   2.277 -0.3607 -1.2847 -0.2993
 5143SOL    HW216008   8.218   5.815   2.357 -2.1958 -1.7750 -3.0665
 5144SOL     OW16009   5.134   2.904   9.759  0.2247 -0.0730  0.0656
 5144SOL    HW116010   5.214   2.894   9.707 -0.1232  0.2069 -0.5319
 5144SOL    HW216011   5.110   2.996   9.749 -0.4380 -0.2620 -0.1568
 5145SOL     OW16012   9.378   9.227   2.946 -0.7506  0.6907  0.0593
 5145SOL    HW116013   9.461   9.190   2.978 -0.0334  2.7906  0.8266
 5145SOL    HW216014   9.381   9.214   2.851  0.6386  1.0445  0.0334
 5146SOL     OW16015   0.259   0.717   4.810 -0.7413  0.3473  0.6856
 5146SOL    HW116016   0.299   0.678   4.733 -0.9289  0.4896  0.5175
 5146SOL    HW216017   0.308   0.679   4.884 -0.5045  0.2813  0.4958
 5147SOL     OW16018   3.024   7.762   5.273 -0.0378 -0.1742  0.1762
 5147SOL    HW116019   2.988   7.678   5.301  0.9759 -0.1257  1.7535
 5147SOL    HW216020   3.119   7.747   5.268 -0.0542  0.1704 -2.1687
 5148SOL     OW16021   5.665   9.828   3.012  0.2891  0.7071  0.0135
 5148SOL    HW116022   5.662   9.919   2.983  0.2822 -0.0037 -2.4957
 5148SOL    HW216023   5.574   9.798   3.005  0.5654  0.0437 -0.9824
 5149SOL     OW16024   4.722   1.289   9.156  0.6088 -0.8908 -0.0506
 5149SOL    HW116025   4.802   1.316   9.111 -0.2052  0.6536 -0.6413
 5149SOL    HW216026   4.740   1.305   9.249  0.2179  1.7058 -0.3659
 5150SOL     OW16027   2.213   6.862   7.340 -0.0443 -0.1564 -0.2035
 5150SOL    HW116028   2.200   6.789   7.400 -1.0524  1.8627  2.2080
 5150SOL    HW216029   2.296   6.901   7.366 -0.3511  0.5813 -0.2959
 5151SOL     OW16030   5.928   2.761   5.916 -0.6754  0.7491  1.0496
 5151SOL    HW116031   5.883   2.805   5.844  0.4509  2.2166  1.1815
 5151SOL    HW216032   5.983   2.830   5.955 -1.9431  0.2801  3.9176
 5152SOL     OW16033   9.127   7.863   3.478 -0.3093 -0.1328 -0.7817
 5152SOL    HW116034   9.058   7.797   3.481 -1.1768  0.6706 -2.0613
 5152SOL    HW216035   9.201   7.818   3.438 -1.0400 -0.2462 -2.0802
 5153SOL     OW16036   2.560   3.607   0.645  0.2237 -0.4185 -0.2186
 5153SOL    HW116037   2.521   3.682   0.688  1.7422 -0.2442  0.9397
 5153SOL    HW216038   2.486   3.550   0.623 -0.7432  0.3116  1.0292
 5154SOL     OW16039   8.161   0.194   9.433  0.1586 -0.3509 -0.2274
 5154SOL    HW116040   8.168   0.254   9.359 -3.6669  1.4115  0.5933
 5154SOL    HW216041   8.141   0.109   9.394 -2.0705  0.6032 -1.2889
 5155SOL     OW16042   9.917   7.741   3.562  0.2158  0.0289  0.0836
 5155SOL    HW116043   9.909   7.773   3.651  1.5117  0.3411  0.1101
 5155SOL    HW216044   9.953   7.815   3.513  2.6413 -1.1143  0.0106
 5156SOL     OW16045   3.519   0.438   4.875 -0.8540  0.3673 -0.1596
 5156SOL    HW116046   3.554   0.349   4.878 -2.0589 -0.1353 -0.2083
 5156SOL    HW216047   3.500   0.459   4.966  1.2937  1.3901  0.1067
 5157SOL     OW16048   8.143   9.152   6.456  0.0405 -0.0637  0.1987
 5157SOL    HW116049   8.178   9.216   6.393  1.7840 -2.1538 -1.0821
 5157SOL    HW216050   8.192   9.168   6.536 -0.1777  0.7593  0.1835
 5158SOL     OW16051   1.836   6.183   8.936 -0.4868  0.0669  0.0029
 5158SOL    HW116052   1.789   6.179   8.852  0.2109 -1.5239 -0.3551
 5158SOL    HW216053   1.902   6.250   8.923 -1.1129  0.6398 -0.3168
 5159SOL     OW16054   7.690   0.732   6.422  0.0192 -0.5100  0.0400
 5159SOL    HW116055   7.663   0.815   6.384 -2.3223 -2.3508 -2.7750
 5159SOL    HW216056   7.618   0.709   6.482 -0.1073 -1.1467 -0.3403
 5160SOL     OW16057   0.920   1.833   1.077 -0.5908 -0.3029  0.6066
 5160SOL    HW116058   1.002   1.882   1.080 -0.4739 -0.5169  1.7326
 5160SOL    HW216059   0.896   1.823   1.170 -2.0406  0.0102  0.2803
 5161SOL     OW16060   0.426   7.563   0.656  0.0735  0.2307 -0.3905
 5161SOL    HW116061   0.358   7.543   0.592 -0.6322  1.3634 -0.0474
 5161SOL    HW216062   0.483   7.626   0.612 -0.5849  1.2442  0.1476
 5162SOL     OW16063   0.513   6.662   8.559 -0.3793 -0.4520  0.5525
 5162SOL    HW116064   0.477   6.682   8.645 -2.1836 -0.4577 -0.1590
 5162SOL    HW216065   0.607   6.681   8.567 -0.7446  0.9521  2.0913
 5163SOL     OW16066   3.969   7.572   9.149 -0.1302 -0.4838  0.0614
 5163SOL    HW116067   3.888   7.534   9.115 -0.0949  1.0808 -1.9324
 5163SOL    HW216068   4.028   7.575   9.074  1.4064 -0.5134  1.2063
 5164SOL     OW16069   6.910   8.184   3.659  0.1003 -0.8761  0.2444
 5164SOL    HW116070   6.883   8.093   3.665  1.0568 -1.0937  2.6995
 5164SOL    HW216071   6.830   8.235   3.675 -0.0460 -1.3573  1.0929
 5165SOL     OW16072   7.593   7.135   7.507  0.7102  0.1284  0.0879
 5165SOL    HW116073   7.515   7.183   7.533  1.0299 -0.1283  1.6227
 5165SOL    HW216074   7.585   7.125   7.412 -1.4324 -0.4547  0.2873
 5166SOL     OW16075   1.886   9.170   6.175  0.0365 -0.4655 -0.0322
 5166SOL    HW116076   1.943   9.239   6.207 -0.9659  0.3470  0.0544
 5166SOL    HW216077   1.801   9.212   6.164 -0.4029 -1.4908 -0.7581
 5167SOL     OW16078   1.427   8.630   4.175  0.4368 -0.1219  0.4895
 5167SOL    HW116079   1.389   8.546   4.149 -0.3839  0.8245 -1.6547
 5167SOL    HW216080   1.382   8.652   4.256  1.2220 -2.0656  1.5146
 5168SOL     OW16081   1.073   0.077   5.646  0.3876 -0.4692  0.1751
 5168SOL    HW116082   1.094   0.163   5.611  0.7485 -1.1481 -1.3825
 5168SOL    HW216083   1.149   0.054   5.700  0.9331 -0.4055 -0.5597
 5169SOL     OW16084   6.740   3.769   9.869  0.3546  0.3378  0.3637
 5169SOL    HW116085   6.773   3.842   9.920 -1.3076  1.3241  0.0882
 5169SOL    HW216086   6.645   3.780   9.868  0.1950 -0.7112 -1.3326
 5170SOL     OW16087   1.786   7.815   0.042 -0.1369  0.5294 -0.3081
 5170SOL    HW116088   1.764   7.859  -0.039 -0.0387  0.9028 -0.1339
 5170SOL    HW216089   1.880   7.795   0.035  0.1941  1.7537  0.2588
 5171SOL     OW16090   6.102   3.272   2.208 -0.2746  0.1335  0.8077
 5171SOL    HW116091   6.109   3.330   2.284  0.2312  0.0451  0.8324
 5171SOL    HW216092   6.039   3.205   2.234 -2.3810  1.7243  0.0944
 5172SOL     OW16093   0.320   3.184   9.301  0.5781 -0.2462  0.6520
 5172SOL    HW116094   0.279   3.205   9.385 -1.9249 -0.7181 -0.3613
 5172SOL    HW216095   0.413   3.175   9.322  0.4907  2.3900  2.8481
 5173SOL     OW16096   5.375   7.998   9.665 -0.1091  0.4025 -0.1689
 5173SOL    HW116097   5.359   7.921   9.721  0.1294 -0.7764 -1.6541
 5173SOL    HW216098   5.467   8.020   9.682 -0.9754  2.4419  2.6552
 5174SOL     OW16099   0.407   9.354   0.364 -0.1581  0.2043 -0.1384
 5174SOL    HW116100   0.369   9.331   0.449  1.1064 -1.0753  0.1146
 5174SOL    HW216101   0.497   9.378   0.384  0.3872 -0.8542 -1.1702
 5175SOL     OW16102   9.437   3.498   3.000 -0.2273  0.1657  0.2849
 5175SOL    HW116103   9.375   3.513   3.071 -1.5051  0.4669 -0.8556
 5175SOL    HW216104   9.411   3.560   2.931  0.2115 -0.9359 -0.9171
 5176SOL     OW16105   9.142   8.665   5.545 -0.3831  0.3532  0.0418
 5176SOL    HW116106   9.073   8.612   5.504 -0.0799  0.0047 -0.0233
 5176SOL    HW216107   9.223   8.638   5.501 -0.2003  0.7543  0.1217
 5177SOL     OW16108   2.301   8.453   1.771  0.4351  0.5253  0.1802
 5177SOL    HW116109   2.285   8.362   1.796  0.5794  0.5213  0.2557
 5177SOL    HW216110   2.259   8.505   1.839 -0.0670  0.5204 -0.1180
 5178SOL     OW16111   9.577   7.124   1.055  0.0078 -0.0672 -0.1267
 5178SOL    HW116112   9.582   7.035   1.021  0.2798  0.5227 -1.7276
 5178SOL    HW216113   9.484   7.139   1.069  0.0359 -0.9446  1.1914
 5179SOL     OW16114   4.869   1.461   0.868 -0.0069 -0.1495  0.2516
 5179SOL    HW116115   4.776   1.481   0.878 -0.7331 -1.6686 -2.2944
 5179SOL    HW216116   4.886   1.475   0.775  2.2360 -0.2532  0.5999
 5180SOL     OW16117   8.089   2.895   1.372  0.3231  0.1191  0.1232
 5180SOL    HW116118   8.178   2.887   1.406  0.3173 -0.3259  0.0395
 5180SOL    HW216119   8.045   2.953   1.435  1.4964  2.9766 -1.4801
 5181SOL     OW16120   7.286   7.658   3.537  0.3584  0.3534  0.9181
 5181SOL    HW116121   7.380   7.662   3.553  0.7239  0.0219 -0.9257
 5181SOL    HW216122   7.278   7.652   3.442 -1.5924  2.1428  0.8958
 5182SOL     OW16123   9.841   1.124   9.269  0.5555 -0.1448 -0.2062
 5182SOL    HW116124   9.868   1.082   9.188  0.6403  0.8816 -0.7228
 5182SOL    HW216125   9.746   1.133   9.262  0.2993 -1.8091  0.6753
 5183SOL     OW16126   5.445   7.190   5.028  0.0570 -0.3463 -0.4574
 5183SOL    HW116127   5.432   7.279   4.994  1.6744 -0.3464 -1.1604
 5183SOL    HW216128   5.449   7.202   5.123 -0.5684  0.2132 -0.4962
 5184SOL     OW16129   5.949   7.715   7.470 -0.1281  0.4615  0.2740
 5184SOL    HW116130   5.889   7.655   7.426 -1.0556 -0.1369  2.2202
 5184SOL    HW216131   5.950   7.685   7.561 -1.0903  3.6826  1.4951
 5185SOL     OW16132   4.480   7.392   1.959  0.0982 -0.0082  0.0563
 5185SOL    HW116133   4.438   7.477   1.948  0.3451  0.2833  1.2114
 5185SOL    HW216134   4.433   7.352   2.032  0.3928 -0.5976 -0.0727
 5186SOL     OW16135   8.766   8.554   6.836 -0.1594 -0.1114 -0.0582
 5186SOL    HW116136   8.813   8.593   6.763  0.4914 -0.8651 -0.0612
 5186SOL    HW216137   8.823   8.482   6.865 -0.6679 -0.1714  0.8282
 5187SOL     OW16138   0.811   8.607   4.801 -0.1765 -0.0572  0.0666
 5187SOL    HW116139   0.824   8.522   4.841 -2.4005 -0.0743  0.8615
 5187SOL    HW216140   0.884   8.660   4.833  1.6788 -1.7886 -1.0374
 5188SOL     OW16141   5.502   7.547   6.923  0.1948  0.1601  0.1474
 5188SOL    HW116142   5.585   7.591   6.943 -0.1005  0.6188  0.3835
 5188SOL    HW216143   5.505   7.466   6.973  2.0837 -1.6609 -2.5677
 5189SOL     OW16144   2.040   1.733   2.317  0.5318  0.8168 -0.1637
 5189SOL    HW116145   2.058   1.761   2.227 -0.8075  2.0352 -0.1020
 5189SOL    HW216146   1.969   1.669   2.309 -0.0781  1.4461  0.0381
 5190SOL     OW16147   2.342   1.370   8.747  0.5056 -0.2029 -0.0486
 5190SOL    HW116148   2.351   1.277   8.769 -1.4478 -0.6849 -1.0244
 5190SOL    HW216149   2.351   1.373   8.652  0.1081  0.5306 -0.0698
 5191SOL     OW16150   2.947   2.692   8.255 -0.1262 -0.0121 -0.1663
 5191SOL    HW116151   2.905   2.778   8.255 -1.2825 -0.5578  0.5651
 5191SOL    HW216152   3.011   2.696   8.326  0.6476  0.5971 -0.8616
 5192SOL     OW16153   4.586   5.681   0.773  0.6693  0.1952  0.3159
 5192SOL    HW116154   4.595   5.685   0.678  0.2364 -0.1260  0.2544
 5192SOL    HW216155   4.622   5.595   0.796  1.4736  0.5805  0.5359
 5193SOL     OW16156   2.961   8.995   9.124  0.4013 -0.5623 -0.2952
 5193SOL    HW116157   2.966   9.048   9.204 -0.2580  0.0830 -0.6646
 5193SOL    HW216158   3.026   9.034   9.066 -2.0174  1.7892 -1.6434
 5194SOL     OW16159   9.983   6.289   6.611  0.1867 -0.0742 -0.0652
 5194SOL    HW116160  10.051   6.344   6.573 -0.3395 -0.9605 -2.5096
 5194SOL    HW216161   9.907   6.346   6.618  1.1323  0.9722  2.8608
 5195SOL     OW16162   2.152   8.259   4.777  0.5098  0.5042 -0.2507
 5195SOL    HW116163   2.106   8.342   4.764  0.5623  0.3909 -1.2326
 5195SOL    HW216164   2.244   8.280   4.759  0.3607 -0.0193 -1.6915
 5196SOL     OW16165   7.588   3.857   9.185 -0.0687  0.2266 -0.1055
 5196SOL    HW116166   7.684   3.849   9.182  0.0333  0.1266  2.0918
 5196SOL    HW216167   7.572   3.935   9.238 -1.2132 -0.2640  0.2990
 5197SOL     OW16168   4.158   3.568   6.763  0.1161 -0.1239  0.3290
 5197SOL    HW116169   4.186   3.659   6.767 -0.7563  0.2389 -0.9409
 5197SOL    HW216170   4.103   3.556   6.841 -0.0337  0.5437  0.3320
 5198SOL     OW16171   6.419   1.831   1.848 -0.1176 -0.8642 -0.0483
 5198SOL    HW116172   6.420   1.736   1.841  0.3785 -0.8467 -0.1934
 5198SOL    HW216173   6.487   1.851   1.912 -0.9411 -0.6699  0.8029
 5199SOL     OW16174   0.100   0.612   2.123  0.4827 -0.4246  0.3238
 5199SOL    HW116175   0.033   0.680   2.132  1.2540  0.3264  0.5408
 5199SOL    HW216176   0.070   0.540   2.178 -0.1139 -0.0743  0.4594
 5200SOL     OW16177   1.138   0.922   6.652  0.1638 -0.2285 -0.5597
 5200SOL    HW116178   1.197   0.896   6.722 -0.1902 -0.7119 -0.4339
 5200SOL    HW216179   1.148   0.855   6.585  0.5879  0.2936 -1.0281
 5201SOL     OW16180   4.041   4.798   8.133 -0.2965 -0.1701 -0.1329
 5201SOL    HW116181   4.098   4.817   8.058  1.6668  1.6500  1.6653
 5201SOL    HW216182   3.953   4.819   8.102  0.4200  0.4106 -1.9358
 5202SOL     OW16183   0.240   0.579   8.081 -0.0067 -0.4349 -0.0797
 5202SOL    HW116184   0.334   0.584   8.101  0.3179 -2.0765 -1.0457
 5202SOL    HW216185   0.215   0.490   8.106 -1.3184 -0.0230  0.1390
 5203SOL     OW16186   9.496   4.367   8.522  0.2552  0.8879  0.0752
 5203SOL    HW116187   9.526   4.454   8.498 -1.1263  1.3158 -0.1914
 5203SOL    HW216188   9.403   4.378   8.544  0.8276  0.1490  3.4776
 5204SOL     OW16189   7.921   2.818   5.922  0.3316 -0.0883  0.3751
 5204SOL    HW116190   7.978   2.771   5.983 -0.0175  0.4530  1.1461
 5204SOL    HW216191   7.851   2.853   5.978  0.2565  0.8175 -0.2698
 5205SOL     OW16192   3.198   7.887   9.424 -0.1296  0.3340 -0.2385
 5205SOL    HW116193   3.261   7.815   9.433 -0.7857 -0.1873  0.4289
 5205SOL    HW216194   3.194   7.905   9.330  0.2827 -0.2907 -0.3821
 5206SOL     OW16195   8.519   9.226   1.626 -0.0171  0.4499 -0.2640
 5206SOL    HW116196   8.580   9.158   1.654 -1.3382 -0.4620  0.5623
 5206SOL    HW216197   8.522   9.291   1.696 -1.4171 -0.5753  0.8116
 5207SOL     OW16198   2.539   7.872   2.057 -0.6112 -0.1728 -0.0747
 5207SOL    HW116199   2.466   7.810   2.060  0.1179 -1.0487  0.1853
 5207SOL    HW216200   2.609   7.824   2.012  0.7103 -0.3886  2.0260
 5208SOL     OW16201   6.441   2.650   3.434 -0.2980  0.3882  0.1715
 5208SOL    HW116202   6.346   2.654   3.447 -0.0861  0.7417  1.9148
 5208SOL    HW216203   6.453   2.657   3.339 -1.9257  2.5566  0.0499
 5209SOL     OW16204   2.712   7.411   6.926  0.0610  0.5288  0.2969
 5209SOL    HW116205   2.651   7.471   6.970  0.8186  0.1997  1.8382
 5209SOL    HW216206   2.796   7.427   6.968  0.5956 -0.5418 -0.3344
 5210SOL     OW16207   5.502   8.255   5.802 -0.0414  0.1175 -0.1720
 5210SOL    HW116208   5.557   8.259   5.880 -0.2460 -1.2287  0.0675
 5210SOL    HW216209   5.550   8.198   5.742 -0.2722  0.4917 -0.7200
 5211SOL     OW16210   6.203   6.301   8.038  0.5210 -0.3336 -0.3109
 5211SOL    HW116211   6.118   6.346   8.045  0.7670 -0.0870  1.8928
 5211SOL    HW216212   6.184   6.223   7.986 -0.7486  0.3785 -0.9972
 5212SOL     OW16213   3.287   5.193   5.850  0.5919  0.3509  0.4490
 5212SOL    HW116214   3.292   5.098   5.850  0.5391  0.3293  1.9993
 5212SOL    HW216215   3.372   5.222   5.817 -0.0446 -0.1971 -1.9075
 5213SOL     OW16216   1.394   3.178   3.292  0.2361  0.0098  0.0110
 5213SOL    HW116217   1.393   3.219   3.379 -2.0943 -0.5943  0.3213
 5213SOL    HW216218   1.371   3.087   3.308  4.8596 -1.5700 -0.7294
 5214SOL     OW16219   6.676   4.854   1.413  0.1524  0.2433 -0.5719
 5214SOL    HW116220   6.631   4.822   1.491 -0.6321  2.4430 -0.0565
 5214SOL    HW216221   6.742   4.915   1.446  1.3332 -0.4620 -1.5260
 5215SOL     OW16222   7.518   6.142   9.603 -0.3648 -0.2388 -0.6462
 5215SOL    HW116223   7.528   6.158   9.509 -0.2708  1.6361 -0.3540
 5215SOL    HW216224   7.594   6.185   9.643 -0.6847 -0.5481  0.3265
 5216SOL     OW16225   6.257   6.411   3.277  0.3688  0.3692 -0.0009
 5216SOL    HW116226   6.268   6.337   3.216  0.0018  0.3533 -0.0459
 5216SOL    HW216227   6.271   6.373   3.364  0.4739  0.3063 -0.0454
 5217SOL     OW16228   2.028   7.076   3.123  0.3518 -0.5113 -0.0121
 5217SOL    HW116229   2.014   6.986   3.152  1.1784 -1.5009 -2.3937
 5217SOL    HW216230   2.123   7.083   3.112  0.3386  0.8052  0.5079
 5218SOL     OW16231   9.479   7.202   2.943 -0.3680  0.4864 -0.4337
 5218SOL    HW116232   9.448   7.137   3.006 -0.3128  0.4609 -0.4328
 5218SOL    HW216233   9.445   7.172   2.858 -0.0657  0.2738 -0.4828
 5219SOL     OW16234   8.748   5.046   1.092  0.1152 -0.0747  0.1422
 5219SOL    HW116235   8.738   5.121   1.034 -0.7972 -0.6927 -0.5323
 5219SOL    HW216236   8.695   4.977   1.052 -0.6558 -0.4899  1.7768
 5220SOL     OW16237   2.068   6.333   0.341  0.2210 -0.1391 -0.2917
 5220SOL    HW116238   2.138   6.290   0.389  0.8906  0.8760 -0.3328
 5220SOL    HW216239   2.105   6.350   0.254  0.7440  2.3765  0.3578
 5221SOL     OW16240   1.263   3.408   8.309 -0.1102  0.6808  0.4503
 5221SOL    HW116241   1.334   3.445   8.360  1.4990 -0.3831 -0.8822
 5221SOL    HW216242   1.204   3.369   8.374  0.2170  2.0605  1.6136
 5222SOL     OW16243   2.856   7.476   1.371  0.1334  0.3819 -0.2362
 5222SOL    HW116244   2.791   7.421   1.413 -1.0286  0.3189 -2.0272
 5222SOL    HW216245   2.929   7.417   1.351 -0.5184 -0.2147 -0.8902
 5223SOL     OW16246   3.051   9.655   9.647  0.3295  0.2634  0.2083
 5223SOL    HW116247   3.054   9.751   9.653  0.0432  0.4680 -2.0111
 5223SOL    HW216248   2.960   9.633   9.664  0.6337  0.2463  1.9327
 5224SOL     OW16249   6.605   4.143   7.293  1.0144  0.4538  0.4992
 5224SOL    HW116250   6.566   4.143   7.380  0.7574 -1.4929  0.4367
 5224SOL    HW216251   6.626   4.051   7.276 -0.1673  0.5493 -2.0253
 5225SOL     OW16252   5.785   3.776   4.521 -0.4366 -0.4537 -0.1492
 5225SOL    HW116253   5.784   3.681   4.524 -0.8761 -0.4252  2.0795
 5225SOL    HW216254   5.825   3.803   4.604 -0.1314  1.3025 -0.8114
 5226SOL     OW16255   9.973   5.083   6.910 -0.3570 -0.0097 -0.2476
 5226SOL    HW116256  10.007   5.081   6.999  0.5998  1.0324 -0.5638
 5226SOL    HW216257   9.879   5.096   6.920 -0.2421  0.1938  0.6183
 5227SOL     OW16258   8.543   9.025   8.546  0.3579  0.4415 -0.1177
 5227SOL    HW116259   8.534   9.101   8.603  0.2153  2.1389 -2.2615
 5227SOL    HW216260   8.635   8.999   8.553  0.3209  0.5653  0.9000
 5228SOL     OW16261   1.864   8.615   5.076 -0.6709 -0.1509  0.3602
 5228SOL    HW116262   1.942   8.648   5.031 -0.2776  0.3128  1.3538
 5228SOL    HW216263   1.897   8.575   5.156 -1.3167 -1.4122  0.0162
 5229SOL     OW16264   3.413   8.348   7.187 -0.2939  0.2566  0.0246
 5229SOL    HW116265   3.388   8.384   7.102 -3.6231 -1.2198  0.2082
 5229SOL    HW216266   3.455   8.265   7.167  0.4974  0.7034 -0.1973
 5230SOL     OW16267   9.568   8.521   6.924  0.6019  0.1790 -0.2846
 5230SOL    HW116268   9.473   8.524   6.927  0.5708  0.3647 -1.1627
 5230SOL    HW216269   9.589   8.428   6.910  0.5171  0.2181 -0.7038
 5231SOL     OW16270   1.212   0.612   0.585  0.0502 -0.0148 -0.3794
 5231SOL    HW116271   1.158   0.606   0.664 -0.3862  0.2605 -0.6583
 5231SOL    HW216272   1.301   0.624   0.618 -0.2905  1.4216  0.0674
 5232SOL     OW16273   0.286   0.579   9.759 -0.0545  0.1457 -0.0447
 5232SOL    HW116274   0.369   0.541   9.730  0.8769 -0.1193  2.7451
 5232SOL    HW216275   0.223   0.507   9.752  0.8191 -0.8074  1.3671
 5233SOL     OW16276   2.643   0.561   3.992  0.4023  0.0245  0.3503
 5233SOL    HW116277   2.602   0.623   3.932  3.0683 -0.2320 -1.9556
 5233SOL    HW216278   2.708   0.614   4.040  1.5568 -0.5988 -0.4663
 5234SOL     OW16279   3.882   3.746   1.114  0.2171 -0.1327 -0.3555
 5234SOL    HW116280   3.788   3.725   1.121 -0.0817  1.0503 -0.6796
 5234SOL    HW216281   3.886   3.841   1.123  1.1584  0.0753 -2.3978
 5235SOL     OW16282   6.703   2.539   2.386  0.2993 -0.2302  0.0041
 5235SOL    HW116283   6.639   2.473   2.358  2.0853 -2.3184  0.5850
 5235SOL    HW216284   6.685   2.614   2.330 -1.9963 -1.0730 -0.5203
 5236SOL     OW16285   0.570   7.440   4.856  0.2253 -1.0916 -0.0615
 5236SOL    HW116286   0.602   7.360   4.899 -1.2256 -0.9647  1.3589
 5236SOL    HW216287   0.650   7.483   4.824  1.1748 -2.3023  0.5629
 5237SOL     OW16288   7.480   4.510   8.649 -0.3526 -0.3200 -0.2223
 5237SOL    HW116289   7.450   4.494   8.560 -1.0491  1.0450 -0.2592
 5237SOL    HW216290   7.470   4.604   8.662  2.4548  0.0178  0.3061
 5238SOL     OW16291   7.663   4.004   2.949 -0.2681 -0.0548 -0.6967
 5238SOL    HW116292   7.604   3.944   2.904 -0.2376  0.4403 -1.4216
 5238SOL    HW216293   7.711   4.047   2.878  0.9595 -0.4427 -0.1232
 5239SOL     OW16294   7.438   0.472   3.573 -0.0427  0.2680 -0.4464
 5239SOL    HW116295   7.491   0.418   3.631  1.6254  2.2662  0.0025
 5239SOL    HW216296   7.388   0.409   3.521 -0.6642 -1.6420  2.2192
 5240SOL     OW16297   8.550   5.574   6.486 -0.4130  0.7892  0.0276
 5240SOL    HW116298   8.576   5.568   6.394  1.1781  1.6553  0.3763
 5240SOL    HW216299   8.583   5.493   6.525 -3.4223 -0.8762 -0.6129
 5241SOL     OW16300   2.219   2.890   7.602 -0.1763  0.1728 -0.2144
 5241SOL    HW116301   2.181   2.860   7.520  2.6650 -4.4880 -0.1776
 5241SOL    HW216302   2.309   2.914   7.579 -0.1843  1.6456  1.1385
 5242SOL     OW16303   1.564   3.492   4.851  0.1815 -0.4353 -0.0856
 5242SOL    HW116304   1.489   3.541   4.818 -0.2935  0.2212  1.8392
 5242SOL    HW216305   1.616   3.556   4.899  0.7289 -1.3372  0.5767
 5243SOL     OW16306   1.605   9.426   4.361  0.4999 -0.2941 -0.2783
 5243SOL    HW116307   1.570   9.472   4.438  0.1889 -0.3165 -0.4046
 5243SOL    HW216308   1.661   9.357   4.398  0.8895  0.1176 -0.0877
 5244SOL     OW16309   6.528   9.950   7.174 -0.1653  0.2277 -0.2483
 5244SOL    HW116310   6.601  10.011   7.169 -0.9271  1.1605 -0.3388
 5244SOL    HW216311   6.545   9.885   7.105  1.1479 -0.2458  0.4846
 5245SOL     OW16312   3.599   3.318   7.754 -0.4655  0.0923 -0.0792
 5245SOL    HW116313   3.677   3.300   7.701  0.1048  3.6339 -0.7049
 5245SOL    HW216314   3.633   3.350   7.837 -1.3326 -0.9468  0.7097
 5246SOL     OW16315   9.639   8.297   5.173 -0.0943 -0.4205 -0.0570
 5246SOL    HW116316   9.703   8.321   5.107 -1.1479  2.4162 -0.1893
 5246SOL    HW216317   9.679   8.321   5.256 -0.7031  0.8334 -0.1001
 5247SOL     OW16318   8.443   9.834   9.205 -0.1409  0.2497  0.1368
 5247SOL    HW116319   8.477   9.782   9.132 -2.2318 -1.6873  0.4368
 5247SOL    HW216320   8.498   9.912   9.206  0.1973  0.2146 -3.2866
 5248SOL     OW16321   7.445   2.489   6.757 -0.0087 -0.4211 -0.3012
 5248SOL    HW116322   7.396   2.484   6.839 -0.8145 -0.4214 -0.7691
 5248SOL    HW216323   7.420   2.409   6.710 -0.8786  0.4037 -1.2672
 5249SOL     OW16324   8.059   1.296   7.005  0.0388  0.6116  0.0643
 5249SOL    HW116325   8.071   1.365   6.939 -1.1128 -1.6225 -2.6491
 5249SOL    HW216326   7.990   1.241   6.970  1.3667 -2.3491  1.7612
 5250SOL     OW16327   3.693   5.916   5.351  0.1693  0.3013 -0.3097
 5250SOL    HW116328   3.752   5.845   5.377  0.5965  0.1946 -1.5203
 5250SOL    HW216329   3.608   5.889   5.385  0.5687 -0.1552  0.3681
 5251SOL     OW16330   2.422   8.678   1.995 -0.4831  0.1498 -0.3307
 5251SOL    HW116331   2.500   8.646   1.949 -0.7539 -0.4889 -0.3586
 5251SOL    HW216332   2.367   8.600   2.006 -1.4355  0.7156 -0.9299
 5252SOL     OW16333   6.309   3.192   2.456  0.1605 -0.1014  0.5836
 5252SOL    HW116334   6.253   3.117   2.437  0.1924 -0.9605  3.4444
 5252SOL    HW216335   6.259   3.268   2.427 -0.8832 -1.0611 -0.2155
 5253SOL     OW16336   3.151   6.931   4.278 -0.5634  0.2382 -0.2036
 5253SOL    HW116337   3.224   6.982   4.243 -0.1689 -1.1044 -1.3896
 5253SOL    HW216338   3.073   6.976   4.246 -0.2253  0.3336 -0.9100
 5254SOL     OW16339   9.119   4.777   0.398  0.6727  0.5877  0.0044
 5254SOL    HW116340   9.087   4.800   0.311 -1.8221 -2.7422 -0.1776
 5254SOL    HW216341   9.082   4.690   0.415  4.6718 -0.9034  2.6161
 5255SOL     OW16342   5.219   7.943   1.431 -0.8133  0.1867 -0.0761
 5255SOL    HW116343   5.237   7.977   1.519 -0.8971  0.0355  0.0014
 5255SOL    HW216344   5.304   7.939   1.389 -0.9885  2.0919 -0.6844
 5256SOL     OW16345   7.034   2.086   6.937  0.1932  0.6865  0.5160
 5256SOL    HW116346   6.945   2.117   6.951  0.1246  1.5780 -1.5896
 5256SOL    HW216347   7.047   2.021   7.006 -2.5397 -0.3940  0.1554
 5257SOL     OW16348   9.955   7.499   5.878 -0.8195  0.3814  0.1317
 5257SOL    HW116349   9.903   7.430   5.920 -0.9208  1.1770  1.3500
 5257SOL    HW216350  10.005   7.538   5.949 -0.9267  1.7206 -0.5070
 5258SOL     OW16351   6.463   9.373   0.315 -0.5071 -0.0204  0.0352
 5258SOL    HW116352   6.381   9.336   0.348 -0.3036  1.2055  2.0404
 5258SOL    HW216353   6.441   9.463   0.291  0.0431  0.0097 -0.3797
 5259SOL     OW16354   6.418   8.240   1.809 -0.1214  0.0166 -0.0911
 5259SOL    HW116355   6.513   8.233   1.824 -0.2127 -0.6802  0.1770
 5259SOL    HW216356   6.382   8.263   1.895 -0.1561  0.7131 -0.2860
 5260SOL     OW16357   8.616   4.295   6.093 -0.2245  0.0089  0.1433
 5260SOL    HW116358   8.676   4.228   6.060  0.7735  1.5615 -1.3413
 5260SOL    HW216359   8.657   4.326   6.174  0.2765  0.1348 -0.1602
 5261SOL     OW16360   2.600   9.046   0.950 -0.0663  0.2575  0.2929
 5261SOL    HW116361   2.534   8.977   0.952 -0.6803  0.8519  0.7211
 5261SOL    HW216362   2.633   9.050   1.040  0.6146 -0.0877  0.0664
 5262SOL     OW16363   2.186   7.616   7.366  0.2804  0.5167 -0.6368
 5262SOL    HW116364   2.178   7.521   7.352 -0.1989 -0.0490  2.7346
 5262SOL    HW216365   2.278   7.630   7.387  0.0082  0.4942  0.6037
 5263SOL     OW16366   9.294   9.830   3.184  0.5652  0.1999  0.1116
 5263SOL    HW116367   9.383   9.805   3.160  1.6306  2.1999  1.7303
 5263SOL    HW216368   9.301   9.921   3.212 -1.5603 -0.2933  2.5675
 5264SOL     OW16369   2.821   5.243   1.438  0.3766 -0.1475  0.1212
 5264SOL    HW116370   2.899   5.272   1.485 -0.2949  0.0997  1.1042
 5264SOL    HW216371   2.784   5.324   1.403  2.0852 -0.5036 -2.8651
 5265SOL     OW16372   3.583   9.826   0.175 -0.0540  0.2146 -0.0734
 5265SOL    HW116373   3.567   9.882   0.251 -1.9494 -0.0974 -0.1958
 5265SOL    HW216374   3.657   9.772   0.201 -0.7433  0.0113  1.6441
 5266SOL     OW16375   4.208   5.915   6.679 -0.0092 -0.5342 -0.2309
 5266SOL    HW116376   4.255   5.917   6.596  1.2961 -0.9558  0.4689
 5266SOL    HW216377   4.255   5.979   6.734 -2.1870  1.3951 -0.4672
 5267SOL     OW16378   8.880   2.640   8.525 -0.3724  0.0407  0.7556
 5267SOL    HW116379   8.842   2.579   8.461 -0.9839 -1.3250  2.3467
 5267SOL    HW216380   8.811   2.703   8.542 -1.4001 -1.4106  2.3184
 5268SOL     OW16381   4.301   1.190   3.927 -0.1627 -0.2323  0.1473
 5268SOL    HW116382   4.286   1.220   3.837  1.3688  0.0448 -0.0516
 5268SOL    HW216383   4.216   1.196   3.969 -0.2544  3.2245 -0.2532
 5269SOL     OW16384   9.009   5.624   6.370  0.3766  0.4068 -0.0948
 5269SOL    HW116385   9.005   5.530   6.390  0.9589  0.6003  0.9889
 5269SOL    HW216386   9.087   5.634   6.316  1.4861  0.5358  1.4793
 5270SOL     OW16387   2.785   1.070   2.716  0.0648 -0.4780 -0.0639
 5270SOL    HW116388   2.754   1.161   2.724 -2.1968 -1.2510  0.7434
 5270SOL    HW216389   2.790   1.039   2.806 -1.2557 -1.7597 -0.3934
 5271SOL     OW16390   5.966   0.048   7.034  0.5650 -0.7187  0.7393
 5271SOL    HW116391   5.954   0.103   7.112 -0.5507 -0.6012  0.4927
 5271SOL    HW216392   5.878   0.027   7.005  0.9581 -2.5669  0.7528
 5272SOL     OW16393   6.167   4.710   8.961  0.7335 -0.0277  0.2334
 5272SOL    HW116394   6.203   4.776   8.903  0.2216 -0.3428 -0.4573
 5272SOL    HW216395   6.176   4.628   8.913  0.8270 -0.3849  0.8388
 5273SOL     OW16396   9.718   7.934   7.612  0.3043  0.2927 -0.1961
 5273SOL    HW116397   9.670   8.001   7.562 -1.7045 -1.1244 -0.2766
 5273SOL    HW216398   9.690   7.947   7.702 -0.4237 -0.6739 -0.2728
 5274SOL     OW16399   3.231   9.375   0.536 -0.2089 -0.2007  0.2627
 5274SOL    HW116400   3.161   9.386   0.599 -0.2031 -0.5712  0.3395
 5274SOL    HW216401   3.259   9.464   0.514 -1.1820 -0.0202 -0.3123
 5275SOL     OW16402   5.093   8.181   5.942 -0.8475 -0.5630 -0.1040
 5275SOL    HW116403   5.047   8.179   5.858 -0.8060  1.2660 -0.2083
 5275SOL    HW216404   5.134   8.095   5.949 -1.6974 -1.1130 -1.4693
 5276SOL     OW16405   1.710   9.657   4.921  0.1326 -0.0895 -0.1654
 5276SOL    HW116406   1.805   9.657   4.906  0.2355  2.1185  0.2106
 5276SOL    HW216407   1.677   9.725   4.862 -1.0979 -0.1731  0.4052
 5277SOL     OW16408   2.786   3.439   9.484 -0.7089  0.1569  0.5654
 5277SOL    HW116409   2.769   3.447   9.391  1.2175 -1.1949  0.0398
 5277SOL    HW216410   2.703   3.463   9.526 -2.4631 -1.6848 -1.5807
 5278SOL     OW16411   0.982   2.642   5.270  0.2966  0.4027 -0.4846
 5278SOL    HW116412   1.026   2.620   5.352  0.5455  0.8878 -0.4844
 5278SOL    HW216413   0.899   2.682   5.297  1.2737  2.4729 -0.4125
 5279SOL     OW16414   3.651   3.989   1.776 -0.2285 -0.0559  0.1867
 5279SOL    HW116415   3.620   3.900   1.756 -0.3209  0.1959 -0.8686
 5279SOL    HW216416   3.570   4.039   1.790 -0.2355  0.1124 -0.4005
 5280SOL     OW16417   8.847   8.736   2.394 -0.0575  0.5556 -0.2281
 5280SOL    HW116418   8.839   8.829   2.418  0.3188 -0.0021  2.2951
 5280SOL    HW216419   8.777   8.693   2.442  1.4372 -0.8103  0.7900
 5281SOL     OW16420   3.962   5.401   1.059 -0.9097 -0.2796 -0.2087
 5281SOL    HW116421   4.058   5.397   1.056 -0.9601 -0.9680 -1.0272
 5281SOL    HW216422   3.943   5.440   1.145  0.0882 -0.7636  0.2506
 5282SOL     OW16423   8.915   2.397   3.823  0.8739 -0.5551 -0.0736
 5282SOL    HW116424   8.828   2.420   3.789  0.6245 -0.1892  0.7774
 5282SOL    HW216425   8.920   2.441   3.908  1.3496 -1.6825  0.5144
 5283SOL     OW16426   9.537   0.012   9.791 -0.4970 -0.2912  0.1495
 5283SOL    HW116427   9.560  -0.039   9.869  0.7950  0.3714  0.2276
 5283SOL    HW216428   9.536   0.103   9.821  1.2631  0.1007 -0.8341
 5284SOL     OW16429   6.154   6.641   4.449 -0.2510 -0.1621 -0.3716
 5284SOL    HW116430   6.174   6.715   4.392  0.0767  2.3595  2.7615
 5284SOL    HW216431   6.234   6.588   4.449  0.5776  1.0543 -0.4673
 5285SOL     OW16432   4.118   2.053   8.472  0.7850 -0.0901  0.2118
 5285SOL    HW116433   4.078   2.048   8.385 -2.0108 -1.4748  1.4349
 5285SOL    HW216434   4.082   2.133   8.511 -0.8842 -1.2836  1.2788
 5286SOL     OW16435   2.901   4.086   1.981 -0.3062  0.5812 -0.9241
 5286SOL    HW116436   2.940   4.152   2.038 -1.3337  0.1136  0.3667
 5286SOL    HW216437   2.971   4.022   1.968 -0.4665 -0.0596  1.0534
 5287SOL     OW16438   0.099   7.377   4.024  0.3028  0.2221 -0.2940
 5287SOL    HW116439   0.163   7.351   3.957 -0.4701  0.7637 -1.2786
 5287SOL    HW216440   0.152   7.396   4.101  1.2451 -0.2274 -0.7989
 5288SOL     OW16441   8.575   3.280   0.216 -0.0987 -0.0461 -0.1871
 5288SOL    HW116442   8.588   3.196   0.171  0.0660  0.1846 -0.5745
 5288SOL    HW216443   8.494   3.314   0.180 -1.0598 -0.8017  1.1732
 5289SOL     OW16444   9.605   4.445   2.619 -0.3329 -0.0748 -0.9621
 5289SOL    HW116445   9.525   4.402   2.648 -0.3644  0.8830  0.5248
 5289SOL    HW216446   9.630   4.399   2.539 -2.1933 -0.5903 -1.2963
 5290SOL     OW16447   5.008   5.652   0.401 -0.0902 -0.1322  0.1224
 5290SOL    HW116448   5.056   5.606   0.470  0.0580 -0.5018 -0.2200
 5290SOL    HW216449   4.980   5.583   0.341 -2.5636 -0.1518  1.1916
 5291SOL     OW16450   6.287   5.205   2.873  0.2884 -0.1098 -0.6269
 5291SOL    HW116451   6.347   5.205   2.798 -0.1499 -0.0158 -0.9789
 5291SOL    HW216452   6.202   5.181   2.836  0.0505  0.0334 -0.1749
 5292SOL     OW16453   8.014   3.429   5.297 -0.1410 -1.0367  0.1769
 5292SOL    HW116454   8.020   3.497   5.364 -0.1866 -1.2152  0.3651
 5292SOL    HW216455   7.969   3.471   5.223  1.3821 -0.3262 -0.3940
 5293SOL     OW16456   2.009   0.776   1.366 -0.5612  0.0208 -0.6215
 5293SOL    HW116457   1.989   0.797   1.274 -2.1798  0.1732 -0.2616
 5293SOL    HW216458   1.969   0.690   1.380  0.7131 -0.5546 -0.3618
 5294SOL     OW16459   3.629   7.599   1.381 -0.0344  0.4576  0.0279
 5294SOL    HW116460   3.624   7.659   1.455  0.1435 -0.3034  0.6764
 5294SOL    HW216461   3.715   7.616   1.342 -0.4753  1.4470 -0.5265
 5295SOL     OW16462   0.602   2.725   7.538 -0.1382  0.1653  0.1735
 5295SOL    HW116463   0.693   2.707   7.561  0.1319  1.2416  0.0097
 5295SOL    HW216464   0.560   2.639   7.537  1.4977 -0.7430 -2.5538
 5296SOL     OW16465   7.244   3.344   7.975 -0.3185 -0.2196  0.4200
 5296SOL    HW116466   7.213   3.415   7.919 -0.2767 -0.7648 -0.3133
 5296SOL    HW216467   7.200   3.359   8.059  0.0130  0.8939  0.4042
 5297SOL     OW16468   3.839   0.311   6.510  0.0784  0.0863  0.1009
 5297SOL    HW116469   3.804   0.253   6.578 -0.4183 -1.5268 -1.4557
 5297SOL    HW216470   3.765   0.366   6.486  0.0457  0.1555  0.3591
 5298SOL     OW16471   0.423   2.548   2.464  0.3130 -0.4530  0.1290
 5298SOL    HW116472   0.471   2.468   2.444  0.1259 -1.3422  2.7735
 5298SOL    HW216473   0.488   2.604   2.508 -0.4356 -0.7599  1.7111
 5299SOL     OW16474   2.592   6.314   6.890  0.2617 -0.1622 -0.0609
 5299SOL    HW116475   2.589   6.357   6.976 -0.8803 -1.5704  0.6543
 5299SOL    HW216476   2.659   6.246   6.900  0.3091 -0.1587 -0.3621
 5300SOL     OW16477   1.987   9.703   0.414  0.5702  0.0594  0.0598
 5300SOL    HW116478   2.063   9.644   0.417  0.1946 -0.4571 -0.3887
 5300SOL    HW216479   1.941   9.679   0.333 -0.6504 -0.3585  0.8570
 5301SOL     OW16480   0.453   5.440   6.202 -0.4749  0.1824 -0.3415
 5301SOL    HW116481   0.417   5.527   6.189 -0.0291  0.3390 -0.5498
 5301SOL    HW216482   0.444   5.397   6.117 -1.4942 -0.2869 -0.0172
 5302SOL     OW16483   3.995   6.131   4.203 -0.4180 -0.1707  0.2116
 5302SOL    HW116484   3.912   6.099   4.240  1.0070 -2.0842  2.0117
 5302SOL    HW216485   4.042   6.166   4.279  1.0895 -0.6956 -0.4546
 5303SOL     OW16486   6.573   2.724   6.669 -0.2937  0.9706  0.2555
 5303SOL    HW116487   6.645   2.786   6.676 -1.2387  2.0572  0.7713
 5303SOL    HW216488   6.613   2.639   6.685  0.8924  1.5276  0.3775
 5304SOL     OW16489   9.199   9.649   8.739  0.1358 -0.2738 -1.1857
 5304SOL    HW116490   9.240   9.564   8.721  0.7176 -0.1927 -0.2870
 5304SOL    HW216491   9.144   9.633   8.816  1.3437  0.4716 -0.1259
 5305SOL     OW16492   8.956   2.489   4.813  0.2844  0.4097  0.0744
 5305SOL    HW116493   8.944   2.418   4.749 -0.5497 -0.3526  1.0399
 5305SOL    HW216494   8.873   2.536   4.812 -0.0496 -0.1290  1.1911
 5306SOL     OW16495   6.778   2.735   7.973  0.6768 -0.1200  0.1994
 5306SOL    HW116496   6.686   2.749   7.951  0.3237 -1.5831  0.6200
 5306SOL    HW216497   6.819   2.821   7.963 -0.3969  0.2370 -1.5384
 5307SOL     OW16498   2.025   8.779   2.792  0.0662 -0.1875 -0.4909
 5307SOL    HW116499   1.939   8.794   2.831  0.4973 -1.5955  1.1223
 5307SOL    HW216500   2.008   8.771   2.698 -1.4865  0.0339 -0.2534
 5308SOL     OW16501   9.085   2.358   7.291 -0.2802 -0.3166  0.0839
 5308SOL    HW116502   9.083   2.327   7.201 -0.2030 -2.5460  0.7742
 5308SOL    HW216503   8.995   2.383   7.310 -0.9939 -2.7361  0.2409
 5309SOL     OW16504   0.943   8.995   4.446 -0.1205  0.2887 -0.4812
 5309SOL    HW116505   1.005   9.027   4.381 -0.6222  0.3605 -0.9326
 5309SOL    HW216506   0.899   9.074   4.478 -1.1345  0.0991 -1.3649
 5310SOL     OW16507   9.288   2.314   2.335  0.4285 -0.6903 -0.5995
 5310SOL    HW116508   9.216   2.277   2.387  0.2404 -0.8615 -0.9749
 5310SOL    HW216509   9.366   2.298   2.387 -0.0059  1.3229  0.7950
 5311SOL     OW16510   8.046   8.747   5.123 -0.6226  0.1753  0.2793
 5311SOL    HW116511   7.980   8.694   5.167  0.0596 -1.5425 -0.6835
 5311SOL    HW216512   8.087   8.798   5.193 -3.0868  1.5102  0.8671
 5312SOL     OW16513   2.455   4.890   7.239 -0.4456  0.1594 -0.3742
 5312SOL    HW116514   2.452   4.802   7.276 -2.6024  0.0641 -0.6319
 5312SOL    HW216515   2.529   4.932   7.283  1.8517 -2.3121 -1.6237
 5313SOL     OW16516   2.020   1.204   7.145 -0.1418 -0.3427  0.3255
 5313SOL    HW116517   1.978   1.280   7.187  1.1439  0.8202 -0.4019
 5313SOL    HW216518   2.108   1.202   7.181  0.5389 -0.1588 -1.2172
 5314SOL     OW16519   6.430   8.684   0.767 -0.2791 -0.1585 -0.2073
 5314SOL    HW116520   6.394   8.650   0.849  0.4258 -1.0315 -0.2450
 5314SOL    HW216521   6.431   8.779   0.780  0.8013 -0.3272  1.2343
 5315SOL     OW16522   6.692   1.484   4.973 -0.2795  0.2177  0.1906
 5315SOL    HW116523   6.744   1.505   5.051 -1.1653  1.1166  0.5678
 5315SOL    HW216524   6.730   1.537   4.903  0.3822 -0.4284  0.0502
 5316SOL     OW16525   5.141   8.498   9.481 -0.4208  0.6311  0.0248
 5316SOL    HW116526   5.148   8.503   9.386 -0.9790  0.3639 -0.0347
 5316SOL    HW216527   5.190   8.419   9.504  1.5012  1.7930  0.1795
 5317SOL     OW16528   6.651   7.218   3.961  0.9081 -0.2826 -0.1870
 5317SOL    HW116529   6.572   7.267   3.984  0.2453 -0.6871 -1.4543
 5317SOL    HW216530   6.640   7.199   3.867  2.3683 -0.6189 -0.3058
 5318SOL     OW16531   6.749   6.802   8.296  0.1319 -0.0556 -0.2909
 5318SOL    HW116532   6.783   6.882   8.256 -0.8183 -0.4504 -1.9585
 5318SOL    HW216533   6.761   6.735   8.228  1.5924 -1.5380  1.3199
 5319SOL     OW16534   5.386   7.600   5.548 -0.1689  0.0098  0.3083
 5319SOL    HW116535   5.465   7.554   5.518  0.6349  1.8672 -0.6175
 5319SOL    HW216536   5.402   7.616   5.641 -0.1828 -0.9946  0.4958
 5320SOL     OW16537   5.998   6.855   8.044 -0.1870  0.6378 -0.1000
 5320SOL    HW116538   6.021   6.768   8.078 -2.6338 -0.6025 -1.3389
 5320SOL    HW216539   5.969   6.903   8.122  0.6651  0.1703  0.5253
 5321SOL     OW16540   5.468   7.156   2.876 -0.2216  0.2504  0.0213
 5321SOL    HW116541   5.393   7.193   2.829  0.1209  2.4070  1.0646
 5321SOL    HW216542   5.431   7.123   2.959 -0.1324  0.6127  0.2051
 5322SOL     OW16543   6.868   1.930   1.303  0.3175 -0.1527 -0.0307
 5322SOL    HW116544   6.827   2.010   1.335 -0.4793 -0.5223 -0.0930
 5322SOL    HW216545   6.962   1.945   1.312  0.1600  0.6080  0.3860
 5323SOL     OW16546   4.431   7.253   5.559 -0.5883  0.2822  0.0056
 5323SOL    HW116547   4.399   7.163   5.554 -1.0960  0.5202 -1.5846
 5323SOL    HW216548   4.411   7.290   5.473  1.1714  1.4040  0.0452
 5324SOL     OW16549   4.210   4.372   2.263 -0.7016 -0.4012 -0.1903
 5324SOL    HW116550   4.133   4.406   2.308  0.1830  1.4830 -0.0128
 5324SOL    HW216551   4.258   4.324   2.330  0.6438  2.4421  1.0093
 5325SOL     OW16552   5.980   8.096   9.500  0.1964 -0.3272 -0.3007
 5325SOL    HW116553   5.895   8.138   9.487  1.1435  1.3300 -1.7246
 5325SOL    HW216554   5.988   8.086   9.594 -1.2155  0.2810 -0.0924
 5326SOL     OW16555   1.167   7.526   8.869  0.0378 -0.0047  0.4950
 5326SOL    HW116556   1.210   7.590   8.926  0.2278  1.4911 -1.2410
 5326SOL    HW216557   1.232   7.456   8.858  0.6082  0.4592  0.8318
 5327SOL     OW16558   7.349   3.664   1.497  0.8864  0.3722 -0.5389
 5327SOL    HW116559   7.426   3.611   1.517  0.4228 -0.3561 -0.6329
 5327SOL    HW216560   7.373   3.753   1.522  0.4519 -0.3771  3.1688
 5328SOL     OW16561   4.244   7.829   9.240 -0.1938  0.0277  0.0453
 5328SOL    HW116562   4.327   7.861   9.276 -0.6735 -0.3602  1.5909
 5328SOL    HW216563   4.264   7.741   9.208 -0.1750 -0.4380  1.2625
 5329SOL     OW16564   8.702   2.974   1.546 -0.0601 -0.2334 -0.0475
 5329SOL    HW116565   8.715   3.068   1.544 -2.0377  0.1006  0.6307
 5329SOL    HW216566   8.708   2.947   1.454  0.2865  0.5919 -0.2720
 5330SOL     OW16567   3.502   8.472   8.876  0.2193 -0.9035 -0.1398
 5330SOL    HW116568   3.554   8.423   8.812  0.8005 -0.2445 -0.1875
 5330SOL    HW216569   3.540   8.448   8.961  1.7039  0.7759 -0.2600
 5331SOL     OW16570   6.138   3.538   6.532 -0.3386  0.2079 -0.1211
 5331SOL    HW116571   6.087   3.546   6.452 -1.0428  1.6149  0.4324
 5331SOL    HW216572   6.229   3.553   6.504 -0.7794  2.8723 -0.4099
 5332SOL     OW16573   3.491   7.811   2.161 -0.1493 -0.2454 -0.1681
 5332SOL    HW116574   3.435   7.734   2.146  0.1490 -0.4282 -0.3541
 5332SOL    HW216575   3.470   7.870   2.089 -1.2340  0.3609  0.6081
 5333SOL     OW16576   7.557   5.135   6.996 -0.3857  0.1001  0.2309
 5333SOL    HW116577   7.557   5.198   6.924 -3.5857  1.7521  1.4658
 5333SOL    HW216578   7.484   5.076   6.977  0.0736 -0.7723  1.0621
 5334SOL     OW16579   0.985   8.581   3.922  0.1308 -0.2609  0.1635
 5334SOL    HW116580   1.057   8.644   3.913  0.1084 -0.1741  0.5824
 5334SOL    HW216581   0.920   8.627   3.976 -0.0856 -0.4702  0.0817
 5335SOL     OW16582   3.677   3.951   4.279 -0.3828 -0.4368 -0.2093
 5335SOL    HW116583   3.607   3.888   4.258 -1.2217  0.5977 -0.6422
 5335SOL    HW216584   3.664   4.022   4.216 -0.2178  0.7325  1.0448
 5336SOL     OW16585   7.451   6.922   0.843  0.7260 -0.3021  0.1989
 5336SOL    HW116586   7.388   6.988   0.871  0.3926 -0.6337  0.2398
 5336SOL    HW216587   7.406   6.873   0.775  0.0445 -2.0164  1.7814
 5337SOL     OW16588   7.773   1.004   4.427 -0.3520 -0.3467  0.9342
 5337SOL    HW116589   7.712   0.983   4.498 -1.0145 -0.6270  0.2908
 5337SOL    HW216590   7.826   0.925   4.418 -1.1243 -0.8015  0.2604
 5338SOL     OW16591   4.456   7.610   2.915 -0.3654  0.0237 -0.3151
 5338SOL    HW116592   4.410   7.635   2.835  0.6453 -0.1428 -0.9582
 5338SOL    HW216593   4.388   7.571   2.970 -1.2831  1.0681 -0.6581
 5339SOL     OW16594   9.496   6.182   8.980 -0.2846  0.0663  0.5240
 5339SOL    HW116595   9.532   6.215   8.898 -2.9227  3.6261  0.5578
 5339SOL    HW216596   9.556   6.113   9.007 -0.0096 -2.4599 -5.0869
 5340SOL     OW16597   4.777   8.027   5.666  0.4703  0.0442  0.3710
 5340SOL    HW116598   4.732   7.950   5.630  1.1084  0.4673 -1.4649
 5340SOL    HW216599   4.726   8.051   5.744 -1.5229 -0.4322 -0.7138
 5341SOL     OW16600   6.482   9.499   6.379  0.2517 -0.2723 -0.1546
 5341SOL    HW116601   6.427   9.479   6.455 -0.0885  0.7682 -0.1099
 5341SOL    HW216602   6.427   9.476   6.303 -0.1323  0.4382 -0.1037
 5342SOL     OW16603   3.209   8.578   2.561 -0.9524  0.6437  0.1805
 5342SOL    HW116604   3.198   8.486   2.535 -2.0611  0.8866 -0.2709
 5342SOL    HW216605   3.138   8.624   2.517 -0.7489  1.6409  0.8529
 5343SOL     OW16606   0.153   0.354   6.406  0.2447  0.0477 -0.3643
 5343SOL    HW116607   0.229   0.301   6.382  0.9371  0.8532 -0.0252
 5343SOL    HW216608   0.189   0.441   6.422 -0.9611  0.8107 -1.5856
 5344SOL     OW16609   4.604   8.222   1.549 -0.3414  0.1466  0.2913
 5344SOL    HW116610   4.550   8.246   1.624 -1.1924 -0.1567 -0.1985
 5344SOL    HW216611   4.690   8.260   1.567 -1.6454  3.9799 -0.6272
 5345SOL     OW16612   1.863   8.062   7.418 -0.7764 -0.3219 -0.1687
 5345SOL    HW116613   1.905   8.135   7.372  0.2059 -1.3905 -0.9993
 5345SOL    HW216614   1.773   8.093   7.435  0.2129  1.9548  1.4981
 5346SOL     OW16615   7.082   1.475   1.495 -0.7663  0.2466 -0.2556
 5346SOL    HW116616   7.005   1.511   1.450  0.6191  1.6717 -1.5815
 5346SOL    HW216617   7.138   1.443   1.425  0.6180  0.8236  0.5472
 5347SOL     OW16618   2.792   9.611   8.477  0.5753 -0.8036 -0.4194
 5347SOL    HW116619   2.840   9.679   8.430 -0.7723 -0.6895 -1.6829
 5347SOL    HW216620   2.723   9.584   8.417 -0.4504 -1.5419  1.0239
 5348SOL     OW16621   7.459   2.718   5.510  0.3020 -0.0549 -0.0877
 5348SOL    HW116622   7.536   2.729   5.455 -0.9110  0.5513 -1.7324
 5348SOL    HW216623   7.471   2.782   5.580  0.4394  1.3743 -1.3684
 5349SOL     OW16624   1.817   2.129   3.207 -0.3476 -0.6541 -0.0625
 5349SOL    HW116625   1.855   2.101   3.290  1.5862  0.3777 -0.5421
 5349SOL    HW216626   1.890   2.166   3.158 -2.0680  2.0842 -0.8023
 5350SOL     OW16627   3.656   8.019   8.050  0.0498 -0.5049  0.1791
 5350SOL    HW116628   3.747   8.040   8.032  0.0736 -0.0119  0.8260
 5350SOL    HW216629   3.625   7.973   7.972  1.0836 -1.4379  0.2968
 5351SOL     OW16630   7.168   0.386   9.539  0.4545  0.2541  0.1792
 5351SOL    HW116631   7.127   0.418   9.619 -1.4350 -1.7798  0.1397
 5351SOL    HW216632   7.260   0.413   9.546 -0.0266  1.5861  2.1921
 5352SOL     OW16633   6.993   4.515   7.736  0.3891 -0.2671  0.4317
 5352SOL    HW116634   6.912   4.477   7.701  0.7978  0.1334 -0.9803
 5352SOL    HW216635   7.038   4.551   7.660  1.2535  0.7423  1.3850
 5353SOL     OW16636   8.676   9.900   6.117  0.0087  0.0725  0.2549
 5353SOL    HW116637   8.615   9.833   6.147 -0.2543  0.1481 -0.1060
 5353SOL    HW216638   8.681   9.888   6.022  0.6494 -0.0125  0.2930
 5354SOL     OW16639   3.800   1.683   7.563 -0.2138  0.2257  0.1463
 5354SOL    HW116640   3.754   1.733   7.631 -1.5533 -0.2608 -0.3610
 5354SOL    HW216641   3.785   1.733   7.483 -0.7940 -0.4988 -0.2105
 5355SOL     OW16642   1.144   3.994   2.421  0.3672 -0.2221 -0.2029
 5355SOL    HW116643   1.153   3.910   2.375  1.1896 -0.2897  0.0778
 5355SOL    HW216644   1.226   4.005   2.468 -1.5368 -1.6743  3.8586
 5356SOL     OW16645   5.452   6.986   1.711 -0.1020  0.2546 -0.3598
 5356SOL    HW116646   5.438   6.912   1.651 -0.8008  0.8090 -0.8980
 5356SOL    HW216647   5.548   6.991   1.719 -0.0490 -1.0534  0.1468
 5357SOL     OW16648   7.960   5.187   5.559  0.0355  0.5108 -0.3827
 5357SOL    HW116649   8.055   5.175   5.568  0.2489  1.5959 -1.0048
 5357SOL    HW216650   7.925   5.098   5.552  1.1145  0.1258 -1.1773
 5358SOL     OW16651   2.193   7.365   6.850  0.2131 -0.4053 -0.2534
 5358SOL    HW116652   2.231   7.335   6.933 -1.0430  0.0291  0.5149
 5358SOL    HW216653   2.137   7.439   6.875  0.9133  0.6377 -1.7028
 5359SOL     OW16654   3.222   5.179   5.412  0.5344 -0.1386  0.2164
 5359SOL    HW116655   3.223   5.228   5.329 -2.8166  2.3944  1.4662
 5359SOL    HW216656   3.252   5.242   5.477 -0.7514 -0.7497  1.4451
 5360SOL     OW16657   9.266   3.875   1.840 -0.1416 -0.0480  0.1546
 5360SOL    HW116658   9.227   3.927   1.770 -1.3685  0.5800  1.2444
 5360SOL    HW216659   9.340   3.927   1.870 -0.4799  0.3847  0.2554
 5361SOL     OW16660   5.950   4.385   1.732  0.5730  0.4322 -0.2974
 5361SOL    HW116661   5.934   4.321   1.802  2.4118 -1.2623 -1.2918
 5361SOL    HW216662   6.043   4.374   1.712  0.5055  2.1908 -1.7583
 5362SOL     OW16663   4.457   5.738   3.916 -0.1971 -0.1586 -0.4107
 5362SOL    HW116664   4.545   5.760   3.887 -0.6093  0.5779 -1.1791
 5362SOL    HW216665   4.434   5.659   3.867 -0.3936  0.3298 -1.1315
 5363SOL     OW16666   1.782   1.479   9.945  0.5558  0.1469 -0.3049
 5363SOL    HW116667   1.839   1.556   9.939  1.7676 -0.7779 -1.0788
 5363SOL    HW216668   1.749   1.467   9.857 -0.5343  0.4319  0.0567
 5364SOL     OW16669   6.924   8.302   3.036 -0.4364 -0.3288 -1.4605
 5364SOL    HW116670   6.935   8.212   3.005 -0.1907 -1.2197  0.9448
 5364SOL    HW216671   6.992   8.312   3.103 -1.7021  0.9747 -0.3098
 5365SOL     OW16672   5.583   7.066   0.458 -0.2810  0.1981 -0.0030
 5365SOL    HW116673   5.539   7.014   0.391 -1.7302  0.7970  0.4430
 5365SOL    HW216674   5.513   7.098   0.514  0.8251  0.3803  1.3410
 5366SOL     OW16675   4.552   3.702   0.617 -0.5406 -0.1045 -0.3483
 5366SOL    HW116676   4.601   3.653   0.550 -1.9498 -0.9988 -0.7706
 5366SOL    HW216677   4.473   3.733   0.571 -0.3593  1.3829  0.2857
 5367SOL     OW16678   6.593   0.117   0.665 -0.1222  0.3297  0.3762
 5367SOL    HW116679   6.577   0.197   0.615 -2.4448 -0.9280 -1.0975
 5367SOL    HW216680   6.634   0.146   0.746 -1.3802  3.0600  0.1313
 5368SOL     OW16681   8.360   8.503   7.211  0.0175  0.2228 -0.4958
 5368SOL    HW116682   8.438   8.499   7.156 -1.0344 -1.0934 -1.9964
 5368SOL    HW216683   8.388   8.548   7.290  2.8606 -2.1737  0.0003
 5369SOL     OW16684   6.321   7.776   2.702  0.1318  0.9493  0.1689
 5369SOL    HW116685   6.261   7.842   2.668 -1.4137 -1.2775 -1.7553
 5369SOL    HW216686   6.267   7.722   2.759  1.0266  0.5404  0.6510
 5370SOL     OW16687   3.733   8.030   6.066  0.1258 -0.7265 -0.3081
 5370SOL    HW116688   3.705   8.113   6.105 -0.7960 -0.8272 -0.7251
 5370SOL    HW216689   3.783   8.055   5.989 -0.6250 -0.5583 -0.7452
 5371SOL     OW16690   4.954   3.077   2.993 -0.7737  0.1099 -0.2203
 5371SOL    HW116691   4.862   3.052   2.987 -0.9770  0.9730 -0.9524
 5371SOL    HW216692   4.952   3.173   2.997  0.1012  0.1441 -0.4038
 5372SOL     OW16693   1.698   7.777   5.184 -0.3713 -0.1265 -0.0927
 5372SOL    HW116694   1.635   7.849   5.170  0.1741  0.5020  0.6383
 5372SOL    HW216695   1.724   7.752   5.095 -2.0956 -0.8232 -0.4609
 5373SOL     OW16696   4.779   5.067   1.385  0.4217  0.0363  0.5823
 5373SOL    HW116697   4.700   5.092   1.337  0.8078  0.2931  0.0682
 5373SOL    HW216698   4.790   4.974   1.367  0.2727  0.0152  0.6003
 5374SOL     OW16699   4.951   1.944   4.731 -0.0328 -0.4071  0.2832
 5374SOL    HW116700   4.897   1.916   4.657 -0.2675  0.6235  0.0568
 5374SOL    HW216701   4.894   2.001   4.782  0.3293 -0.6083  0.9329
 5375SOL     OW16702   4.367   6.131   2.516 -0.2346  0.1023 -0.3325
 5375SOL    HW116703   4.456   6.159   2.495  0.3403 -0.6774  0.9221
 5375SOL    HW216704   4.376   6.039   2.542 -1.2983  0.1866  0.4145
 5376SOL     OW16705   2.881   6.730   9.386  0.5014 -0.0864  0.3325
 5376SOL    HW116706   2.968   6.705   9.355  0.3100  0.2605 -0.5076
 5376SOL    HW216707   2.892   6.820   9.417  0.5014 -0.1302  0.4576
 5377SOL     OW16708   6.165   6.546   2.418  0.3716  0.4653 -0.1272
 5377SOL    HW116709   6.089   6.585   2.462 -0.2313 -0.9103  0.1296
 5377SOL    HW216710   6.142   6.547   2.325  0.1126  0.2323 -0.0689
 5378SOL     OW16711   3.052   8.504   1.686  0.5491  0.3856  1.1482
 5378SOL    HW116712   3.050   8.600   1.690  0.9522  0.3676  2.4589
 5378SOL    HW216713   3.109   8.484   1.612 -3.8818  1.0675 -2.9399
 5379SOL     OW16714   3.941   1.105   7.111  0.5571  0.0278 -0.0989
 5379SOL    HW116715   3.948   1.086   7.205  0.5924  1.2209  0.1621
 5379SOL    HW216716   3.971   1.196   7.103  2.0027 -0.5222 -1.4816
 5380SOL     OW16717   1.494   7.861   7.426 -0.4017  0.1228 -0.6261
 5380SOL    HW116718   1.527   7.939   7.471 -0.0353 -0.4383  0.0866
 5380SOL    HW216719   1.399   7.866   7.436 -0.5825  1.6356 -2.5051
 5381SOL     OW16720   7.657   5.182   9.530 -0.4706  0.5963 -0.2400
 5381SOL    HW116721   7.623   5.265   9.564  0.0275  0.7906 -0.2189
 5381SOL    HW216722   7.662   5.195   9.435  0.3205  0.8543 -0.1665
 5382SOL     OW16723   7.618   1.295   3.083  0.2586  0.0279  0.1736
 5382SOL    HW116724   7.629   1.363   3.016 -0.1243  0.5139  0.5907
 5382SOL    HW216725   7.532   1.313   3.121 -0.8481 -2.0698 -1.2245
 5383SOL     OW16726   8.864   6.995   4.023 -0.2705 -0.0395 -0.2720
 5383SOL    HW116727   8.897   6.977   4.111  1.6981  3.7029  0.0065
 5383SOL    HW216728   8.917   6.940   3.965 -1.2800 -2.2068  0.7862
 5384SOL     OW16729   6.146   6.511   0.692  0.0194 -0.4115 -0.2025
 5384SOL    HW116730   6.233   6.536   0.725 -0.5437  1.3894  0.0438
 5384SOL    HW216731   6.163   6.474   0.605  1.1167 -1.0291  0.2583
 5385SOL     OW16732   7.043   3.189   5.657  0.1799 -0.0538  0.0059
 5385SOL    HW116733   7.117   3.249   5.657  1.9454 -1.9569  2.7373
 5385SOL    HW216734   7.017   3.183   5.749 -0.9982 -2.1368 -0.3877
 5386SOL     OW16735   9.054   0.892   0.166 -0.1720 -0.3812 -0.9175
 5386SOL    HW116736   9.085   0.832   0.233 -1.6841 -0.4917 -0.2661
 5386SOL    HW216737   9.077   0.979   0.199  0.2085 -0.4946 -0.8784
 5387SOL     OW16738   2.298   9.831   8.716 -0.1775 -0.1948 -0.0332
 5387SOL    HW116739   2.377   9.777   8.723  0.0255  0.2710  1.6662
 5387SOL    HW216740   2.327   9.908   8.667  0.2781 -0.3134  0.0408
 5388SOL     OW16741   6.164   0.231   7.295 -0.1079  0.4253 -0.6063
 5388SOL    HW116742   6.205   0.148   7.270  2.0878  1.5030 -0.8417
 5388SOL    HW216743   6.174   0.235   7.390  2.7771  1.7429 -0.8294
 5389SOL     OW16744   1.072   8.487   0.281  0.2755  0.2232  0.2749
 5389SOL    HW116745   0.983   8.460   0.304 -0.4026 -1.0065 -3.2450
 5389SOL    HW216746   1.086   8.568   0.329 -3.4720  1.4807 -0.4500
 5390SOL     OW16747   9.060   3.337   3.795 -0.0716  0.0226  0.2013
 5390SOL    HW116748   9.057   3.292   3.710  1.2517 -1.0258  0.6648
 5390SOL    HW216749   8.997   3.408   3.787 -0.2250 -0.2660 -1.5388
 5391SOL     OW16750   7.307   9.990   4.007 -1.1129  0.1455 -0.4176
 5391SOL    HW116751   7.345  10.022   3.925 -0.0584  0.4672  0.1832
 5391SOL    HW216752   7.235   9.933   3.979  1.7906 -3.2741 -1.8106
 5392SOL     OW16753   9.733   8.639   9.810 -0.3497 -0.7208  0.6215
 5392SOL    HW116754   9.651   8.685   9.792  0.1051 -0.4065 -0.7844
 5392SOL    HW216755   9.717   8.549   9.784 -0.3806 -0.7596  0.7723
 5393SOL     OW16756   3.664   1.035   3.593  0.1572 -0.1008  0.1741
 5393SOL    HW116757   3.599   1.102   3.572  0.0373 -0.3140 -0.1372
 5393SOL    HW216758   3.735   1.050   3.529  0.1345 -0.2637  0.1108
 5394SOL     OW16759   2.093   7.372   1.739 -0.6446  0.1520 -0.5156
 5394SOL    HW116760   2.123   7.287   1.705  1.3606  0.3619  0.5629
 5394SOL    HW216761   2.073   7.354   1.831  0.8662  1.0329  0.0176
 5395SOL     OW16762   3.943   6.142   8.164  1.0341 -0.1115 -0.1148
 5395SOL    HW116763   4.036   6.123   8.174  0.8333 -0.6797  0.8841
 5395SOL    HW216764   3.940   6.225   8.118  2.0410  0.0085  0.0060
 5396SOL     OW16765   6.646   4.609   1.602  0.1382 -0.8361  0.1251
 5396SOL    HW116766   6.637   4.650   1.688  0.4167  0.6168 -0.5004
 5396SOL    HW216767   6.739   4.618   1.580 -0.3642  1.3921 -1.4796
 5397SOL     OW16768   5.229   8.042   4.265  0.2845  0.4253  0.1330
 5397SOL    HW116769   5.137   8.025   4.245  0.8304 -0.3603 -1.9094
 5397SOL    HW216770   5.238   8.137   4.254 -0.4871  0.6879  1.4662
 5398SOL     OW16771   0.372   8.466   3.534  0.0400 -0.8969 -0.2125
 5398SOL    HW116772   0.340   8.553   3.511 -0.1845 -0.2866  2.1130
 5398SOL    HW216773   0.300   8.407   3.513  0.3349 -0.6226 -2.1720
 5399SOL     OW16774   8.128   3.216   0.389  0.2214  0.1135  0.2632
 5399SOL    HW116775   8.188   3.232   0.462 -1.8081 -0.8888  2.2749
 5399SOL    HW216776   8.102   3.303   0.360  1.8801  0.5480 -0.0415
 5400SOL     OW16777   6.339   4.885   1.638  0.6296  0.4924  0.1901
 5400SOL    HW116778   6.352   4.937   1.559  0.1215 -0.6645 -0.6843
 5400SOL    HW216779   6.244   4.886   1.653  0.5079 -0.7901 -0.3072
 5401SOL     OW16780   5.812   1.567   1.401  0.0897  0.2447  0.1574
 5401SOL    HW116781   5.814   1.659   1.429  0.3058  0.4599 -0.5357
 5401SOL    HW216782   5.719   1.545   1.398  0.0642 -0.4545  3.0732
 5402SOL     OW16783   7.166   0.176   0.597  0.0531  0.5504  0.1894
 5402SOL    HW116784   7.133   0.180   0.687  1.4058 -1.5428  0.8478
 5402SOL    HW216785   7.141   0.089   0.567  1.2565  0.5330 -0.7942
 5403SOL     OW16786   0.634   5.851   7.912 -0.2052 -0.5789  0.2746
 5403SOL    HW116787   0.591   5.771   7.885 -1.3404  0.2939 -0.5987
 5403SOL    HW216788   0.703   5.864   7.847 -0.7640 -0.2596 -0.2682
 5404SOL     OW16789   1.470   0.832   1.533  0.3123 -0.4133 -0.4288
 5404SOL    HW116790   1.565   0.839   1.519 -0.1107  0.5193 -3.8430
 5404SOL    HW216791   1.445   0.755   1.481 -0.6673 -1.5883  1.6805
 5405SOL     OW16792   5.434   4.525   9.035  0.1481 -0.1478 -0.6270
 5405SOL    HW116793   5.529   4.516   9.035  0.2732  0.3069  1.8970
 5405SOL    HW216794   5.419   4.620   9.037 -0.1695 -0.1687  2.4835
 5406SOL     OW16795   8.345   1.545   4.230  0.4810 -0.3025  0.4236
 5406SOL    HW116796   8.257   1.530   4.195  0.1571  0.7558  0.7524
 5406SOL    HW216797   8.370   1.631   4.197 -0.2864  1.2916  3.6116
 5407SOL     OW16798   3.719   8.973   2.091  0.3382 -0.1648 -0.3916
 5407SOL    HW116799   3.814   8.961   2.099  0.3752  0.3084 -0.1097
 5407SOL    HW216800   3.706   9.067   2.096 -0.2102 -0.2655  0.2153
 5408SOL     OW16801   2.361   1.182   5.223 -0.2727 -0.1509  0.1323
 5408SOL    HW116802   2.411   1.171   5.142 -1.5190 -1.6118 -0.4917
 5408SOL    HW216803   2.424   1.219   5.285  0.4883  1.8262 -1.6954
 5409SOL     OW16804   3.908   7.853   4.750  0.3535  0.0651 -0.3646
 5409SOL    HW116805   3.990   7.806   4.739  0.3889  0.0004  0.1388
 5409SOL    HW216806   3.935   7.941   4.779  0.2315 -0.1550  0.4503
 5410SOL     OW16807   2.362   9.434   5.209  0.0882 -0.1262  0.2861
 5410SOL    HW116808   2.272   9.425   5.238 -0.6739 -0.5919 -1.9794
 5410SOL    HW216809   2.384   9.526   5.225 -0.5387 -0.1656  1.4551
 5411SOL     OW16810   9.411   8.691   2.017  0.3935 -0.3558 -0.0250
 5411SOL    HW116811   9.373   8.667   2.102 -1.5321  0.9335 -0.4588
 5411SOL    HW216812   9.431   8.784   2.024 -0.8619  0.0441 -1.3199
 5412SOL     OW16813   7.375   0.876   4.591  0.1159 -0.3670 -0.2793
 5412SOL    HW116814   7.324   0.943   4.545  0.5997 -0.7252 -1.3767
 5412SOL    HW216815   7.326   0.860   4.672 -0.7566  0.2904 -0.6575
 5413SOL     OW16816   8.655   0.267   0.560 -0.1072  0.1705 -0.1387
 5413SOL    HW116817   8.611   0.274   0.476  0.1286  0.3439 -0.2481
 5413SOL    HW216818   8.746   0.293   0.543 -0.2880  1.2237  0.3704
 5414SOL     OW16819   8.644   6.350   5.559  0.3689 -0.0898  0.4745
 5414SOL    HW116820   8.694   6.335   5.478 -0.4776  0.9478 -0.2601
 5414SOL    HW216821   8.599   6.267   5.575 -0.3276  0.0274 -0.7545
 5415SOL     OW16822   5.143   0.306   6.818  0.3158 -0.1460  0.2219
 5415SOL    HW116823   5.199   0.238   6.855  1.9589  1.8085  1.5255
 5415SOL    HW216824   5.058   0.292   6.859  0.6728 -1.3106  0.5914
 5416SOL     OW16825   3.175   1.619   0.546  0.1885 -0.0315 -0.4199
 5416SOL    HW116826   3.221   1.671   0.612  0.4956  1.6539 -1.9161
 5416SOL    HW216827   3.135   1.548   0.597  1.5682  0.3908  1.3854
 5417SOL     OW16828   7.044   9.360   6.035  0.5132  0.0131 -0.2831
 5417SOL    HW116829   6.996   9.313   5.967  0.3116 -0.9453  0.5133
 5417SOL    HW216830   7.133   9.324   6.031  0.3814 -0.3835  0.2695
 5418SOL     OW16831   7.048   9.572   6.243  0.3198  0.4381  0.4745
 5418SOL    HW116832   7.029   9.504   6.178 -0.4970  1.8980 -0.8711
 5418SOL    HW216833   6.968   9.580   6.294 -0.4755  2.0071 -0.9307
 5419SOL     OW16834   4.463   8.912   3.472 -0.5322 -0.4867 -0.2941
 5419SOL    HW116835   4.451   8.858   3.550 -0.1254  2.0715  1.6959
 5419SOL    HW216836   4.557   8.932   3.471 -0.6625  0.1453 -0.9673
 5420SOL     OW16837   6.577   5.358   0.876 -0.4407 -0.6023 -0.1632
 5420SOL    HW116838   6.526   5.324   0.950 -1.0077  1.1533  0.2867
 5420SOL    HW216839   6.668   5.351   0.904 -0.6343 -0.3019  0.5500
 5421SOL     OW16840   4.176   5.469   5.179 -0.0809 -0.2022 -0.1679
 5421SOL    HW116841   4.201   5.380   5.157  0.5946  0.1109 -0.6947
 5421SOL    HW216842   4.233   5.524   5.126  0.0251  0.5519  0.7011
 5422SOL     OW16843   9.466   1.561   1.485 -0.2484 -0.1774 -0.0714
 5422SOL    HW116844   9.527   1.503   1.440  0.5449 -0.2989  1.1299
 5422SOL    HW216845   9.446   1.629   1.420 -2.0126 -2.2847 -1.8685
 5423SOL     OW16846   4.785   7.847   8.276 -0.3206 -0.3623 -0.2343
 5423SOL    HW116847   4.754   7.757   8.281  0.2880 -0.5223  0.8279
 5423SOL    HW216848   4.760   7.886   8.359  2.3155 -0.5297  0.7276
 5424SOL     OW16849   2.028   2.559   0.246  0.1708 -0.1280 -0.2415
 5424SOL    HW116850   2.059   2.649   0.243 -0.0188  0.0096  1.1575
 5424SOL    HW216851   1.941   2.562   0.208 -0.8528  0.7814  2.0069
 5425SOL     OW16852   9.422   2.078   8.818 -0.4663 -0.0947  0.5546
 5425SOL    HW116853   9.366   2.003   8.798 -0.0716  0.3549 -2.7358
 5425SOL    HW216854   9.494   2.071   8.756  2.8548 -0.1856  4.0237
 5426SOL     OW16855   8.323   0.925   7.965  1.0431 -0.5754 -0.3308
 5426SOL    HW116856   8.341   1.017   7.942  0.8390 -0.6551 -0.8237
 5426SOL    HW216857   8.266   0.894   7.895  0.6008 -0.9001  0.1700
 5427SOL     OW16858   8.395   0.814   3.387 -0.0063 -0.5832  0.0677
 5427SOL    HW116859   8.322   0.797   3.328  0.0255 -0.3603 -0.0367
 5427SOL    HW216860   8.446   0.882   3.343  0.2833 -0.7639  0.1229
 5428SOL     OW16861   3.930   1.718   6.585 -0.4880  0.2207  0.0994
 5428SOL    HW116862   3.949   1.651   6.652  1.7264  0.1534 -0.5011
 5428SOL    HW216863   3.883   1.786   6.632 -0.3327 -0.5109  1.3760
 5429SOL     OW16864   8.061   3.763   2.728  0.0086  0.0772 -0.0862
 5429SOL    HW116865   8.113   3.832   2.686 -1.8718  2.0438  0.6098
 5429SOL    HW216866   8.044   3.797   2.816 -0.4986 -1.5761  0.4838
 5430SOL     OW16867   4.300   5.419   0.236  0.3873 -0.6029 -0.3124
 5430SOL    HW116868   4.257   5.339   0.205 -0.5700 -0.7474  1.2961
 5430SOL    HW216869   4.243   5.451   0.306  0.6052  1.6699 -1.1239
 5431SOL     OW16870   6.267   1.909   3.541 -0.1034  0.4928  0.5817
 5431SOL    HW116871   6.243   1.997   3.515 -1.0911  0.0069 -0.2005
 5431SOL    HW216872   6.354   1.919   3.581 -0.0323  1.7476  0.1583
 5432SOL     OW16873   6.537   3.742   5.798  0.2921  0.3741  0.4086
 5432SOL    HW116874   6.486   3.661   5.797 -0.3547  0.7771  0.2885
 5432SOL    HW216875   6.482   3.805   5.845  0.2361  1.0899 -0.5891
 5433SOL     OW16876   6.206   6.884   4.254 -0.3862 -0.0415  0.0018
 5433SOL    HW116877   6.165   6.959   4.211 -0.3808 -0.3722 -0.5947
 5433SOL    HW216878   6.263   6.923   4.321 -0.0090  0.5067 -0.6227
 5434SOL     OW16879   2.484   3.660   5.456  0.1744 -0.2561 -0.6017
 5434SOL    HW116880   2.542   3.694   5.524 -0.5549  0.9922 -0.5709
 5434SOL    HW216881   2.486   3.727   5.388  0.9469 -1.5177 -1.8749
 5435SOL     OW16882   1.623   6.168   6.160 -0.3627 -0.2307 -0.1293
 5435SOL    HW116883   1.662   6.255   6.172 -1.3823  0.0764  1.1362
 5435SOL    HW216884   1.565   6.157   6.235  2.2496 -3.4512  1.7239
 5436SOL     OW16885   1.931   7.985   4.354 -0.2575  0.1141 -0.6946
 5436SOL    HW116886   1.852   8.006   4.404  0.1367 -0.7881  0.3523
 5436SOL    HW216887   2.000   7.980   4.420  0.9365  2.0105 -1.7106
 5437SOL     OW16888   4.078   1.220   5.404  0.0608  0.3135  0.0005
 5437SOL    HW116889   4.154   1.164   5.387 -0.3963 -0.3378  0.0844
 5437SOL    HW216890   4.032   1.177   5.475 -0.3788  0.7263 -0.0293
 5438SOL     OW16891   9.221   5.543   2.201  0.6311 -0.1460  0.3653
 5438SOL    HW116892   9.217   5.598   2.124  0.6601  0.0903  0.5323
 5438SOL    HW216893   9.287   5.584   2.257  0.8046 -0.4653  0.3995
 5439SOL     OW16894   2.489   7.491   9.504 -0.5540 -0.2318  0.3239
 5439SOL    HW116895   2.446   7.482   9.589  1.9152 -0.2983  1.6594
 5439SOL    HW216896   2.516   7.403   9.482 -0.1890 -0.0481  0.0316
 5440SOL     OW16897   3.482   6.156   1.783  0.6106 -0.3407 -0.1673
 5440SOL    HW116898   3.483   6.137   1.877 -0.1220 -1.8883 -0.4392
 5440SOL    HW216899   3.408   6.216   1.772 -0.6550 -1.8174 -0.0042
 5441SOL     OW16900   8.281   2.700   6.657  0.4805  0.1995  0.0090
 5441SOL    HW116901   8.269   2.776   6.600  1.9253  1.3016  1.0976
 5441SOL    HW216902   8.320   2.633   6.600  0.7068  0.8366 -0.5966
 5442SOL     OW16903   9.905   5.624   4.848 -0.3694  0.3220 -0.2980
 5442SOL    HW116904   9.922   5.674   4.768 -0.3138 -0.1214 -0.5656
 5442SOL    HW216905   9.891   5.691   4.915 -1.3321  0.7108 -0.8594
 5443SOL     OW16906   5.277   4.871   2.685 -0.3639 -0.4503 -0.0866
 5443SOL    HW116907   5.252   4.954   2.724 -1.7287 -1.2214  0.7711
 5443SOL    HW216908   5.274   4.809   2.758 -1.9123 -1.7372 -1.1664
 5444SOL     OW16909   7.391   8.129   8.333  0.1262  0.3030 -0.6121
 5444SOL    HW116910   7.439   8.156   8.254  3.3608 -1.3430  0.5667
 5444SOL    HW216911   7.348   8.047   8.308  1.9271 -0.7265 -0.5093
 5445SOL     OW16912   4.383   4.495   6.878 -0.2461 -0.3930  0.0407
 5445SOL    HW116913   4.332   4.437   6.822 -0.1575 -0.1244 -0.3199
 5445SOL    HW216914   4.346   4.582   6.864  0.0417 -0.2609  0.0868
 5446SOL     OW16915   9.115   0.882   9.360  0.1733 -0.6771  0.6292
 5446SOL    HW116916   9.107   0.941   9.435  2.1341 -1.3593  1.4416
 5446SOL    HW216917   9.157   0.804   9.396  1.1692 -1.0132 -1.1629
 5447SOL     OW16918   8.020   1.921   7.180  0.7996 -0.5210 -0.0766
 5447SOL    HW116919   7.995   1.858   7.113 -1.3791  0.5308 -0.3189
 5447SOL    HW216920   7.947   1.922   7.242  1.0141  1.3524  0.2086
 5448SOL     OW16921   4.373   0.927   7.691  0.2356  0.1141 -0.1364
 5448SOL    HW116922   4.434   1.000   7.687  0.9156 -0.4035  0.4761
 5448SOL    HW216923   4.423   0.856   7.731 -0.6981 -0.3961  0.1620
 5449SOL     OW16924   7.186   5.598   8.544 -0.0828 -0.1833  0.7678
 5449SOL    HW116925   7.144   5.684   8.546 -0.2537 -0.1956 -0.8087
 5449SOL    HW216926   7.180   5.571   8.452  0.8882 -1.4276  1.0476
 5450SOL     OW16927   5.076   5.253   2.199  0.3985  0.5496 -0.0937
 5450SOL    HW116928   5.103   5.203   2.276 -0.8147  0.3501  0.2176
 5450SOL    HW216929   5.144   5.320   2.189  1.3607 -0.3555  0.2432
 5451SOL     OW16930   5.740   9.530   5.624  0.3763  0.2224  0.0563
 5451SOL    HW116931   5.788   9.476   5.687 -0.0103  0.2359  0.3683
 5451SOL    HW216932   5.647   9.514   5.645  0.2478  0.3532 -0.4025
 5452SOL     OW16933   7.884   4.466   2.993 -0.1672 -0.1170  0.0574
 5452SOL    HW116934   7.907   4.378   2.966 -1.9357  0.0558 -2.3003
 5452SOL    HW216935   7.788   4.466   2.998 -0.1333  0.8485  3.2445
 5453SOL     OW16936   3.041   3.497   4.543  0.1177 -0.5478  0.3559
 5453SOL    HW116937   2.979   3.512   4.471  0.1996 -1.6876  0.0253
 5453SOL    HW216938   3.105   3.568   4.535  0.4002 -0.9227 -1.0046
 5454SOL     OW16939   6.154   9.507   6.967  0.0487  0.4825 -0.4339
 5454SOL    HW116940   6.115   9.572   7.026  0.2389  0.7932 -0.6457
 5454SOL    HW216941   6.212   9.456   7.023 -0.9999 -0.2750 -0.0255
 5455SOL     OW16942   5.603   7.544   4.384  0.0691  0.2571  0.1860
 5455SOL    HW116943   5.510   7.552   4.406  0.3094  0.2145  1.3118
 5455SOL    HW216944   5.606   7.484   4.310 -0.8491  0.8076 -0.3161
 5456SOL     OW16945   8.939   2.044   0.537  0.2299 -0.2156  0.1524
 5456SOL    HW116946   8.960   2.018   0.448 -2.2757 -0.7029 -0.3672
 5456SOL    HW216947   8.892   2.127   0.528  1.6980  0.7956  1.2240
 5457SOL     OW16948   2.166   0.659   7.892  0.2351  0.6513 -0.4645
 5457SOL    HW116949   2.220   0.708   7.830  0.1341  1.7028  0.2439
 5457SOL    HW216950   2.130   0.726   7.950  0.8097 -0.3299  1.1019
 5458SOL     OW16951   8.386   6.826   7.899  0.4686 -0.1092  0.3782
 5458SOL    HW116952   8.451   6.796   7.962  2.2352 -1.1869 -1.8436
 5458SOL    HW216953   8.336   6.747   7.877 -0.4593  0.3601  0.7333
 5459SOL     OW16954   8.987   9.296   5.110  0.0447 -0.0331 -0.1864
 5459SOL    HW116955   9.016   9.306   5.019  0.1755  0.8675 -0.0574
 5459SOL    HW216956   8.892   9.285   5.104 -0.1396  1.4050 -0.3732
 5460SOL     OW16957   2.176   5.968   2.038  0.2588  0.0844  0.1894
 5460SOL    HW116958   2.165   6.017   1.957  0.7471 -0.8838 -0.4829
 5460SOL    HW216959   2.232   6.023   2.092  1.3043  0.0155 -0.7864
 5461SOL     OW16960   9.775   6.873   7.097 -0.5611 -0.4842 -0.3248
 5461SOL    HW116961   9.754   6.845   7.008  0.0666  0.8043 -0.9138
 5461SOL    HW216962   9.857   6.828   7.117 -0.4646 -0.4268 -0.5821
 5462SOL     OW16963   5.772   2.143   3.817  0.2138  0.4277  0.4960
 5462SOL    HW116964   5.765   2.147   3.912  0.9454 -0.5161  0.5994
 5462SOL    HW216965   5.863   2.164   3.798 -0.1017  1.3661 -0.0564
 5463SOL     OW16966   0.697   8.316   3.032  0.4973  0.3589  0.5215
 5463SOL    HW116967   0.677   8.341   2.942  1.4638 -0.2451  0.1252
 5463SOL    HW216968   0.665   8.389   3.085 -1.9825 -0.1710 -0.1146
 5464SOL     OW16969   1.127   6.957   4.543  0.1000  0.6141 -0.3814
 5464SOL    HW116970   1.146   6.880   4.491  1.1559  1.1435 -0.8270
 5464SOL    HW216971   1.175   6.943   4.625 -1.5903 -0.2361  0.4942
 5465SOL     OW16972   4.828   8.281   7.449  0.1286  0.1786  0.2738
 5465SOL    HW116973   4.896   8.348   7.448 -0.2601  0.7309  2.9581
 5465SOL    HW216974   4.748   8.328   7.474 -0.2985 -1.1088  1.5175
 5466SOL     OW16975   7.640   8.018   6.078  0.2638 -0.1628 -0.4815
 5466SOL    HW116976   7.724   8.063   6.072  0.3398 -0.3213 -0.5843
 5466SOL    HW216977   7.645   7.969   6.160 -0.0906  0.5733 -0.0085
 5467SOL     OW16978   4.702   0.435   6.287  0.3572 -0.2175 -0.3622
 5467SOL    HW116979   4.692   0.346   6.254  1.9211 -0.1390 -1.1736
 5467SOL    HW216980   4.721   0.487   6.209 -1.4325  1.0073 -0.0247
 5468SOL     OW16981   3.405   1.481   5.108  0.8790 -0.2835 -0.0406
 5468SOL    HW116982   3.375   1.569   5.082  0.3256 -1.0001 -1.9990
 5468SOL    HW216983   3.475   1.461   5.046  0.9449 -1.2546  0.3443
 5469SOL     OW16984   4.900   5.218   3.056  0.0310 -0.3728 -0.8469
 5469SOL    HW116985   4.868   5.255   3.138 -1.1750 -0.6638 -1.1725
 5469SOL    HW216986   4.898   5.291   2.995  1.6461  0.0392 -0.4676
 5470SOL     OW16987   6.190   3.372   4.220 -0.3173  0.2557  0.3683
 5470SOL    HW116988   6.197   3.457   4.176  1.3526  0.4933  0.9990
 5470SOL    HW216989   6.236   3.385   4.304 -1.7301 -0.7264  1.3411
 5471SOL     OW16990   2.438   2.549   8.083 -0.0480  0.5674  0.1631
 5471SOL    HW116991   2.464   2.635   8.050  0.8582  0.0925 -0.4143
 5471SOL    HW216992   2.408   2.501   8.005  3.0416 -0.9000 -0.2601
 5472SOL     OW16993   8.313   5.403   6.966  0.1664 -0.2861  0.0702
 5472SOL    HW116994   8.355   5.478   7.009  2.4778 -1.0234 -0.7700
 5472SOL    HW216995   8.224   5.433   6.947  0.1849  1.2870  2.1388
 5473SOL     OW16996   3.610   6.785   5.367  0.3603  0.4524 -0.7986
 5473SOL    HW116997   3.578   6.718   5.426  0.2616  2.6067  1.7643
 5473SOL    HW216998   3.547   6.785   5.295 -0.6827 -0.8949  0.0635
 5474SOL     OW16999   0.086   9.733   5.894  0.5145 -0.5619 -0.4964
 5474SOL    HW117000   0.069   9.668   5.826 -0.6391 -1.0609  0.2483
 5474SOL    HW217001  -0.000   9.757   5.927  1.0313 -0.0082  0.5053
 5475SOL     OW17002   9.942   6.030   9.098  0.4095  0.1701  0.0577
 5475SOL    HW117003   9.942   6.122   9.071  0.9345  0.8175  2.1076
 5475SOL    HW217004  10.012   5.990   9.047  0.6956  1.0933 -0.2857
 5476SOL     OW17005   9.209   1.038   5.533  0.8071  0.2519 -0.7448
 5476SOL    HW117006   9.179   1.052   5.443  2.3749 -1.6730 -1.6231
 5476SOL    HW217007   9.131   1.005   5.579 -0.1171  1.6344 -1.2452
 5477SOL     OW17008   2.852   0.139   2.948  0.1009  0.0543  0.6774
 5477SOL    HW117009   2.905   0.075   2.995 -0.6619  0.0347  1.5395
 5477SOL    HW217010   2.827   0.095   2.867  0.1219 -0.5035  0.9700
 5478SOL     OW17011   5.957   3.814   7.929 -0.6166 -0.2814  0.2346
 5478SOL    HW117012   5.987   3.724   7.917  1.5615  0.4236  0.0529
 5478SOL    HW217013   5.866   3.805   7.957 -0.9510 -2.4831 -1.2968
 5479SOL     OW17014   7.592   1.471   5.807  0.3653 -0.4054  0.0659
 5479SOL    HW117015   7.658   1.467   5.737  2.8779  0.0317  2.2319
 5479SOL    HW217016   7.603   1.558   5.845 -1.2820 -0.4426  0.7060
 5480SOL     OW17017   8.940   4.917   1.404 -0.2273 -0.1912 -0.0150
 5480SOL    HW117018   8.882   4.993   1.406  1.3984  1.0944  1.4067
 5480SOL    HW217019   8.996   4.932   1.327  1.3297  1.1221  1.2871
 5481SOL     OW17020   1.805   6.467   4.439 -0.0414 -0.5037 -0.0179
 5481SOL    HW117021   1.879   6.408   4.426 -0.0247 -0.3416 -0.7099
 5481SOL    HW217022   1.826   6.545   4.388 -1.3869 -1.0991 -1.6220
 5482SOL     OW17023   0.727   4.131   0.758  0.0875  0.2576 -0.0466
 5482SOL    HW117024   0.732   4.220   0.724  1.4784  0.1605 -0.1646
 5482SOL    HW217025   0.634   4.115   0.770 -0.1368  2.5078  2.0658
 5483SOL     OW17026   3.312   5.586   6.591  0.2760 -0.4409  0.1676
 5483SOL    HW117027   3.217   5.583   6.577  0.1344  0.1823  0.8950
 5483SOL    HW217028   3.339   5.495   6.596 -0.1631 -0.6394 -0.7980
 5484SOL     OW17029   8.288   5.091   3.645  0.3104  0.1621 -0.0036
 5484SOL    HW117030   8.353   5.036   3.687 -0.5807 -1.1746 -0.3089
 5484SOL    HW217031   8.334   5.134   3.573  1.4083  1.1048  1.2055
 5485SOL     OW17032   2.354   0.559   4.290  0.3254  1.1242 -0.7112
 5485SOL    HW117033   2.282   0.513   4.334 -0.3941  2.1077 -0.8108
 5485SOL    HW217034   2.323   0.572   4.201  1.0206  0.7605 -1.0153
 5486SOL     OW17035   0.448   3.535   7.819  0.3226  0.1725  0.4473
 5486SOL    HW117036   0.401   3.615   7.794 -0.1596 -0.0025  0.7701
 5486SOL    HW217037   0.408   3.467   7.765 -0.4141 -0.1309  1.3466
 5487SOL     OW17038   9.862   3.982   8.336  0.3551  0.3180 -0.0671
 5487SOL    HW117039   9.819   4.011   8.416 -1.5557 -1.4022 -0.3679
 5487SOL    HW217040   9.793   3.981   8.271  1.2914 -0.7459 -1.0916
 5488SOL     OW17041   3.792   4.654   0.595  0.1701  0.0422  0.0840
 5488SOL    HW117042   3.715   4.710   0.595 -0.7082 -1.0930 -1.0148
 5488SOL    HW217043   3.866   4.713   0.609 -0.8389  1.2622  0.3475
 5489SOL     OW17044   6.592   9.583   0.647 -0.9758  0.2991 -0.2196
 5489SOL    HW117045   6.636   9.567   0.563 -1.0237  0.5663 -0.2966
 5489SOL    HW217046   6.573   9.677   0.646 -0.5173  0.4039  0.3139
 5490SOL     OW17047   6.546   5.091   7.322  0.1039 -0.2498 -0.1198
 5490SOL    HW117048   6.486   5.148   7.274 -1.0280 -0.3848  1.1010
 5490SOL    HW217049   6.608   5.151   7.364  1.0602 -0.1238 -1.6091
 5491SOL     OW17050   2.843   1.524   2.024  0.0535  0.5091  0.5394
 5491SOL    HW117051   2.905   1.460   2.061 -0.6403 -1.4014 -1.3864
 5491SOL    HW217052   2.887   1.559   1.947 -0.1435  1.2800  0.7734
 5492SOL     OW17053   5.304   8.983   7.888 -0.2654  0.3150 -0.1159
 5492SOL    HW117054   5.328   8.965   7.979 -2.4566 -0.6900  0.3451
 5492SOL    HW217055   5.366   8.931   7.836  0.5716  0.3473  0.8206
 5493SOL     OW17056   6.582   4.387   8.368  0.3234  0.1847 -0.9449
 5493SOL    HW117057   6.660   4.430   8.332  0.2540 -0.2336 -1.6094
 5493SOL    HW217058   6.595   4.294   8.349  0.9518 -0.2657  1.3843
 5494SOL     OW17059   5.335   6.323   1.492 -0.0055 -0.0066 -0.8925
 5494SOL    HW117060   5.241   6.337   1.489  0.0364  0.2013 -1.3871
 5494SOL    HW217061   5.363   6.331   1.401  0.6701  1.1945 -0.5986
 5495SOL     OW17062   1.749   0.221   0.079  0.4793 -0.1005 -0.5165
 5495SOL    HW117063   1.828   0.206   0.026  0.2335 -0.8027 -0.6883
 5495SOL    HW217064   1.677   0.197   0.021  0.1955 -0.5524  0.0200
 5496SOL     OW17065   7.797   3.518   8.269  0.0182 -0.2112  0.3516
 5496SOL    HW117066   7.804   3.558   8.355  0.7109 -0.3582  0.3710
 5496SOL    HW217067   7.865   3.560   8.217  0.0003 -0.5495  0.0466
 5497SOL     OW17068   6.456   0.211   2.578  0.1853 -0.1614  0.1427
 5497SOL    HW117069   6.437   0.124   2.613  0.1300  0.1755  0.9892
 5497SOL    HW217070   6.535   0.238   2.624 -0.5743  0.7955  0.9467
 5498SOL     OW17071   3.684   1.910   6.946  0.2067  0.4629  0.4919
 5498SOL    HW117072   3.704   2.002   6.962 -0.4550  0.6541  0.2602
 5498SOL    HW217073   3.711   1.895   6.855  1.2506  0.1558  0.8464
 5499SOL     OW17074   8.966   8.930   0.290  0.1270 -0.4102 -0.4546
 5499SOL    HW117075   8.881   8.886   0.284  0.0021 -0.3378  0.5910
 5499SOL    HW217076   9.011   8.908   0.208 -0.6465 -0.9763 -0.7331
 5500SOL     OW17077   9.244   5.578   3.709 -0.4575  0.0395 -0.0932
 5500SOL    HW117078   9.187   5.501   3.703 -0.5816  0.1309 -0.1180
 5500SOL    HW217079   9.185   5.652   3.693 -0.2618  0.1120 -0.5078
 5501SOL     OW17080   9.654   5.223   7.367 -0.0214  0.4244  0.0358
 5501SOL    HW117081   9.590   5.222   7.438  2.4482  1.3766  2.4723
 5501SOL    HW217082   9.670   5.316   7.350  1.2088  0.2389  0.0579
 5502SOL     OW17083   3.311   8.360   0.825 -0.0781 -0.1571  0.3166
 5502SOL    HW117084   3.403   8.381   0.841 -0.4824  0.7357  1.6835
 5502SOL    HW217085   3.309   8.322   0.737  1.6462 -0.5642  0.4221
 5503SOL     OW17086   9.111   4.866   9.808  0.5899 -0.5621 -0.0801
 5503SOL    HW117087   9.193   4.817   9.812  1.1611  0.2515 -1.2016
 5503SOL    HW217088   9.134   4.955   9.834  0.4847  0.1092 -2.0890
 5504SOL     OW17089   7.950   7.269   0.680 -0.2768 -0.0889  0.0040
 5504SOL    HW117090   7.873   7.237   0.633  1.7353 -1.1539 -2.7986
 5504SOL    HW217091   7.957   7.361   0.655  0.1960 -0.3853 -0.9821
 5505SOL     OW17092  -0.006   8.171   3.843  0.7341 -0.4363  0.5882
 5505SOL    HW117093  -0.060   8.248   3.857  1.3622  0.0240  0.5452
 5505SOL    HW217094   0.077   8.192   3.885  0.5716 -1.5141  1.4814
 5506SOL     OW17095   3.424   6.207   6.243  0.2260 -0.2032  0.1694
 5506SOL    HW117096   3.458   6.145   6.308  1.7680 -1.1660 -1.4666
 5506SOL    HW217097   3.400   6.284   6.294  1.5263 -0.8605  1.8717
 5507SOL     OW17098   7.770   0.623   8.225  0.3115  0.3754 -0.0254
 5507SOL    HW117099   7.725   0.631   8.309 -0.8744  0.4695 -0.6331
 5507SOL    HW217100   7.740   0.699   8.175  2.6242  1.4988  0.1496
 5508SOL     OW17101   0.337   9.362   4.010 -0.0257  0.0238  0.4660
 5508SOL    HW117102   0.283   9.338   4.085 -2.3818  0.9362 -0.8213
 5508SOL    HW217103   0.361   9.453   4.026  0.2882 -0.0732  0.5550
 5509SOL     OW17104   9.678   9.029   7.042 -0.6381  0.5139 -0.2535
 5509SOL    HW117105   9.747   9.044   6.976 -1.4799  0.8000 -1.0869
 5509SOL    HW217106   9.630   8.954   7.009 -0.8699  0.4539  0.2157
 5510SOL     OW17107   9.726   7.647   9.617 -0.1419 -0.2668 -0.1780
 5510SOL    HW117108   9.784   7.661   9.693 -0.3065 -0.7995  0.0509
 5510SOL    HW217109   9.677   7.568   9.639 -1.6951  0.7239  0.0894
 5511SOL     OW17110   4.565   9.750   6.575  0.0137 -0.0072  0.3080
 5511SOL    HW117111   4.641   9.803   6.600  0.5497 -0.6650  0.1152
 5511SOL    HW217112   4.537   9.708   6.657  0.6415 -0.7352  0.1668
 5512SOL     OW17113   2.557   7.716   0.180 -0.4921  0.0978 -0.4344
 5512SOL    HW117114   2.467   7.728   0.209  0.0238  1.7735  0.6253
 5512SOL    HW217115   2.581   7.800   0.142  0.1102 -0.8617 -2.3048
 5513SOL     OW17116   6.386   9.545   9.517  0.1898 -0.2752 -0.0341
 5513SOL    HW117117   6.374   9.499   9.433  1.7646 -0.1049 -0.3725
 5513SOL    HW217118   6.397   9.475   9.581  0.6341 -0.4003 -0.2418
 5514SOL     OW17119   8.545   2.070   0.686 -0.3153  0.0949  0.5098
 5514SOL    HW117120   8.563   2.071   0.592 -1.0880  0.0645  0.3558
 5514SOL    HW217121   8.503   1.986   0.702 -0.4716  0.2333  0.8285
 5515SOL     OW17122   8.780   9.629   0.748 -0.0054 -0.2628 -0.0648
 5515SOL    HW117123   8.825   9.694   0.801 -1.0099 -0.0924  0.6047
 5515SOL    HW217124   8.715   9.591   0.806 -1.1947 -0.0127 -1.1841
 5516SOL     OW17125   4.833   4.452   9.787 -0.4383  0.2952  0.3068
 5516SOL    HW117126   4.780   4.386   9.832  0.1815  0.2663  1.0092
 5516SOL    HW217127   4.799   4.453   9.697  0.2159 -1.7062 -0.0035
 5517SOL     OW17128   4.503   9.458   2.649 -0.0408  0.0575 -0.1395
 5517SOL    HW117129   4.540   9.381   2.693  0.1630  0.1254 -0.1871
 5517SOL    HW217130   4.508   9.527   2.716  0.0046  0.0886 -0.1749
 5518SOL     OW17131   5.251   0.010   0.091 -0.4014 -0.3503  0.1284
 5518SOL    HW117132   5.285   0.061   0.018  0.2977  0.4016  0.9466
 5518SOL    HW217133   5.329  -0.026   0.134 -0.6665  0.5088  1.3995
 5519SOL     OW17134   3.744   9.089   3.082 -0.2406  0.1947  0.5944
 5519SOL    HW117135   3.741   9.165   3.140 -0.1562  0.6541  0.0115
 5519SOL    HW217136   3.781   9.123   3.000 -1.2369 -0.2266 -0.0469
 5520SOL     OW17137   7.112   5.758   0.556  0.2201 -0.2373 -0.0465
 5520SOL    HW117138   7.045   5.790   0.495 -1.1041  0.0092  1.4787
 5520SOL    HW217139   7.192   5.755   0.504 -0.4836  1.6234 -1.3459
 5521SOL     OW17140   6.278   0.886   6.852 -0.1277 -0.0413  0.2124
 5521SOL    HW117141   6.322   0.853   6.773  1.9941  0.4849  1.1028
 5521SOL    HW217142   6.254   0.807   6.900  1.9791 -0.4313  0.7643
 5522SOL     OW17143   2.985   7.406   1.709 -0.1844  0.0099 -0.5488
 5522SOL    HW117144   3.025   7.352   1.641 -2.1209  0.8698 -2.4963
 5522SOL    HW217145   2.918   7.350   1.747 -0.6265  0.2503 -0.9575
 5523SOL     OW17146   2.916   4.475   6.888  0.2819 -0.3794 -0.4673
 5523SOL    HW117147   2.971   4.420   6.832  0.1941 -2.5989  1.4666
 5523SOL    HW217148   2.972   4.549   6.911  0.8985 -0.3191 -2.0372
 5524SOL     OW17149   7.921   5.009   1.503  0.7516 -0.4076 -0.6066
 5524SOL    HW117150   7.842   5.063   1.494  0.4184 -0.6446  0.6381
 5524SOL    HW217151   7.993   5.072   1.508  0.2186  0.1505  2.6804
 5525SOL     OW17152   0.548   4.840   4.415  0.3835 -0.1159 -0.2957
 5525SOL    HW117153   0.504   4.901   4.474  0.5474  1.6812 -1.9209
 5525SOL    HW217154   0.577   4.894   4.342 -0.5235 -2.3424 -2.4659
 5526SOL     OW17155   7.328   4.386   9.678 -0.4734  0.2475  0.5630
 5526SOL    HW117156   7.267   4.458   9.693 -0.3534  1.0512 -2.2374
 5526SOL    HW217157   7.383   4.416   9.605 -0.7150 -2.8417 -1.0435
 5527SOL     OW17158   2.940   7.047   7.444  0.6715  0.5392 -0.3659
 5527SOL    HW117159   3.022   7.007   7.414  1.4864  0.8972  1.2840
 5527SOL    HW217160   2.964   7.094   7.524 -1.6529 -1.7461  1.8729
 5528SOL     OW17161   7.430   7.179   5.034 -0.1389 -0.0404 -0.0292
 5528SOL    HW117162   7.450   7.263   5.076 -2.4749  2.4080 -3.2894
 5528SOL    HW217163   7.385   7.128   5.102 -1.3785  2.6182  1.2818
 5529SOL     OW17164   0.294   6.555   0.754  0.0892 -0.0682 -0.0160
 5529SOL    HW117165   0.256   6.568   0.667  0.1177 -1.3392 -0.2507
 5529SOL    HW217166   0.220   6.562   0.814 -0.6051 -2.5386 -0.4673
 5530SOL     OW17167   0.254   4.362   8.496  0.1484 -0.0089  0.5176
 5530SOL    HW117168   0.254   4.398   8.407 -0.9155 -1.4877 -0.1420
 5530SOL    HW217169   0.346   4.364   8.523  0.8358 -1.3174 -1.4346
 5531SOL     OW17170   9.049   9.957   8.813  0.0093  0.1461  0.2071
 5531SOL    HW117171   9.113  10.013   8.769 -0.7223  1.2678  0.5379
 5531SOL    HW217172   9.102   9.900   8.870  0.8430 -0.3119 -1.0019
 5532SOL     OW17173   5.574   0.453   8.593 -1.1443 -1.1032 -0.1878
 5532SOL    HW117174   5.573   0.414   8.506 -0.8762  0.1676 -0.7892
 5532SOL    HW217175   5.484   0.480   8.609 -0.7917  0.7800 -1.1066
 5533SOL     OW17176   3.069   7.522   8.037  0.2038 -0.4395  0.2858
 5533SOL    HW117177   3.028   7.435   8.037  1.6273 -1.1533 -0.0295
 5533SOL    HW217178   3.084   7.542   8.129  3.1760 -2.2553  0.3428
 5534SOL     OW17179   0.640   3.346   3.849 -0.1661 -0.5900  0.1516
 5534SOL    HW117180   0.664   3.254   3.853 -0.1833 -0.6103 -0.1779
 5534SOL    HW217181   0.561   3.349   3.795  0.5934 -0.2457 -0.9726
 5535SOL     OW17182   1.505   3.251   5.037 -0.3305 -0.5450  0.0551
 5535SOL    HW117183   1.565   3.262   5.111  0.5361  1.4954 -0.8704
 5535SOL    HW217184   1.494   3.340   5.002 -2.4069 -1.1392 -0.9823
 5536SOL     OW17185   4.494   7.254   2.320  0.0030  0.1396 -0.2225
 5536SOL    HW117186   4.531   7.194   2.384 -1.5742  1.7687  2.3526
 5536SOL    HW217187   4.569   7.308   2.292  0.8736 -1.1591 -0.4775
 5537SOL     OW17188   0.109   2.331   6.937  0.3158 -0.1285 -0.0316
 5537SOL    HW117189   0.056   2.358   7.012  1.4244 -0.7247  0.9957
 5537SOL    HW217190   0.132   2.412   6.893 -1.1580  0.1671 -0.3183
 5538SOL     OW17191   2.617   3.988   7.357  0.1984  0.3494 -0.7506
 5538SOL    HW117192   2.532   3.942   7.359  0.2533  0.2217 -1.2200
 5538SOL    HW217193   2.675   3.932   7.408  0.3155 -0.2214 -1.4827
 5539SOL     OW17194   1.977   5.065   7.091  0.1167 -0.3557 -0.3562
 5539SOL    HW117195   1.895   5.048   7.137 -0.2533 -1.9006 -1.4836
 5539SOL    HW217196   2.032   4.989   7.112  1.2848  0.6694  0.4027
 5540SOL     OW17197   4.398   2.311   7.616 -0.1829 -0.0173 -0.0383
 5540SOL    HW117198   4.374   2.315   7.523  0.4719 -3.2818 -0.4760
 5540SOL    HW217199   4.492   2.328   7.617 -0.1745 -0.0666  0.0063
 5541SOL     OW17200   5.253   4.151   6.564  0.5883  0.3305  0.0532
 5541SOL    HW117201   5.286   4.172   6.651  2.2222  0.1734 -0.4972
 5541SOL    HW217202   5.215   4.233   6.531  2.2502  1.0744 -0.0679
 5542SOL     OW17203   0.225   0.988   6.066 -0.1940  0.8116 -0.4145
 5542SOL    HW117204   0.131   0.971   6.059  0.2453 -3.0551  0.6913
 5542SOL    HW217205   0.262   0.953   5.984  0.4524  0.1515  0.1406
 5543SOL     OW17206   5.958   8.864   9.551 -0.5816 -0.5557 -0.2859
 5543SOL    HW117207   5.968   8.958   9.539  1.0703 -0.6978 -0.2968
 5543SOL    HW217208   5.865   8.847   9.536 -1.1209  1.2166  0.8405
 5544SOL     OW17209   7.703   8.061   6.896  0.0650 -0.7075 -0.2615
 5544SOL    HW117210   7.675   7.992   6.836 -0.4261 -0.6749 -0.0706
 5544SOL    HW217211   7.763   8.115   6.844  0.6187 -1.3914 -0.3519
 5545SOL     OW17212   3.485   2.783   0.902 -0.6179  0.5601  0.0519
 5545SOL    HW117213   3.494   2.872   0.868 -0.8515  1.1012  1.3618
 5545SOL    HW217214   3.391   2.769   0.909 -0.7150 -0.7348 -2.4394
 5546SOL     OW17215   1.065   2.049   6.215  0.1624 -0.4389 -0.6053
 5546SOL    HW117216   0.989   2.100   6.184 -0.6108 -1.6108 -0.7188
 5546SOL    HW217217   1.122   2.114   6.256 -1.0163  0.4475 -0.2923
 5547SOL     OW17218   5.157   5.076   5.839 -0.2005  0.2262 -0.2380
 5547SOL    HW117219   5.243   5.036   5.851 -0.6934 -1.0784 -0.8207
 5547SOL    HW217220   5.151   5.143   5.907  1.4789  0.6979 -0.5325
 5548SOL     OW17221   9.552   0.612   2.128 -0.2794 -0.0321  0.4718
 5548SOL    HW117222   9.483   0.548   2.110  0.8801 -1.0169 -0.7597
 5548SOL    HW217223   9.562   0.660   2.045  0.7055 -0.1256  0.5242
 5549SOL     OW17224   6.719  -0.002   9.820  0.1185  0.1170 -0.0626
 5549SOL    HW117225   6.763   0.078   9.793  1.0341  0.5575  2.4307
 5549SOL    HW217226   6.672  -0.032   9.742  0.0037  2.8876 -1.1537
 5550SOL     OW17227   9.742   1.574   9.640 -0.3513  0.0532  0.2184
 5550SOL    HW117228   9.809   1.643   9.647 -0.5446  0.0542  3.4258
 5550SOL    HW217229   9.659   1.622   9.637 -0.4237 -0.0093  1.1284
 5551SOL     OW17230   4.721   5.798   7.910  0.1324 -0.5788 -0.2069
 5551SOL    HW117231   4.773   5.784   7.831  0.6716 -0.3671  0.0989
 5551SOL    HW217232   4.773   5.760   7.980 -1.6959 -3.4926 -0.2838
 5552SOL     OW17233   9.203   1.782   3.668 -0.4097 -0.2583  0.0062
 5552SOL    HW117234   9.149   1.751   3.596  0.0983 -1.2607  0.0377
 5552SOL    HW217235   9.232   1.702   3.712  3.0577  0.0396 -1.4205
 5553SOL     OW17236   8.983   9.479   6.721 -0.1115  0.0162  0.3237
 5553SOL    HW117237   8.964   9.571   6.703  3.6392  1.3345  1.9820
 5553SOL    HW217238   9.050   9.456   6.657 -2.5333 -2.4432 -1.5489
 5554SOL     OW17239   8.429   8.066   6.856  0.0882  0.3799  0.2396
 5554SOL    HW117240   8.454   8.135   6.795  0.2348  0.0642 -0.0611
 5554SOL    HW217241   8.512   8.029   6.887  0.0207 -0.4942 -0.5616
 5555SOL     OW17242   1.324   5.860   4.536 -0.2480 -0.0614 -0.2940
 5555SOL    HW117243   1.312   5.945   4.493 -0.1443 -0.0391 -0.2799
 5555SOL    HW217244   1.418   5.842   4.526 -0.2480 -0.1164 -0.1898
 5556SOL     OW17245   9.576   1.545   0.401 -0.3364 -0.2079 -0.1842
 5556SOL    HW117246   9.535   1.469   0.361 -2.9941 -0.1001  2.0393
 5556SOL    HW217247   9.560   1.616   0.339  1.7236 -1.2316 -2.0358
 5557SOL     OW17248   8.645   8.218   2.694  0.0303 -0.8167 -0.6060
 5557SOL    HW117249   8.569   8.240   2.639  0.2748 -2.3972 -1.6203
 5557SOL    HW217250   8.720   8.249   2.644  0.1107  2.5685  1.2552
 5558SOL     OW17251   9.710   1.732   2.750  0.0188 -0.0509  0.3079
 5558SOL    HW117252   9.739   1.813   2.706 -0.4957 -0.9811 -1.9218
 5558SOL    HW217253   9.665   1.763   2.828  1.1688  1.7392  0.3323
 5559SOL     OW17254   8.497   7.476   3.568  0.8819  0.1054 -0.2690
 5559SOL    HW117255   8.507   7.418   3.644  1.1968 -1.8419 -1.7167
 5559SOL    HW217256   8.404   7.473   3.547  0.9919 -0.3887 -0.7097
 5560SOL     OW17257   3.704   7.103   6.092  0.0070 -0.2455  0.0889
 5560SOL    HW117258   3.791   7.132   6.120 -0.5537 -0.4204  2.2512
 5560SOL    HW217259   3.714   7.081   6.000  1.6905  1.9685 -0.3500
 5561SOL     OW17260   8.259   3.338   6.418  0.2876 -0.1791  0.1588
 5561SOL    HW117261   8.190   3.399   6.390 -0.9891 -0.7671  1.8535
 5561SOL    HW217262   8.307   3.318   6.337 -0.0088  2.0904 -0.6495
 5562SOL     OW17263   2.142   8.440   0.875  0.2139  0.0892  0.7153
 5562SOL    HW117264   2.075   8.508   0.879  2.2985  2.2415  1.6463
 5562SOL    HW217265   2.193   8.461   0.797  0.7792 -0.5169  0.9095
 5563SOL     OW17266   9.793   5.197   7.801 -0.0120 -0.2060 -1.0583
 5563SOL    HW117267   9.703   5.210   7.831 -0.2515  2.5282 -2.6476
 5563SOL    HW217268   9.842   5.175   7.880 -1.7758 -0.1552  0.0952
 5564SOL     OW17269   8.394   5.324   3.057  0.1617 -0.1015  0.0642
 5564SOL    HW117270   8.483   5.339   3.088  0.3419  0.3171 -0.6512
 5564SOL    HW217271   8.338   5.369   3.121  0.3776 -1.3809  1.2007
 5565SOL     OW17272   4.626   4.357   0.194 -0.2723  0.4097 -0.1786
 5565SOL    HW117273   4.642   4.309   0.274  0.9742  0.5351 -0.3318
 5565SOL    HW217274   4.531   4.369   0.191 -0.3927 -0.2068  0.9069
 5566SOL     OW17275   2.331   6.712   4.491 -0.0657 -0.1112  0.6255
 5566SOL    HW117276   2.269   6.728   4.562  2.1598  1.1849  2.3788
 5566SOL    HW217277   2.384   6.791   4.487  1.4156 -1.1346 -0.8893
 5567SOL     OW17278   6.197   1.684   9.687 -0.1290  0.2821  0.0942
 5567SOL    HW117279   6.133   1.742   9.646 -1.8513 -0.5621  1.4177
 5567SOL    HW217280   6.228   1.732   9.764 -0.0867  0.2296  0.1106
 5568SOL     OW17281   6.001   8.385   2.829  0.0089 -0.0314  0.2233
 5568SOL    HW117282   6.085   8.343   2.809  0.0587  0.2812 -0.2511
 5568SOL    HW217283   6.006   8.470   2.784 -0.0403  0.5336  1.2597
 5569SOL     OW17284   1.202   8.986   9.665 -0.0612 -0.1572 -0.2299
 5569SOL    HW117285   1.222   9.005   9.573  0.7452  0.2293  0.0152
 5569SOL    HW217286   1.207   9.071   9.709 -1.4039 -0.1864  0.0174
 5570SOL     OW17287   1.806   2.207   0.095 -0.1532  0.1802  0.1769
 5570SOL    HW117288   1.830   2.157   0.017  0.4552 -0.3257  0.6771
 5570SOL    HW217289   1.766   2.287   0.061 -0.0908 -0.1330 -0.6490
 5571SOL     OW17290   9.443   6.587   6.444  0.1610 -0.4099 -0.0269
 5571SOL    HW117291   9.493   6.507   6.457  0.7428 -0.1228 -0.4487
 5571SOL    HW217292   9.352   6.559   6.448  0.3533 -1.0420  0.1160
 5572SOL     OW17293   2.640   6.306   0.014  0.4389  0.7061 -0.0735
 5572SOL    HW117294   2.693   6.295   0.092 -0.4943  1.6098  0.7152
 5572SOL    HW217295   2.702   6.298  -0.059  1.7883  2.3930  0.8247
 5573SOL     OW17296   6.001   1.226   2.499 -0.1532  0.1190  0.6747
 5573SOL    HW117297   6.010   1.148   2.554  1.7063 -0.4035 -0.2977
 5573SOL    HW217298   6.072   1.219   2.435 -0.8869  1.8412 -0.4034
 5574SOL     OW17299   0.223   5.878   1.915 -0.0098  0.1193  0.5016
 5574SOL    HW117300   0.292   5.820   1.883 -0.7706 -1.0282  0.8514
 5574SOL    HW217301   0.142   5.830   1.896 -0.7701  1.7273 -0.5265
 5575SOL     OW17302   5.409   7.543   9.944  0.0762 -0.4066  0.0728
 5575SOL    HW117303   5.458   7.501  10.015 -0.6978 -1.2685  0.1218
 5575SOL    HW217304   5.318   7.514   9.957 -0.3396  0.6120 -0.4029
 5576SOL     OW17305   2.973   2.341   4.817  0.0661  0.4055  0.1798
 5576SOL    HW117306   3.003   2.322   4.906 -0.3917  1.3578  0.5460
 5576SOL    HW217307   3.015   2.274   4.763  0.1569 -0.3391  1.1420
 5577SOL     OW17308   1.180   2.034   0.704  0.5339  0.2155  0.0765
 5577SOL    HW117309   1.105   2.019   0.763 -0.6404  2.1850 -0.8194
 5577SOL    HW217310   1.256   2.031   0.761 -0.6313  3.0475  1.9716
 5578SOL     OW17311   8.380   5.493   3.513  0.1388 -0.0373  0.1137
 5578SOL    HW117312   8.322   5.467   3.442  0.5603 -0.5300 -0.0602
 5578SOL    HW217313   8.420   5.574   3.483 -1.3290  0.9443  0.7353
 5579SOL     OW17314   5.090   1.223   8.564 -0.4374  0.1420 -0.0787
 5579SOL    HW117315   5.116   1.313   8.545 -1.9382  1.0168  1.6433
 5579SOL    HW217316   5.021   1.232   8.629 -0.1267 -2.3136  0.6819
 5580SOL     OW17317   5.218   1.506   7.302 -0.1303  0.1550  0.2862
 5580SOL    HW117318   5.206   1.586   7.250  0.5592  0.4946  0.6361
 5580SOL    HW217319   5.129   1.474   7.316 -0.3864  0.6040 -0.2589
 5581SOL     OW17320   7.114   0.729   1.626  0.3891 -0.2924  0.5135
 5581SOL    HW117321   7.103   0.665   1.556  1.7781  1.0110 -0.9895
 5581SOL    HW217322   7.031   0.776   1.630 -0.3486 -1.5835  1.0724
 5582SOL     OW17323   3.198   5.147   6.409  0.3164 -0.4767 -0.4648
 5582SOL    HW117324   3.251   5.221   6.378  0.4604 -0.1604  0.5113
 5582SOL    HW217325   3.255   5.101   6.471  0.1054 -1.2230 -0.8167
 5583SOL     OW17326   0.955   9.519   8.556  0.3899  0.4162 -0.1564
 5583SOL    HW117327   0.915   9.438   8.588  0.3981  1.4207  2.6842
 5583SOL    HW217328   0.925   9.526   8.466  0.0158 -2.4826 -0.3729
 5584SOL     OW17329   9.129   9.294   3.015  0.7126 -0.2665  0.1338
 5584SOL    HW117330   9.056   9.261   2.964  0.8538 -1.4587  0.6850
 5584SOL    HW217331   9.206   9.248   2.981  1.1868  0.7507 -0.2364
 5585SOL     OW17332   9.624   9.432   5.537  0.4324  0.1920  0.3265
 5585SOL    HW117333   9.621   9.497   5.467 -0.6017 -0.1795  0.0046
 5585SOL    HW217334   9.535   9.396   5.540  1.1506 -1.7335 -0.0124
 5586SOL     OW17335   1.973   6.482   2.722  0.2708 -0.0242 -0.4012
 5586SOL    HW117336   1.978   6.455   2.631  0.9090 -0.2650 -0.3032
 5586SOL    HW217337   2.054   6.532   2.736  0.0364  0.2640 -0.0490
 5587SOL     OW17338   8.042   2.024   6.388  0.0043 -0.5118  0.1705
 5587SOL    HW117339   8.116   2.084   6.374  0.8469 -0.8733  2.5104
 5587SOL    HW217340   7.972   2.079   6.423 -0.0533 -0.5192  0.0673
 5588SOL     OW17341   7.528   6.135   7.257 -0.3060  0.7057  0.7775
 5588SOL    HW117342   7.605   6.162   7.308  0.3720  1.4806 -0.6037
 5588SOL    HW217343   7.563   6.112   7.171 -1.5752  0.7010  0.2383
 5589SOL     OW17344   3.122   7.677   5.826 -0.1669  0.0862 -0.4266
 5589SOL    HW117345   3.149   7.695   5.916  1.3593 -0.6971 -0.6985
 5589SOL    HW217346   3.117   7.581   5.821 -1.1027  0.1466 -0.9509
 5590SOL     OW17347   8.540   9.682   9.485 -0.1052 -0.2747 -0.4984
 5590SOL    HW117348   8.470   9.746   9.473 -1.4852 -1.8415 -0.9785
 5590SOL    HW217349   8.601   9.700   9.413 -1.4795 -0.7732 -1.8227
 5591SOL     OW17350   8.247   8.267   3.022 -0.1146  0.0585  0.3788
 5591SOL    HW117351   8.282   8.247   3.108  0.0787  0.5419  0.4124
 5591SOL    HW217352   8.189   8.342   3.036 -0.9822 -0.5757  0.2847
 5592SOL     OW17353   9.201   0.921   6.398  0.3036 -0.0705  0.6186
 5592SOL    HW117354   9.205   0.828   6.422  1.4994 -0.1291  0.2741
 5592SOL    HW217355   9.113   0.948   6.421  0.6804 -0.6506  3.0894
 5593SOL     OW17356   4.774   5.067   2.661 -0.2970  0.2577  0.0545
 5593SOL    HW117357   4.709   5.034   2.599 -0.2988  0.0494  0.1685
 5593SOL    HW217358   4.762   5.015   2.740  1.0779 -0.8970 -0.4530
 5594SOL     OW17359   8.209   6.919   7.311 -0.1989  0.4071  0.1239
 5594SOL    HW117360   8.127   6.921   7.262 -0.4953 -1.9370  0.4552
 5594SOL    HW217361   8.274   6.889   7.248  0.3530  1.7669  0.0029
 5595SOL     OW17362   1.330   1.027   9.070 -0.0090  0.0101 -0.0835
 5595SOL    HW117363   1.320   1.122   9.063  1.2337  0.2742  1.2076
 5595SOL    HW217364   1.244   0.995   9.097 -0.6692  0.6512 -1.3343
 5596SOL     OW17365   5.085   2.607   3.742  0.1572 -0.1344 -0.1106
 5596SOL    HW117366   5.101   2.621   3.835  1.3188 -2.2238  0.0669
 5596SOL    HW217367   4.992   2.626   3.730 -0.1019 -0.2311  1.5593
 5597SOL     OW17368   9.535   2.806   9.252  0.3380 -0.4360  0.4722
 5597SOL    HW117369   9.602   2.861   9.294  0.3487 -1.2566  1.5834
 5597SOL    HW217370   9.476   2.782   9.323 -0.0233 -1.3374 -0.1125
 5598SOL     OW17371   5.611   1.483   2.530 -0.7065 -0.4294 -0.4678
 5598SOL    HW117372   5.535   1.431   2.554 -0.4547 -0.5169  0.1529
 5598SOL    HW217373   5.681   1.453   2.588 -1.0400  1.9474  1.3114
 5599SOL     OW17374   1.778   8.372   4.660  0.0114 -0.6117  0.0733
 5599SOL    HW117375   1.759   8.394   4.751  1.6736 -2.0100  0.8183
 5599SOL    HW217376   1.857   8.423   4.639 -0.7132  0.1822 -0.8254
 5600SOL     OW17377   7.962   3.394   2.026  0.7124  0.0841  0.1698
 5600SOL    HW117378   7.868   3.394   2.040  0.8803 -1.4933  1.5007
 5600SOL    HW217379   7.973   3.437   1.941 -1.2357 -0.2486 -0.2998
 5601SOL     OW17380   1.067   0.697   9.352  0.1608 -0.2001 -0.0261
 5601SOL    HW117381   1.098   0.625   9.297 -0.0234 -0.7695  0.5986
 5601SOL    HW217382   1.077   0.775   9.298  0.7930 -0.6368 -0.5542
 5602SOL     OW17383   1.128   1.293   9.299 -0.2646 -0.0937 -0.6710
 5602SOL    HW117384   1.153   1.362   9.360 -1.1105  0.4665 -0.9481
 5602SOL    HW217385   1.064   1.334   9.241 -1.4813 -1.3644 -0.2748
 5603SOL     OW17386   8.631   2.090   4.523  0.3892 -0.2239  0.1404
 5603SOL    HW117387   8.718   2.079   4.563 -0.3320 -1.9786  1.3757
 5603SOL    HW217388   8.594   2.001   4.524 -1.7224  0.6196  0.3639
 5604SOL     OW17389   0.861   2.888   0.704  0.2625 -0.3252  0.6637
 5604SOL    HW117390   0.837   2.816   0.645 -0.2592  0.4088 -0.0328
 5604SOL    HW217391   0.895   2.956   0.647  0.6543  0.0340  1.3114
 5605SOL     OW17392   5.237   8.013   6.914 -0.0459  0.3927  0.2110
 5605SOL    HW117393   5.182   7.952   6.963 -0.1310  0.2379 -0.0712
 5605SOL    HW217394   5.212   7.998   6.822  0.5226  0.2645  0.0753
 5606SOL     OW17395   9.572   2.849   2.864 -0.3004 -0.0980 -0.2389
 5606SOL    HW117396   9.541   2.765   2.831 -0.2455  0.2762 -1.2742
 5606SOL    HW217397   9.650   2.827   2.915  0.0904 -0.6094 -1.0372
 5607SOL     OW17398   8.450   8.645   7.614 -0.5488  0.1559  0.7353
 5607SOL    HW117399   8.397   8.648   7.534  1.0344 -0.1500 -0.3756
 5607SOL    HW217400   8.397   8.594   7.676 -1.2349 -0.7844 -0.5776
 5608SOL     OW17401   8.625   5.615   5.363 -0.2936  0.2637  0.3826
 5608SOL    HW117402   8.640   5.546   5.299 -1.8655  0.9750 -0.8322
 5608SOL    HW217403   8.642   5.696   5.315  2.0462  0.7824  1.9275
 5609SOL     OW17404   7.140   6.743   1.867  0.4424 -0.1180  0.6929
 5609SOL    HW117405   7.103   6.670   1.917 -1.0209 -1.0145 -1.5632
 5609SOL    HW217406   7.082   6.816   1.886 -0.2902 -0.5337  0.1087
 5610SOL     OW17407   9.578   7.570   6.626  0.2870  0.0205  0.4121
 5610SOL    HW117408   9.602   7.503   6.562  1.2495  0.2950  0.4735
 5610SOL    HW217409   9.577   7.524   6.710 -1.9576 -0.5719  0.1197
 5611SOL     OW17410   0.881   5.889   4.179  0.3463 -0.4234 -0.4481
 5611SOL    HW117411   0.911   5.848   4.261  0.6620 -0.1838 -0.4390
 5611SOL    HW217412   0.958   5.888   4.123  0.0914 -0.7063 -0.7913
 5612SOL     OW17413   0.044   2.658   3.103 -0.0446 -0.1237 -0.0349
 5612SOL    HW117414   0.140   2.651   3.104 -0.1536 -2.1184 -0.1890
 5612SOL    HW217415   0.016   2.607   3.179 -0.9884  0.7956  0.2565
 5613SOL     OW17416   2.391   0.972   2.203  0.1790 -0.4371  0.2138
 5613SOL    HW117417   2.383   1.022   2.122 -0.0191 -0.1464  0.4097
 5613SOL    HW217418   2.428   0.888   2.176 -0.4456 -0.5720 -0.2644
 5614SOL     OW17419   9.553   5.912   0.508 -0.0108  0.4272  0.0986
 5614SOL    HW117420   9.502   5.926   0.429  0.8281 -0.5031 -0.6433
 5614SOL    HW217421   9.585   5.822   0.500 -0.4788  0.0699  1.8366
 5615SOL     OW17422   2.372   3.851   0.418 -0.2284 -0.2901  0.0447
 5615SOL    HW117423   2.381   3.924   0.357  0.2298 -0.4746 -0.1143
 5615SOL    HW217424   2.394   3.774   0.366 -1.2391 -0.6081  0.0634
 5616SOL     OW17425   7.316   1.546   6.537 -0.5679 -0.5130 -0.3981
 5616SOL    HW117426   7.310   1.513   6.448  1.5241 -0.5962 -0.5596
 5616SOL    HW217427   7.353   1.474   6.587  0.6347  0.3352 -0.0149
 5617SOL     OW17428   5.405   8.801   4.570 -0.1955 -0.1924 -0.6635
 5617SOL    HW117429   5.475   8.752   4.527  1.0468  1.7876 -1.0201
 5617SOL    HW217430   5.354   8.838   4.498 -1.2281 -1.0403 -0.3974
 5618SOL     OW17431   6.005   5.900   6.746  0.5063 -0.2528 -0.0110
 5618SOL    HW117432   6.036   5.814   6.774  2.2978  0.2532 -0.3760
 5618SOL    HW217433   5.985   5.889   6.653  1.3267 -0.1296 -0.2077
 5619SOL     OW17434   2.410   6.088   1.235 -0.2320 -0.0517 -0.0203
 5619SOL    HW117435   2.458   6.169   1.257 -0.7503 -0.1070  1.4652
 5619SOL    HW217436   2.466   6.018   1.269  0.5384 -0.3967 -1.9020
 5620SOL     OW17437   7.520   1.889   7.987  0.1723 -0.4437 -0.1182
 5620SOL    HW117438   7.538   1.946   7.912  1.7110 -0.3005  0.3207
 5620SOL    HW217439   7.588   1.822   7.983 -1.1411 -1.8324 -0.1776
 5621SOL     OW17440   2.185   6.509   1.591  0.4291 -0.0985  0.2125
 5621SOL    HW117441   2.150   6.489   1.678 -0.6453 -3.0442 -0.7835
 5621SOL    HW217442   2.155   6.599   1.574  0.0873  0.3017  2.5686
 5622SOL     OW17443   8.983   7.574   5.242  0.5586 -0.3570  0.7142
 5622SOL    HW117444   9.024   7.490   5.264 -0.6955 -1.1380  0.1938
 5622SOL    HW217445   8.988   7.625   5.323  1.2945 -0.9450  1.0537
 5623SOL     OW17446   6.615   8.133   3.143  0.0095 -0.3894 -0.7303
 5623SOL    HW117447   6.572   8.088   3.216 -0.2838  1.5871  0.3749
 5623SOL    HW217448   6.683   8.186   3.185 -1.6553  2.5676 -1.5753
 5624SOL     OW17449   4.452   1.195   0.493  0.3639  0.3110  0.1995
 5624SOL    HW117450   4.382   1.248   0.531 -0.7947 -0.2399 -1.0689
 5624SOL    HW217451   4.463   1.122   0.553 -0.3103  0.2981  0.3133
 5625SOL     OW17452   1.391   4.763   4.302 -0.2161  0.4513  0.5585
 5625SOL    HW117453   1.319   4.750   4.241  0.9735  0.6868 -0.9473
 5625SOL    HW217454   1.372   4.705   4.375 -1.9030  0.4882  0.1830
 5626SOL     OW17455   7.310   1.549   3.319 -0.0580 -0.6100 -0.0764
 5626SOL    HW117456   7.398   1.557   3.282 -0.3596 -0.1250 -0.6996
 5626SOL    HW217457   7.307   1.461   3.356  0.0732 -1.3096 -1.6576
 5627SOL     OW17458   5.907   4.684   3.340 -0.0872  0.1996 -0.3578
 5627SOL    HW117459   5.883   4.770   3.373  0.7545  0.1085  0.5394
 5627SOL    HW217460   6.003   4.684   3.341 -0.0640 -1.2768  1.0824
 5628SOL     OW17461   0.632   9.481   4.792  0.6224 -0.7545  0.1292
 5628SOL    HW117462   0.659   9.466   4.883 -0.1655  2.4210  1.0180
 5628SOL    HW217463   0.562   9.417   4.777 -0.5230 -0.1564  2.4608
 5629SOL     OW17464   7.820   3.097   3.340 -0.8801 -0.5074 -0.2948
 5629SOL    HW117465   7.885   3.166   3.328 -0.3617 -1.0723 -0.8472
 5629SOL    HW217466   7.744   3.141   3.379  0.0812  0.0249  1.0312
 5630SOL     OW17467   5.245   5.761   9.701  0.2902  0.2312 -0.6049
 5630SOL    HW117468   5.245   5.670   9.731 -3.1222 -0.5081 -2.3074
 5630SOL    HW217469   5.297   5.760   9.621  0.6069 -0.1288 -0.3981
 5631SOL     OW17470   7.468   6.996   3.908  0.1745 -0.1810  0.5652
 5631SOL    HW117471   7.383   7.031   3.882  0.6313  1.0104  0.6287
 5631SOL    HW217472   7.528   7.071   3.903  1.0818 -0.8433  1.1881
 5632SOL     OW17473   1.514   7.250   3.933 -0.2009  0.6934 -0.0613
 5632SOL    HW117474   1.590   7.308   3.934  0.5500 -0.2441 -0.5001
 5632SOL    HW217475   1.520   7.204   3.849  0.0631 -1.0542  0.8568
 5633SOL     OW17476   8.261   6.481   6.793 -0.5400 -0.8859 -0.5938
 5633SOL    HW117477   8.254   6.393   6.755  0.9879 -0.1604 -2.7226
 5633SOL    HW217478   8.340   6.477   6.847 -0.2085 -0.7289 -1.0556
 5634SOL     OW17479   4.044   8.371   3.221 -0.6507 -0.4389  0.4433
 5634SOL    HW117480   4.022   8.464   3.215  0.6695 -0.0777  0.7940
 5634SOL    HW217481   4.014   8.345   3.308 -1.2885 -0.4129  0.2291
 5635SOL     OW17482   1.268   9.830   0.175  0.3093  0.0930  0.0977
 5635SOL    HW117483   1.260   9.805   0.267 -0.0920 -1.2406 -0.2804
 5635SOL    HW217484   1.240   9.922   0.173 -3.2074 -0.7946  0.7999
 5636SOL     OW17485   8.640   1.553   1.255 -0.6318  0.1068 -0.7476
 5636SOL    HW117486   8.730   1.581   1.240 -0.6998 -0.2258 -1.8943
 5636SOL    HW217487   8.647   1.478   1.314 -0.1970  0.4037 -0.4257
 5637SOL     OW17488   5.250   7.102   2.099  0.2240 -0.3612 -0.4730
 5637SOL    HW117489   5.239   7.038   2.170  0.0818  2.4982  2.3362
 5637SOL    HW217490   5.331   7.148   2.120  0.4787  0.2289 -2.5470
 5638SOL     OW17491   6.601   9.681   2.723  0.5544  0.0605  0.4787
 5638SOL    HW117492   6.589   9.678   2.818  2.0525  0.4398  0.7154
 5638SOL    HW217493   6.684   9.727   2.711 -1.9828  4.7685 -1.2297
 5639SOL     OW17494   4.320   6.598   2.349  0.4173 -0.0203 -0.0899
 5639SOL    HW117495   4.309   6.576   2.441 -1.3830  0.2035 -0.2176
 5639SOL    HW217496   4.284   6.686   2.341  0.4703 -0.0761 -1.0288
 5640SOL     OW17497   8.671   1.555   3.908  0.6371  0.0539  1.0022
 5640SOL    HW117498   8.626   1.575   3.826 -1.8724  1.8847  2.6939
 5640SOL    HW217499   8.639   1.468   3.932  1.7860 -0.7252 -0.1289
 5641SOL     OW17500   3.814   2.372   3.965  0.1965 -0.0043 -0.1360
 5641SOL    HW117501   3.797   2.370   3.871 -2.1102 -2.5938  0.2163
 5641SOL    HW217502   3.734   2.409   4.003  0.8100  0.3042  0.8883
 5642SOL     OW17503   5.792   9.071   9.978 -0.0992 -0.2932  0.5128
 5642SOL    HW117504   5.769   9.164   9.987 -0.3841 -0.0271 -2.1877
 5642SOL    HW217505   5.883   9.072   9.947  0.0859 -0.9572  1.0187
 5643SOL     OW17506   1.900   2.359   1.755 -0.9993 -0.1596 -0.3344
 5643SOL    HW117507   1.843   2.310   1.813 -0.2727 -1.0410 -0.3499
 5643SOL    HW217508   1.966   2.398   1.813  0.2385 -1.7462 -0.6147
 5644SOL     OW17509   5.222   4.014   8.186 -0.2839  0.3023 -0.1096
 5644SOL    HW117510   5.158   3.950   8.154 -0.0653  0.5830 -1.1399
 5644SOL    HW217511   5.208   4.092   8.133  1.2396  0.1962 -0.7097
 5645SOL     OW17512   7.356   0.328   8.121 -0.0769 -0.2535  0.4180
 5645SOL    HW117513   7.329   0.260   8.183 -0.3559 -0.1811  0.3791
 5645SOL    HW217514   7.451   0.330   8.126  0.2875 -3.2348 -2.2635
 5646SOL     OW17515   9.381   1.759   2.436  0.0993 -0.0646  0.2208
 5646SOL    HW117516   9.432   1.788   2.361  0.7168  1.1600  1.0733
 5646SOL    HW217517   9.380   1.664   2.430 -0.4526  0.0235 -1.6991
 5647SOL     OW17518   5.620   3.754   1.708  0.8270 -0.0679 -0.0561
 5647SOL    HW117519   5.546   3.771   1.651 -0.5615 -1.3022  1.2760
 5647SOL    HW217520   5.602   3.806   1.787  1.4411 -0.2955  0.2437
 5648SOL     OW17521   5.800   6.853   7.472 -0.1806 -0.0246 -0.1216
 5648SOL    HW117522   5.819   6.881   7.382 -2.5722 -0.8509 -0.9760
 5648SOL    HW217523   5.765   6.764   7.462 -2.2487  0.5455  1.3764
 5649SOL     OW17524   9.636   6.375   6.390 -0.3547  0.4520  0.3756
 5649SOL    HW117525   9.688   6.384   6.470 -1.9161  2.3406  1.2412
 5649SOL    HW217526   9.695   6.405   6.320 -0.1585  2.3170  1.2936
 5650SOL     OW17527   8.778   0.417   3.804 -0.1226  0.2783  0.2134
 5650SOL    HW117528   8.786   0.325   3.779  0.6116 -0.8622  3.9575
 5650SOL    HW217529   8.684   0.434   3.803 -0.5206 -1.4287  1.9581
 5651SOL     OW17530   1.383   6.062   1.670  0.3282  0.4644  0.6448
 5651SOL    HW117531   1.326   6.135   1.692  1.4652  1.9344 -1.0173
 5651SOL    HW217532   1.338   6.018   1.597 -0.0423 -0.1149  1.2176
 5652SOL     OW17533   5.324   9.024   3.628  0.5133  0.5011 -0.5550
 5652SOL    HW117534   5.312   9.048   3.536 -0.3286 -0.7604 -0.8148
 5652SOL    HW217535   5.418   9.032   3.643  0.4403  2.5004 -0.9824
 5653SOL     OW17536   9.499   9.678   7.017 -1.0504  0.7128 -0.7677
 5653SOL    HW117537   9.454   9.652   6.937 -0.9245  0.0429 -0.6232
 5653SOL    HW217538   9.462   9.623   7.086  0.2257 -0.1167 -0.7082
 5654SOL     OW17539   9.251   5.259   0.831  0.1405 -0.2937  0.1194
 5654SOL    HW117540   9.285   5.171   0.847  3.5671  0.8573  0.0320
 5654SOL    HW217541   9.256   5.270   0.735 -2.2118 -0.6242 -0.0993
 5655SOL     OW17542   2.506   6.692   4.757  0.0764 -0.1798 -0.4194
 5655SOL    HW117543   2.478   6.763   4.700 -0.2000  0.4108  0.4266
 5655SOL    HW217544   2.600   6.683   4.741  0.1687  0.5809 -0.3133
 5656SOL     OW17545   6.863   6.207   5.031 -0.4632  0.6526 -0.4017
 5656SOL    HW117546   6.863   6.116   5.058 -2.0116  0.7979  0.2175
 5656SOL    HW217547   6.854   6.256   5.113  1.4551  1.4314 -0.6190
 5657SOL     OW17548   4.769   6.791   0.282  0.0140 -0.1102  0.4523
 5657SOL    HW117549   4.712   6.718   0.259  0.1444 -0.3400  0.8296
 5657SOL    HW217550   4.837   6.791   0.215 -1.1762  1.0484 -0.8246
 5658SOL     OW17551   0.138   5.885   0.304  0.1598  0.0001 -0.3927
 5658SOL    HW117552   0.093   5.818   0.252  1.5946 -0.8361 -0.6013
 5658SOL    HW217553   0.192   5.836   0.365  1.3731  0.9571 -0.6629
 5659SOL     OW17554   2.072   6.514   7.721 -0.1237  0.2187 -0.3624
 5659SOL    HW117555   2.159   6.482   7.745 -1.3044 -2.3924  0.7659
 5659SOL    HW217556   2.023   6.516   7.803 -1.6374 -0.0846 -1.2204
 5660SOL     OW17557   5.046   9.011   8.464  0.0953 -0.2923  0.1805
 5660SOL    HW117558   5.072   8.960   8.541 -0.3782  2.0201  1.9576
 5660SOL    HW217559   5.129   9.034   8.422  0.4938  0.1380  1.1734
 5661SOL     OW17560   0.701   7.721   1.795  0.2489 -0.1872  0.5065
 5661SOL    HW117561   0.716   7.655   1.863  0.4908 -0.2221  0.4203
 5661SOL    HW217562   0.708   7.672   1.713 -0.9834 -0.3411  0.4679
 5662SOL     OW17563   0.307   6.028   5.457  0.3202 -0.4835  0.0810
 5662SOL    HW117564   0.380   6.009   5.516 -0.5857  1.2680  1.8779
 5662SOL    HW217565   0.230   5.997   5.504 -0.2870 -0.6171 -0.9740
 5663SOL     OW17566   4.478   5.834   1.710  0.8937 -0.0085 -0.2758
 5663SOL    HW117567   4.453   5.908   1.655  0.2440 -1.0117 -1.3807
 5663SOL    HW217568   4.506   5.766   1.648  1.5641 -0.6602  0.7084
 5664SOL     OW17569   7.398   1.711   7.829 -0.2256  0.1411  0.3055
 5664SOL    HW117570   7.478   1.660   7.816 -0.0014  0.8937 -1.5213
 5664SOL    HW217571   7.420   1.774   7.898  1.2839  1.2733 -1.1229
 5665SOL     OW17572   9.505   4.041   3.734  0.3375 -0.4438 -0.2236
 5665SOL    HW117573   9.518   3.996   3.817  0.7831  0.1782  0.0510
 5665SOL    HW217574   9.580   4.015   3.681  1.9848  1.8873  0.8043
 5666SOL     OW17575   5.608   8.696   0.389 -0.0982  0.0981  0.2644
 5666SOL    HW117576   5.618   8.787   0.359  0.1956  0.4251  1.3018
 5666SOL    HW217577   5.658   8.693   0.471 -0.1346 -0.9984  0.2514
 5667SOL     OW17578   4.658   6.349   0.104  0.1944  0.2286  0.9340
 5667SOL    HW117579   4.612   6.327   0.023 -0.1810  2.1868  0.5702
 5667SOL    HW217580   4.721   6.416   0.079 -0.0829  1.0292  2.2829
 5668SOL     OW17581   4.215   5.926   4.732  0.3954  0.6067 -0.1900
 5668SOL    HW117582   4.132   5.923   4.780  1.1144 -1.2386  1.0606
 5668SOL    HW217583   4.212   5.849   4.675  1.7154 -0.1707  0.7465
 5669SOL     OW17584   3.957   8.882   5.785 -0.0961  0.1407 -0.3866
 5669SOL    HW117585   3.914   8.797   5.771  0.2794 -0.1033 -0.0989
 5669SOL    HW217586   3.885   8.942   5.805 -0.4150  0.0023 -1.0832
 5670SOL     OW17587   9.840   2.677   8.463 -0.0557  0.0619 -0.3415
 5670SOL    HW117588   9.858   2.645   8.552 -0.1628  0.0371 -0.3290
 5670SOL    HW217589   9.850   2.599   8.407  0.5515  0.1903 -0.4198
 5671SOL     OW17590   6.755   4.407   1.816  0.0783  0.5034 -0.2405
 5671SOL    HW117591   6.732   4.367   1.732  0.3145 -0.3429  0.0868
 5671SOL    HW217592   6.734   4.500   1.805  3.3447  1.1705 -2.4635
 5672SOL     OW17593   7.891   5.766   1.325 -0.4364  0.0468  0.1418
 5672SOL    HW117594   7.812   5.746   1.274  0.3497 -2.6336 -0.1568
 5672SOL    HW217595   7.865   5.841   1.380 -2.6876  0.1979 -1.0037
 5673SOL     OW17596   1.507   0.326   8.839  0.0629  0.0596  0.0592
 5673SOL    HW117597   1.597   0.308   8.868  0.0054 -1.4005 -0.5298
 5673SOL    HW217598   1.455   0.325   8.919  0.4531  0.0418  0.3164
 5674SOL     OW17599   3.429   9.814   6.198 -0.1840 -0.6284  0.1329
 5674SOL    HW117600   3.341   9.851   6.210 -0.4284 -1.7882  2.4031
 5674SOL    HW217601   3.437   9.749   6.267  2.7521 -0.0478  0.4377
 5675SOL     OW17602   2.814   3.778   3.754 -0.0052  0.3741  0.4505
 5675SOL    HW117603   2.773   3.840   3.814 -1.3316 -0.2140  0.1921
 5675SOL    HW217604   2.746   3.712   3.737  1.0954 -0.7193  0.1057
 5676SOL     OW17605   9.473   2.040   9.587  0.5383  0.2309  0.0148
 5676SOL    HW117606   9.489   2.121   9.635 -1.2118  0.6649 -0.0685
 5676SOL    HW217607   9.461   2.067   9.496 -2.5254  0.2707  0.3385
 5677SOL     OW17608   7.040   4.882   0.458 -0.4844 -0.1757  0.2669
 5677SOL    HW117609   7.053   4.964   0.411 -0.8859 -0.2337  0.0540
 5677SOL    HW217610   6.952   4.853   0.434 -0.1100 -1.0023 -0.1821
 5678SOL     OW17611   0.895   5.837   5.953 -0.7980  0.4947  0.5371
 5678SOL    HW117612   0.814   5.888   5.947 -0.2180  1.6515  1.9006
 5678SOL    HW217613   0.964   5.900   5.930 -0.3073 -0.6323 -1.1958
 5679SOL     OW17614   8.719   6.969   0.752 -0.0558 -0.3075  0.3334
 5679SOL    HW117615   8.655   6.917   0.703 -0.2642  0.0206  0.2529
 5679SOL    HW217616   8.670   7.047   0.780  1.0190  1.4842 -2.3371
 5680SOL     OW17617   6.968   9.234   2.033  0.2179 -0.1925  0.3257
 5680SOL    HW117618   7.062   9.230   2.049  0.1630  0.1978  0.7675
 5680SOL    HW217619   6.929   9.248   2.119 -0.3534 -1.7060  0.3489
 5681SOL     OW17620   0.046   3.847   3.168  0.1729 -0.6850 -0.6905
 5681SOL    HW117621  -0.004   3.777   3.209  1.3097 -0.7488  0.6681
 5681SOL    HW217622  -0.011   3.924   3.173 -0.7865 -1.3297 -1.5212
 5682SOL     OW17623   0.629   9.971   0.696  0.0604  0.3313  0.5070
 5682SOL    HW117624   0.679   9.944   0.618  0.6832  0.3831  0.8806
 5682SOL    HW217625   0.683   9.942   0.770 -0.7156 -0.0611  0.9237
 5683SOL     OW17626   1.263   6.785   8.638  0.4831 -0.0030 -0.1009
 5683SOL    HW117627   1.265   6.822   8.726 -1.1287  1.2321 -0.5333
 5683SOL    HW217628   1.263   6.690   8.652  0.2494  0.1751  1.2212
 5684SOL     OW17629   7.349   5.895   6.494  0.1086 -0.1580  0.1723
 5684SOL    HW117630   7.311   5.808   6.491  1.9186 -1.0381  0.8592
 5684SOL    HW217631   7.405   5.900   6.417  0.6598  0.0607  0.5771
 5685SOL     OW17632   5.631   6.204   9.198  0.6057 -0.4312 -0.5878
 5685SOL    HW117633   5.566   6.191   9.266  0.1635 -1.5175 -1.1893
 5685SOL    HW217634   5.715   6.202   9.244  0.2207  1.7191  0.2926
 5686SOL     OW17635   5.880   8.053   2.665  0.4992 -0.1135  0.6795
 5686SOL    HW117636   5.819   8.094   2.603 -1.9748  1.0758  3.6267
 5686SOL    HW217637   5.880   8.111   2.741  1.9570 -2.3313  2.5148
 5687SOL     OW17638   2.206   1.929   1.055 -0.4973  0.1559 -0.0437
 5687SOL    HW117639   2.190   1.835   1.063  0.9249 -0.0857  0.2842
 5687SOL    HW217640   2.246   1.939   0.969  2.9124 -0.1511  1.3481
 5688SOL     OW17641   5.544   9.453   5.103 -0.1149  0.2572  0.6105
 5688SOL    HW117642   5.602   9.436   5.029  1.0484  0.3349  1.4729
 5688SOL    HW217643   5.478   9.383   5.098 -0.5072  0.7059 -0.9120
 5689SOL     OW17644   9.896   8.212   1.519  0.1215  0.4688  0.5850
 5689SOL    HW117645   9.841   8.265   1.462  0.5801  1.8114  1.3427
 5689SOL    HW217646   9.835   8.158   1.569 -0.3447  0.1515 -0.3241
 5690SOL     OW17647   5.320   4.274   4.584  0.2774  0.1328 -0.0178
 5690SOL    HW117648   5.276   4.319   4.512 -0.1608  0.8483  0.6750
 5690SOL    HW217649   5.324   4.182   4.557  1.8306  0.6605 -1.7702
 5691SOL     OW17650   6.529   8.560   7.593 -0.3961 -0.1503 -0.0850
 5691SOL    HW117651   6.599   8.593   7.537  0.1462  0.5310  0.9543
 5691SOL    HW217652   6.460   8.532   7.533  0.2396  0.3957 -1.0794
 5692SOL     OW17653   7.459   0.660   1.207 -0.1936  0.6240 -0.2146
 5692SOL    HW117654   7.552   0.654   1.229 -0.3425  0.1876  0.3157
 5692SOL    HW217655   7.458   0.677   1.113  0.4093 -0.1912 -0.3785
 5693SOL     OW17656   5.873   7.590   4.174  0.8668 -0.1692 -0.0691
 5693SOL    HW117657   5.819   7.669   4.182  2.4655  0.7827  2.1281
 5693SOL    HW217658   5.810   7.520   4.157 -0.6434  1.4535 -1.7133
 5694SOL     OW17659   0.498   6.371   8.845  0.4369 -0.2948  0.1598
 5694SOL    HW117660   0.565   6.323   8.894  1.3870  0.6073 -0.2175
 5694SOL    HW217661   0.527   6.367   8.754 -0.5273 -0.6852 -0.1459
 5695SOL     OW17662   3.409   6.689   7.154 -0.4237  0.2622  0.1550
 5695SOL    HW117663   3.488   6.737   7.182 -0.1179 -0.0087 -0.2304
 5695SOL    HW217664   3.400   6.711   7.061  0.3963 -1.3347 -0.3303
 5696SOL     OW17665   1.802   2.406   6.033 -0.2564 -0.4275  0.2173
 5696SOL    HW117666   1.731   2.452   6.078  0.1674 -0.4807  0.9597
 5696SOL    HW217667   1.773   2.400   5.943 -1.4951 -1.0426  0.6361
 5697SOL     OW17668   4.965   6.867   5.119  0.0113 -0.3104  0.3076
 5697SOL    HW117669   5.026   6.939   5.107  0.3926 -0.5969  0.5040
 5697SOL    HW217670   5.017   6.788   5.102 -0.1344 -0.5878  1.0979
 5698SOL     OW17671   6.437   2.330   3.330  0.8016 -0.0862  0.7503
 5698SOL    HW117672   6.416   2.409   3.281 -0.0378 -1.0286 -0.4705
 5698SOL    HW217673   6.526   2.345   3.363  1.9189  0.1326 -2.0779
 5699SOL     OW17674   8.263   2.714   5.083  0.3257 -0.5129  0.1287
 5699SOL    HW117675   8.235   2.804   5.097 -2.6839 -1.4016  0.6590
 5699SOL    HW217676   8.255   2.673   5.169  1.5350 -1.3393 -0.1317
 5700SOL     OW17677   6.800   2.884   6.609  0.3090  0.2948 -0.2455
 5700SOL    HW117678   6.794   2.933   6.691  3.2544 -0.3143  0.4574
 5700SOL    HW217679   6.818   2.950   6.542  0.9845  0.5247  0.1504
 5701SOL     OW17680   2.786   2.559   2.423 -0.5514 -0.4211  0.6609
 5701SOL    HW117681   2.755   2.571   2.513 -0.0707  0.2950  0.7421
 5701SOL    HW217682   2.858   2.496   2.431 -1.1177 -1.0851  0.6432
 5702SOL     OW17683   3.641   0.306   9.277 -0.0713 -0.1087  0.5787
 5702SOL    HW117684   3.547   0.326   9.282 -0.2071 -0.8438  1.2164
 5702SOL    HW217685   3.678   0.348   9.355  0.2822  0.9090 -0.1229
 5703SOL     OW17686   8.343   2.474   2.318 -0.1491 -0.1514 -0.6627
 5703SOL    HW117687   8.438   2.479   2.329 -0.1636 -0.6108 -0.2619
 5703SOL    HW217688   8.318   2.559   2.282  0.4883 -0.2547 -1.3576
 5704SOL     OW17689   3.874   9.733   8.553 -0.1953  0.7585  0.4813
 5704SOL    HW117690   3.911   9.740   8.641 -1.4182  0.4118  1.0553
 5704SOL    HW217691   3.884   9.641   8.529 -0.2765  0.7579  0.4473
 5705SOL     OW17692   3.835   7.374   1.641  0.5102 -0.2094  0.0539
 5705SOL    HW117693   3.839   7.361   1.736  1.9258 -1.7182 -0.1736
 5705SOL    HW217694   3.832   7.469   1.630 -0.3721 -0.0346  1.6159
 5706SOL     OW17695   7.760   0.451   5.805  0.2261 -0.0901 -0.6131
 5706SOL    HW117696   7.811   0.408   5.737  0.8185 -1.7534  0.8137
 5706SOL    HW217697   7.670   0.427   5.787  0.3120 -0.0397 -1.1273
 5707SOL     OW17698   1.062   8.605   8.929 -0.0767  0.0217  0.0500
 5707SOL    HW117699   1.120   8.670   8.890 -1.9431  0.2048 -2.5939
 5707SOL    HW217700   1.096   8.521   8.897  0.3336 -0.0982  0.7664
 5708SOL     OW17701   6.373   0.895   0.371 -0.2890 -0.9898  0.1129
 5708SOL    HW117702   6.357   0.826   0.307 -0.9531  0.0106 -0.8234
 5708SOL    HW217703   6.416   0.964   0.322  0.8868 -0.9319  1.1664
 5709SOL     OW17704   8.181   7.029   1.682  0.0405  0.3547  0.9223
 5709SOL    HW117705   8.182   7.055   1.590 -1.8786  1.9782  1.2866
 5709SOL    HW217706   8.219   7.103   1.728 -1.6235  0.8068  1.6385
 5710SOL     OW17707   3.024   3.984   0.253 -0.1612  0.3361  0.0487
 5710SOL    HW117708   3.073   4.065   0.244 -0.0906  0.1795 -1.0269
 5710SOL    HW217709   3.054   3.947   0.336  1.6075  0.1973 -0.6205
 5711SOL     OW17710   4.090   9.530   0.015 -0.5999 -0.1687  0.2786
 5711SOL    HW117711   4.154   9.468   0.050 -2.7985 -2.9913 -0.2816
 5711SOL    HW217712   4.044   9.563   0.092  0.6291  0.9214  0.5859
 5712SOL     OW17713   7.927   5.325   1.169  0.4149  0.1022 -0.3486
 5712SOL    HW117714   7.871   5.251   1.192 -0.5358  1.4546  2.0465
 5712SOL    HW217715   7.866   5.396   1.151  1.3335  0.6015 -1.5988
 5713SOL     OW17716   0.551   4.616   1.496  0.5284 -0.6898  0.0461
 5713SOL    HW117717   0.557   4.674   1.420  1.6876  0.1312  0.7380
 5713SOL    HW217718   0.522   4.532   1.459 -2.1236  0.5079 -0.8527
 5714SOL     OW17719   1.301   9.946   6.939 -0.5952 -0.2682  0.2916
 5714SOL    HW117720   1.320   9.961   7.031 -2.3118 -1.8860  0.9669
 5714SOL    HW217721   1.237  10.014   6.916 -0.5170 -0.1494  0.4254
 5715SOL     OW17722   8.692   2.734   2.768 -0.1423 -0.4913 -0.3520
 5715SOL    HW117723   8.711   2.642   2.782 -0.9187 -0.8974 -1.7313
 5715SOL    HW217724   8.774   2.771   2.735  0.0110 -0.8101 -0.3251
 5716SOL     OW17725   6.340   3.186   7.579  0.1401  0.6952  0.2351
 5716SOL    HW117726   6.399   3.179   7.505  0.5497 -0.3371  0.6333
 5716SOL    HW217727   6.253   3.188   7.541  0.3324 -0.1417 -0.2695
 5717SOL     OW17728   9.221   0.761   8.780 -0.1769  0.1316  0.0085
 5717SOL    HW117729   9.306   0.776   8.821  0.0168  0.9238 -0.6475
 5717SOL    HW217730   9.213   0.666   8.776  0.4496  0.0466  0.5321
 5718SOL     OW17731   3.084   1.604   9.142  0.6346 -0.1023  0.0507
 5718SOL    HW117732   3.010   1.546   9.161  1.1064 -0.5431  0.5829
 5718SOL    HW217733   3.125   1.567   9.064  1.1562 -0.7207  0.6031
 5719SOL     OW17734   8.216   7.932   9.937  0.9228 -0.4244 -0.5268
 5719SOL    HW117735   8.281   7.978   9.883 -0.5878  1.7601 -0.6386
 5719SOL    HW217736   8.151   7.900   9.874  1.7084 -2.3932 -0.3988
 5720SOL     OW17737   6.303   6.347   4.261  0.0322  0.4437  0.4599
 5720SOL    HW117738   6.236   6.382   4.203 -0.3580  1.4019  1.4484
 5720SOL    HW217739   6.362   6.298   4.204  0.2970  2.2701 -0.9081
 5721SOL     OW17740   1.975   8.739   7.989  0.2831 -0.3937 -0.4404
 5721SOL    HW117741   1.970   8.803   8.060 -0.9186 -0.6668 -0.2660
 5721SOL    HW217742   1.910   8.768   7.925 -0.7111 -1.7286 -0.0899
 5722SOL     OW17743   6.082   0.925   2.246 -0.1964 -0.3443 -0.2277
 5722SOL    HW117744   5.998   0.923   2.200 -0.9271  0.6025  1.0144
 5722SOL    HW217745   6.081   0.848   2.303 -0.9705  0.5696  1.0258
 5723SOL     OW17746   3.992   4.829   0.684 -0.0239 -0.9587  0.3129
 5723SOL    HW117747   4.050   4.854   0.612  1.0741 -1.6060  0.9457
 5723SOL    HW217748   3.982   4.909   0.735  0.0651 -0.7690  0.0379
 5724SOL     OW17749   6.298   3.248   3.349 -0.7373  0.2862  0.0944
 5724SOL    HW117750   6.277   3.176   3.290 -0.5863 -0.4464  0.9179
 5724SOL    HW217751   6.213   3.276   3.385 -0.6618 -0.4864  0.9096
 5725SOL     OW17752   6.389   2.514   5.563  0.1645  0.2784  0.5070
 5725SOL    HW117753   6.474   2.546   5.533  0.0356  1.0504  0.9268
 5725SOL    HW217754   6.372   2.564   5.644 -0.5202 -0.1207  0.6156
 5726SOL     OW17755   2.846   4.652   4.088 -0.2472  0.0323  0.4318
 5726SOL    HW117756   2.886   4.723   4.038  2.7443 -0.6659  1.6038
 5726SOL    HW217757   2.905   4.639   4.163 -1.8213 -2.2851  1.3907
 5727SOL     OW17758   0.030   9.882   4.731  0.3065 -0.5541  0.2490
 5727SOL    HW117759   0.068   9.816   4.789 -1.8136 -2.6409 -0.5347
 5727SOL    HW217760   0.002   9.833   4.654 -1.1628  1.3197 -0.4972
 5728SOL     OW17761   6.186   6.359   1.869  0.3758 -0.6523  0.1419
 5728SOL    HW117762   6.159   6.380   1.958  1.0735  0.5646  0.0864
 5728SOL    HW217763   6.231   6.438   1.838 -1.1591 -0.4775 -1.8175
 5729SOL     OW17764   6.936   7.316   5.027 -0.1687  0.1216 -0.2167
 5729SOL    HW117765   6.870   7.250   5.006 -0.4753  0.1262  0.6866
 5729SOL    HW217766   7.019   7.277   5.000 -0.2842 -0.8685  0.7998
 5730SOL     OW17767   8.104   7.587   9.241 -0.9158  0.1414  0.7482
 5730SOL    HW117768   8.191   7.607   9.208 -1.4054 -0.6744 -1.1385
 5730SOL    HW217769   8.099   7.633   9.325  1.5517 -0.3757  1.2286
 5731SOL     OW17770   3.232   2.017   3.237  0.2282 -0.0413 -0.4686
 5731SOL    HW117771   3.287   1.976   3.170 -0.2293 -1.5096  0.0241
 5731SOL    HW217772   3.159   1.956   3.250 -1.0207  1.4104 -0.4136
 5732SOL     OW17773   2.590   5.757   3.942 -0.6309  0.0852 -0.0987
 5732SOL    HW117774   2.544   5.694   3.887  2.6117 -2.6446 -0.0019
 5732SOL    HW217775   2.559   5.738   4.031 -1.5286  0.4259 -0.3261
 5733SOL     OW17776   0.072   4.855   0.084  0.4026  0.0501  0.0787
 5733SOL    HW117777   0.128   4.826   0.156  1.2144  0.0371 -0.5359
 5733SOL    HW217778   0.128   4.850   0.007  0.1176  1.8296 -0.2824
 5734SOL     OW17779   0.868   2.046   9.744  0.2210 -0.2744  0.2306
 5734SOL    HW117780   0.864   2.012   9.655  1.5360  1.7332 -0.6969
 5734SOL    HW217781   0.953   2.017   9.777  0.2863  0.0289  0.3370
 5735SOL     OW17782   2.024   3.296   8.475  0.0376 -0.3665 -0.4603
 5735SOL    HW117783   1.982   3.267   8.556  0.9085  0.5399  0.3419
 5735SOL    HW217784   2.068   3.378   8.498  0.1969 -0.0122 -1.8877
 5736SOL     OW17785   2.862   5.320   3.767  0.2539 -0.3509 -0.0772
 5736SOL    HW117786   2.917   5.288   3.695  0.9540 -0.6286  0.5604
 5736SOL    HW217787   2.896   5.407   3.787  0.9234 -0.7821  0.7532
 5737SOL     OW17788   7.089   1.936   5.675 -0.1227 -0.5195 -0.6390
 5737SOL    HW117789   7.094   2.015   5.620  2.7475 -0.9677 -1.2059
 5737SOL    HW217790   7.092   1.969   5.764  2.1881  0.0759 -0.8680
 5738SOL     OW17791   9.453   7.260   8.504  0.5602  0.1112  0.4800
 5738SOL    HW117792   9.398   7.189   8.471 -0.7356  1.0317  0.5603
 5738SOL    HW217793   9.502   7.291   8.428 -0.1764  0.2577  0.0519
 5739SOL     OW17794   6.660   0.408   2.290  0.3631 -0.0718 -0.1302
 5739SOL    HW117795   6.693   0.385   2.377  0.5718 -1.1550 -0.4876
 5739SOL    HW217796   6.714   0.357   2.230  0.3334  0.7985 -0.9122
 5740SOL     OW17797   1.501   9.615   4.643 -0.0693 -0.1983 -0.1970
 5740SOL    HW117798   1.497   9.665   4.561 -1.2531 -0.5035 -0.3530
 5740SOL    HW217799   1.496   9.681   4.712  0.9551  0.0626 -0.3673
 5741SOL     OW17800   9.308   5.050   7.182  0.2908 -0.2468 -0.0084
 5741SOL    HW117801   9.221   5.050   7.224  1.2534 -1.3459  2.1489
 5741SOL    HW217802   9.344   4.963   7.201  2.5118  0.7484  0.6005
 5742SOL     OW17803   2.384   8.890   0.992  0.0302  0.7689 -0.1552
 5742SOL    HW117804   2.376   8.799   1.020  0.2026  0.5117 -0.9069
 5742SOL    HW217805   2.294   8.922   0.989  0.0136  0.8033  0.6822
 5743SOL     OW17806   1.979   4.139   6.303 -0.2371 -0.2346  0.3122
 5743SOL    HW117807   1.973   4.234   6.304 -0.4757 -0.2220 -0.8899
 5743SOL    HW217808   2.072   4.120   6.313 -0.2696  0.1018  1.2717
 5744SOL     OW17809   7.330   4.350   4.279  0.1597  0.1182 -0.4206
 5744SOL    HW117810   7.255   4.372   4.333 -0.5097  0.5142 -1.4832
 5744SOL    HW217811   7.302   4.273   4.230  1.2341 -1.0635  0.7186
 5745SOL     OW17812   6.841   8.190   5.882  0.4090  0.1961  0.4474
 5745SOL    HW117813   6.928   8.219   5.912  1.0444 -1.4383  0.2869
 5745SOL    HW217814   6.844   8.095   5.888 -1.0160  0.0513 -0.5783
 5746SOL     OW17815   4.595   4.368   0.874 -0.1308  0.0642 -0.2685
 5746SOL    HW117816   4.668   4.418   0.838  0.7220 -0.4419  0.6927
 5746SOL    HW217817   4.635   4.314   0.943 -1.5499  0.4180  0.8768
 5747SOL     OW17818   6.123   4.342   0.772  0.1853  0.2461  0.3170
 5747SOL    HW117819   6.164   4.269   0.818  0.2075  1.2774  2.0110
 5747SOL    HW217820   6.030   4.334   0.791 -0.0247 -0.1820 -0.7744
 5748SOL     OW17821   6.948   7.667   5.522  0.2418 -0.1730 -0.1871
 5748SOL    HW117822   7.019   7.712   5.476 -1.3179  2.0222 -0.6149
 5748SOL    HW217823   6.992   7.612   5.586  2.3317  1.9935  0.3604
 5749SOL     OW17824   2.037   1.337   9.881 -0.0422  0.1665 -0.3080
 5749SOL    HW117825   1.962   1.389   9.854 -1.1251 -1.0894  0.1666
 5749SOL    HW217826   2.084   1.318   9.800 -1.2698 -0.5558 -0.8914
 5750SOL     OW17827   8.012   0.766   5.278 -0.4587  0.6156 -0.1112
 5750SOL    HW117828   8.006   0.679   5.316  0.2338  1.5444  2.3601
 5750SOL    HW217829   7.963   0.761   5.196 -1.2768 -1.8022  0.4622
 5751SOL     OW17830   5.769   6.039   6.394 -0.0531  0.1352  0.2656
 5751SOL    HW117831   5.734   6.097   6.462 -0.1676  0.4232 -0.0320
 5751SOL    HW217832   5.786   6.098   6.320  1.9465  0.1688  0.7111
 5752SOL     OW17833   4.012   1.073   4.022 -0.4712  0.2726 -0.1583
 5752SOL    HW117834   4.009   1.018   4.100 -2.4384  1.3879  0.6167
 5752SOL    HW217835   3.973   1.019   3.953  0.0083 -0.2114 -0.0639
 5753SOL     OW17836   0.371   1.349   4.434 -0.4244 -0.0555 -0.2472
 5753SOL    HW117837   0.281   1.333   4.407 -0.6714  0.1032  0.4654
 5753SOL    HW217838   0.365   1.418   4.500  0.1282 -0.6067  0.3979
 5754SOL     OW17839   7.588   8.746   6.188  0.2315  0.0265 -0.0853
 5754SOL    HW117840   7.648   8.806   6.144 -2.0025  1.6327 -1.1052
 5754SOL    HW217841   7.601   8.662   6.142  1.8009  0.2681 -0.1344
 5755SOL     OW17842   8.960   5.899   6.996 -0.1189 -0.0257  0.2066
 5755SOL    HW117843   9.025   5.967   6.979 -0.3019  0.0763 -0.0814
 5755SOL    HW217844   9.006   5.817   6.979 -0.1948  0.0631 -0.4300
 5756SOL     OW17845   8.320   6.292   8.410  0.8671  0.8434  0.1067
 5756SOL    HW117846   8.350   6.225   8.348 -0.1099  1.7445 -1.4206
 5756SOL    HW217847   8.340   6.375   8.367  3.0055  1.6318  2.4178
 5757SOL     OW17848   2.457   3.307   2.190  0.1699 -0.1251 -0.4154
 5757SOL    HW117849   2.450   3.399   2.214  1.0953 -0.1459 -0.0318
 5757SOL    HW217850   2.479   3.262   2.271 -0.4538 -0.7114 -0.5645
 5758SOL     OW17851   6.838   8.880   8.494 -0.3375  0.1793  0.6405
 5758SOL    HW117852   6.861   8.788   8.510  0.6596  0.6336  1.9700
 5758SOL    HW217853   6.856   8.893   8.400  2.7483 -0.1425  1.0797
 5759SOL     OW17854   0.934   5.144   0.147 -0.6788  0.4683  0.0949
 5759SOL    HW117855   0.913   5.195   0.225  0.1065 -0.6698  1.0770
 5759SOL    HW217856   0.896   5.058   0.164  0.9381 -0.2902 -0.0360
 5760SOL     OW17857   3.019   9.878   4.951 -0.2737 -0.1732 -0.3735
 5760SOL    HW117858   3.106   9.892   4.913 -0.7737  1.9065 -0.8274
 5760SOL    HW217859   3.012   9.783   4.958  0.4957 -0.6402 -3.9477
 5761SOL     OW17860   9.243   8.880   2.201  0.1020  0.1245 -0.3047
 5761SOL    HW117861   9.191   8.799   2.207  1.8764 -0.9745  1.1246
 5761SOL    HW217862   9.309   8.871   2.269  2.5692  1.1619 -2.3955
 5762SOL     OW17863   1.769   0.786   3.781 -0.0194  0.0480  0.2669
 5762SOL    HW117864   1.718   0.775   3.701 -0.9667  1.2532  0.6786
 5762SOL    HW217865   1.719   0.740   3.848 -0.5835  1.1851  0.6591
 5763SOL     OW17866   2.015   8.328   7.461  0.3563 -0.3789 -0.2264
 5763SOL    HW117867   1.985   8.394   7.523 -0.0184 -0.5403 -0.2375
 5763SOL    HW217868   2.059   8.263   7.515  0.8059 -0.0790 -0.2247
 5764SOL     OW17869   8.516   3.376   6.735 -0.2773  0.1204 -0.2623
 5764SOL    HW117870   8.451   3.415   6.676 -0.5041  1.0799  0.5813
 5764SOL    HW217871   8.549   3.450   6.786  1.3191 -0.3929 -0.4990
 5765SOL     OW17872   1.546   9.308   3.576 -0.0762  0.0042 -0.2619
 5765SOL    HW117873   1.598   9.388   3.586 -1.2573  0.9196 -1.1515
 5765SOL    HW217874   1.455   9.339   3.570 -0.5796 -1.4277 -0.3488
 5766SOL     OW17875   7.561   3.203   3.432 -0.3964  0.1572  0.6983
 5766SOL    HW117876   7.520   3.206   3.518  1.3520 -1.0973  1.6292
 5766SOL    HW217877   7.525   3.124   3.391 -0.4498  0.1898  0.6816
 5767SOL     OW17878   8.763   0.563   0.422  0.1476 -0.2205 -0.6145
 5767SOL    HW117879   8.726   0.536   0.506 -0.5298 -0.4808 -0.9907
 5767SOL    HW217880   8.694   0.615   0.381  0.2389 -0.6194 -1.2758
 5768SOL     OW17881   7.207   6.492   2.980  0.3644  0.2827 -0.0212
 5768SOL    HW117882   7.204   6.401   2.951 -0.8937  1.0144 -2.4036
 5768SOL    HW217883   7.255   6.538   2.911 -0.5234  1.6984  0.2503
 5769SOL     OW17884   7.879   9.190   0.678 -0.1621  0.0728 -0.4877
 5769SOL    HW117885   7.792   9.225   0.698 -0.5803 -1.0555 -0.2708
 5769SOL    HW217886   7.939   9.258   0.708 -0.9203  0.2385  0.7458
 5770SOL     OW17887   5.191   5.376   4.251 -0.2212 -0.5373  0.2883
 5770SOL    HW117888   5.224   5.443   4.311  1.1102  1.0198 -1.9730
 5770SOL    HW217889   5.218   5.293   4.289 -0.6285  0.2770  2.4640
 5771SOL     OW17890   0.341   5.205   4.368 -0.3735  0.0907 -0.0360
 5771SOL    HW117891   0.407   5.267   4.397  1.3160 -1.6152 -0.0790
 5771SOL    HW217892   0.338   5.139   4.437 -1.9457  0.0375 -0.1116
 5772SOL     OW17893   7.621   6.945   1.816 -0.2121 -0.0325 -0.1920
 5772SOL    HW117894   7.577   6.996   1.884  0.1307 -0.0750  0.0644
 5772SOL    HW217895   7.550   6.898   1.772 -0.4506  0.0951  0.0527
 5773SOL     OW17896   0.682   1.439   3.090  0.4650  0.1023  0.4716
 5773SOL    HW117897   0.733   1.358   3.090  1.5822  0.7920  0.3079
 5773SOL    HW217898   0.718   1.491   3.018 -0.4030  0.6539  0.4201
 5774SOL     OW17899   8.692   7.685   2.899  0.0033 -0.0692 -0.1639
 5774SOL    HW117900   8.672   7.635   2.820 -2.3676  1.1327 -0.4137
 5774SOL    HW217901   8.715   7.620   2.964 -1.7652 -1.4232 -0.8133
 5775SOL     OW17902   0.828   0.344   1.334 -0.4919  0.0851 -0.2499
 5775SOL    HW117903   0.821   0.256   1.370 -1.4181  0.0143 -0.5970
 5775SOL    HW217904   0.817   0.332   1.240 -1.0609  0.6223 -0.2549
 5776SOL     OW17905   2.599   7.558   1.714  0.0523 -0.1811  0.6627
 5776SOL    HW117906   2.541   7.531   1.785  1.4471  0.4276  2.1233
 5776SOL    HW217907   2.611   7.480   1.661 -0.5137 -0.8467  1.4889
 5777SOL     OW17908   8.805   1.272   5.375  0.4042  0.0228  0.8129
 5777SOL    HW117909   8.834   1.208   5.439  0.9344 -0.3519  0.2002
 5777SOL    HW217910   8.854   1.252   5.296  2.2793  2.5677  1.2194
 5778SOL     OW17911   3.878   0.055   2.180 -0.3581  0.3245 -0.8261
 5778SOL    HW117912   3.970   0.028   2.176 -0.2704  0.6024 -0.6317
 5778SOL    HW217913   3.862   0.096   2.095 -0.0925  0.9552 -0.5759
 5779SOL     OW17914   9.826   7.312   4.470  0.2092 -1.0778  0.3518
 5779SOL    HW117915   9.788   7.292   4.384  1.4542  0.2480 -0.5586
 5779SOL    HW217916   9.886   7.385   4.453  1.0188 -1.2539  2.2369
 5780SOL     OW17917   7.049   5.251   7.896  0.2534  0.2928 -0.4265
 5780SOL    HW117918   7.033   5.170   7.945  0.0141  1.0780  0.8490
 5780SOL    HW217919   7.096   5.222   7.818 -0.0700 -1.1073 -0.1451
 5781SOL     OW17920   8.785   0.152   0.956  0.2396 -0.3840  0.2536
 5781SOL    HW117921   8.731   0.123   1.029  0.3315  0.0515  0.4961
 5781SOL    HW217922   8.723   0.189   0.893  0.1549 -0.8091  0.0797
 5782SOL     OW17923   2.424   1.715   8.671 -0.2987  0.3423 -0.2391
 5782SOL    HW117924   2.356   1.696   8.605 -0.0473  1.3153 -0.7971
 5782SOL    HW217925   2.443   1.808   8.659  1.5434 -0.0397 -0.4792
 5783SOL     OW17926   3.426   1.730   3.882  0.1431  0.0374 -0.1092
 5783SOL    HW117927   3.447   1.650   3.833 -1.8453 -0.6646  0.0951
 5783SOL    HW217928   3.372   1.699   3.955  0.9173  1.3798  1.0788
 5784SOL     OW17929   7.865   6.401   6.955  0.1242 -0.2420  0.3772
 5784SOL    HW117930   7.819   6.436   7.032  1.4397  1.6132  0.3777
 5784SOL    HW217931   7.797   6.396   6.887 -0.7620 -0.6413  1.2698
 5785SOL     OW17932   0.409   8.474   0.989 -0.2720  0.4522 -0.2027
 5785SOL    HW117933   0.443   8.388   0.964  0.7703  0.4657  1.0848
 5785SOL    HW217934   0.362   8.458   1.071 -0.6480  1.0040 -0.3080
 5786SOL     OW17935   4.333   8.641   4.651  0.4417 -0.6170  0.0633
 5786SOL    HW117936   4.272   8.684   4.591  0.7686 -0.5746 -0.2373
 5786SOL    HW217937   4.399   8.708   4.670  1.5226 -1.2725 -1.2032
 5787SOL     OW17938   5.014   7.753   2.126 -0.0315  0.3640 -0.4273
 5787SOL    HW117939   5.040   7.661   2.121  1.4206  0.6533  1.0809
 5787SOL    HW217940   5.050   7.793   2.047  1.6613  0.1535  0.2103
 5788SOL     OW17941   7.437   2.202   9.456  0.2601 -0.2921 -0.1330
 5788SOL    HW117942   7.373   2.265   9.488  0.2457  0.1703 -1.0533
 5788SOL    HW217943   7.484   2.174   9.535  1.1001  1.7985  0.1891
 5789SOL     OW17944   1.021   1.200   7.346  0.0370 -0.0454 -0.4627
 5789SOL    HW117945   0.972   1.249   7.280  1.0172  2.5314  0.5950
 5789SOL    HW217946   0.964   1.200   7.423  0.3341  0.1093 -0.2397
 5790SOL     OW17947   3.889   7.330   8.253 -0.5094 -0.1373 -0.3546
 5790SOL    HW117948   3.911   7.238   8.240 -0.0043 -0.0623 -0.0601
 5790SOL    HW217949   3.798   7.337   8.224 -0.4401 -0.6521 -0.7155
 5791SOL     OW17950   7.125   0.920   9.001  0.1505 -0.3254 -0.1250
 5791SOL    HW117951   7.094   1.003   9.036  0.4902 -0.7259  1.1619
 5791SOL    HW217952   7.048   0.883   8.956 -0.0799  0.5406 -0.4513
 5792SOL     OW17953   6.808   3.534   9.501  0.1856  0.2163  0.0434
 5792SOL    HW117954   6.845   3.528   9.589 -0.2346  1.3699  0.3177
 5792SOL    HW217955   6.872   3.583   9.451  1.0570 -1.5964 -0.6876
 5793SOL     OW17956   9.343   4.128   9.002 -0.2763  0.1313  0.1226
 5793SOL    HW117957   9.365   4.211   8.960  0.6862 -0.5386 -0.7392
 5793SOL    HW217958   9.304   4.154   9.086  0.1539  1.4468 -0.0525
 5794SOL     OW17959   7.127   1.863   9.927 -0.2577  0.0537 -0.1180
 5794SOL    HW117960   7.189   1.889   9.996  0.5973 -0.0205 -0.8321
 5794SOL    HW217961   7.068   1.801   9.970  1.4164 -1.4773  0.1471
 5795SOL     OW17962   7.808   4.001   2.502 -0.2944 -0.3941 -0.5645
 5795SOL    HW117963   7.771   4.036   2.583  2.6766 -0.7279  1.0700
 5795SOL    HW217964   7.771   3.913   2.494  0.6608 -1.0226  1.4292
 5796SOL     OW17965   8.651   8.528   7.923 -0.7336 -0.6890  0.3869
 5796SOL    HW117966   8.694   8.563   7.845 -1.0309  0.0377  0.5387
 5796SOL    HW217967   8.720   8.480   7.969 -0.5628 -1.1346 -0.3225
 5797SOL     OW17968   5.477   8.589   0.646 -0.0183  0.3329 -0.2250
 5797SOL    HW117969   5.506   8.681   0.647 -0.3078  0.4178  0.6281
 5797SOL    HW217970   5.396   8.589   0.697 -0.0995 -0.3749 -0.3516
 5798SOL     OW17971   7.916   6.103   8.225  0.1102  0.4936  0.4795
 5798SOL    HW117972   7.920   6.017   8.184  0.5424 -0.0548  1.6033
 5798SOL    HW217973   7.871   6.087   8.308 -0.0668  1.4118  0.5679
 5799SOL     OW17974   9.559   7.069   5.374  0.4416 -0.2757  0.1999
 5799SOL    HW117975   9.574   6.982   5.412  0.8241 -0.9265 -1.3314
 5799SOL    HW217976   9.647   7.101   5.353  0.2055 -1.0942 -2.4608
 5800SOL     OW17977   8.251   8.610   4.942  0.5778 -0.7526 -0.1304
 5800SOL    HW117978   8.237   8.682   5.004 -1.9162 -2.8901  2.0277
 5800SOL    HW217979   8.166   8.596   4.902  1.3437 -1.6713 -1.5123
 5801SOL     OW17980   7.567   3.627   4.032 -0.9007  0.0827 -0.0158
 5801SOL    HW117981   7.508   3.669   3.971  0.7178  0.1714 -1.6102
 5801SOL    HW217982   7.627   3.576   3.977  0.8790  0.4703  1.4415
 5802SOL     OW17983   1.418   9.414   7.617 -0.4974 -0.2505  0.3830
 5802SOL    HW117984   1.384   9.486   7.670 -2.2604 -1.3243  0.8285
 5802SOL    HW217985   1.403   9.441   7.527 -0.3994  0.2616  0.5153
 5803SOL     OW17986   0.770   8.823   1.348 -0.0870 -0.1483 -0.5045
 5803SOL    HW117987   0.843   8.791   1.295  2.9418 -0.1127  3.2212
 5803SOL    HW217988   0.754   8.754   1.412 -1.2008  1.1599  0.7081
 5804SOL     OW17989   5.177   0.376   0.571 -0.0088 -0.3439 -0.4916
 5804SOL    HW117990   5.240   0.323   0.619  1.2275  2.8387  1.7645
 5804SOL    HW217991   5.221   0.397   0.489 -0.3430 -2.2891 -1.2163
 5805SOL     OW17992   7.428   3.396   9.101 -0.0003 -0.2972 -0.2672
 5805SOL    HW117993   7.356   3.442   9.057  0.1338  0.2388  0.0698
 5805SOL    HW217994   7.495   3.388   9.034  0.1973  0.5044 -0.1723
 5806SOL     OW17995   3.217   5.272   3.267 -0.1733  0.1635  0.2373
 5806SOL    HW117996   3.201   5.343   3.205  2.4607  0.3606 -0.3364
 5806SOL    HW217997   3.188   5.193   3.221 -0.9641  0.6193 -0.0563
 5807SOL     OW17998   5.697   2.584   3.164  0.0801  0.0046  0.1367
 5807SOL    HW117999   5.653   2.669   3.176  0.0352 -0.1407  1.0362
 5807SOL    HW218000   5.744   2.569   3.246  2.7151  0.6401 -1.1624
 5808SOL     OW18001   9.386   7.169   6.278 -0.4376 -0.0260 -0.1948
 5808SOL    HW118002   9.319   7.107   6.250 -1.1056  0.9130 -0.7076
 5808SOL    HW218003   9.449   7.170   6.206  1.0545 -2.1350  0.9614
 5809SOL     OW18004   1.182   1.736   5.139 -0.6664 -0.1455 -0.1211
 5809SOL    HW118005   1.215   1.792   5.209 -0.0750 -0.4410 -0.1562
 5809SOL    HW218006   1.253   1.675   5.122 -1.8106 -1.8794  0.9561
 5810SOL     OW18007   2.437   9.656   2.417 -0.2874 -0.5204 -0.1107
 5810SOL    HW118008   2.506   9.603   2.457  0.3225  0.5320  0.2744
 5810SOL    HW218009   2.418   9.613   2.334  1.7725 -0.1036 -0.8474
 5811SOL     OW18010   1.711   6.040   4.325  0.0275  0.3563 -0.1236
 5811SOL    HW118011   1.670   6.103   4.266  2.0362  1.7353 -0.1474
 5811SOL    HW218012   1.794   6.018   4.282  0.0524 -1.1380  0.6418
 5812SOL     OW18013   9.954   2.515   2.054 -0.4561 -0.3974  0.7639
 5812SOL    HW118014   9.939   2.528   2.148 -0.6036  0.6522  0.6004
 5812SOL    HW218015  10.023   2.577   2.032  1.5277 -2.4903  0.6953
 5813SOL     OW18016   9.261   5.580   5.737 -0.1192 -0.0138  0.0177
 5813SOL    HW118017   9.233   5.541   5.819  0.3738 -0.1188  0.1353
 5813SOL    HW218018   9.189   5.561   5.676 -1.3780  1.7292  0.8960
 5814SOL     OW18019   5.431   4.968   9.262 -0.3631 -0.2048 -0.5167
 5814SOL    HW118020   5.423   4.995   9.354 -1.4652 -0.3806 -0.5470
 5814SOL    HW218021   5.502   5.022   9.227 -0.0918  0.0321  0.3722
 5815SOL     OW18022   2.729   2.357   8.417  0.8510  0.9833  0.0110
 5815SOL    HW118023   2.717   2.363   8.512  0.1611  0.5048 -0.0333
 5815SOL    HW218024   2.699   2.441   8.383  1.9089  1.4792  0.2832
 5816SOL     OW18025   6.939   1.491   9.671 -0.0728  0.3529  0.4882
 5816SOL    HW118026   7.017   1.546   9.683 -1.0634  1.7306  0.8899
 5816SOL    HW218027   6.870   1.553   9.649 -1.9282 -0.3260  3.7500
 5817SOL     OW18028   2.592   3.097   8.718  0.1906 -0.3522  0.8027
 5817SOL    HW118029   2.504   3.117   8.688  0.6101  0.3204 -0.0472
 5817SOL    HW218030   2.581   3.026   8.780 -0.9997  0.0976  1.1317
 5818SOL     OW18031   5.262   2.349   0.996 -0.0679 -0.2060  0.1853
 5818SOL    HW118032   5.266   2.360   0.901 -2.2583 -0.4827  0.0310
 5818SOL    HW218033   5.293   2.259   1.010 -0.2901 -0.3695 -0.3219
 5819SOL     OW18034   4.379   4.073   6.146  0.4893  0.0511 -0.2757
 5819SOL    HW118035   4.389   3.982   6.116  0.1214 -0.2134  0.3810
 5819SOL    HW218036   4.468   4.107   6.150  0.5879 -0.1030 -1.0613
 5820SOL     OW18037   6.770   9.179   1.248 -0.0256 -0.1210  0.6547
 5820SOL    HW118038   6.851   9.210   1.207  0.1173 -1.9059 -0.5066
 5820SOL    HW218039   6.798   9.105   1.302 -0.7695 -0.1765  0.9686
 5821SOL     OW18040   4.277   1.350   3.683  0.1449 -0.1210 -0.1861
 5821SOL    HW118041   4.337   1.369   3.610 -0.1298 -1.3502 -0.7570
 5821SOL    HW218042   4.196   1.320   3.641 -0.8566  1.3899  0.5803
 5822SOL     OW18043   8.896   3.936   2.523  0.4864 -0.0834 -0.6738
 5822SOL    HW118044   8.803   3.935   2.545  0.4730 -0.6562 -0.7421
 5822SOL    HW218045   8.901   3.886   2.442  0.5240  2.0109 -2.0418
 5823SOL     OW18046   8.383   3.056   1.426  0.1106 -0.4917 -0.6361
 5823SOL    HW118047   8.430   3.135   1.399 -2.7070  2.2736  1.7343
 5823SOL    HW218048   8.405   3.044   1.518 -2.3963 -0.0406  0.1080
 5824SOL     OW18049   8.719   3.194   9.067 -0.6373 -0.3369 -0.4202
 5824SOL    HW118050   8.771   3.115   9.076 -0.8235 -0.4049  0.0650
 5824SOL    HW218051   8.652   3.188   9.135 -1.4306 -0.3628 -1.1849
 5825SOL     OW18052   9.578   2.266   5.509  0.0914  0.0384  0.2899
 5825SOL    HW118053   9.657   2.225   5.544 -0.3868 -1.3261 -0.1615
 5825SOL    HW218054   9.607   2.311   5.429  0.4392 -0.2938  0.2309
 5826SOL     OW18055   5.253   3.044   6.629  0.3039  0.1895  0.1881
 5826SOL    HW118056   5.211   3.050   6.715  1.2937 -2.7144  0.9712
 5826SOL    HW218057   5.333   3.096   6.637 -0.0856  0.7202  0.6796
 5827SOL     OW18058   4.082   5.697   8.826 -0.1294  0.3823  0.0445
 5827SOL    HW118059   4.107   5.615   8.783  0.7109  0.1596  0.9345
 5827SOL    HW218060   4.088   5.763   8.757  0.2013 -0.1339 -0.4272
 5828SOL     OW18061   2.426   8.252   6.807  0.0228 -0.7090 -0.3808
 5828SOL    HW118062   2.370   8.321   6.843  0.4236 -1.1684  1.2344
 5828SOL    HW218063   2.425   8.266   6.713  1.0018  2.2529 -0.0699
 5829SOL     OW18064   4.331   7.629   5.450 -0.4783 -0.4054 -0.5043
 5829SOL    HW118065   4.415   7.627   5.405 -0.7376  0.5555 -1.0697
 5829SOL    HW218066   4.307   7.722   5.452 -0.7266 -0.4710  1.1668
 5830SOL     OW18067   2.249   2.545   6.273 -0.3289 -0.2243 -0.6818
 5830SOL    HW118068   2.321   2.555   6.210 -1.2999 -1.3605 -2.0181
 5830SOL    HW218069   2.215   2.634   6.284  2.1423  0.6313  1.1384
 5831SOL     OW18070   1.774   3.627   6.532  0.6105  0.7630 -0.0879
 5831SOL    HW118071   1.766   3.687   6.606 -0.5860 -0.8686  1.1828
 5831SOL    HW218072   1.698   3.646   6.477 -1.0007 -0.9176  1.4154
 5832SOL     OW18073   6.791   9.327   1.549 -0.0273  0.0986  0.5063
 5832SOL    HW118074   6.856   9.337   1.618  0.9962 -0.4895 -0.3455
 5832SOL    HW218075   6.815   9.392   1.483  0.0021 -0.4599 -0.0409
 5833SOL     OW18076   1.999   5.156   0.556 -0.2632  0.1396  0.2040
 5833SOL    HW118077   2.047   5.133   0.635  0.2658 -3.1175 -0.9406
 5833SOL    HW218078   2.067   5.174   0.491 -0.6620  0.1175 -0.2247
 5834SOL     OW18079   6.242   8.605   4.046  0.4688  0.4312  0.0385
 5834SOL    HW118080   6.257   8.513   4.024 -0.4346  0.1171  0.6826
 5834SOL    HW218081   6.197   8.641   3.970 -2.0244 -0.4799  0.9769
 5835SOL     OW18082   4.632   7.162   4.387 -0.0751 -0.5690 -0.6101
 5835SOL    HW118083   4.564   7.199   4.329 -0.4709 -0.8001 -0.2973
 5835SOL    HW218084   4.621   7.210   4.469  0.6252 -0.0946 -0.7894
 5836SOL     OW18085   6.759   0.305   3.472 -0.1478  0.1604  0.0819
 5836SOL    HW118086   6.848   0.281   3.497 -0.3329 -0.4715  0.1799
 5836SOL    HW218087   6.755   0.400   3.482 -0.2455 -0.0283  2.6398
 5837SOL     OW18088   9.231   6.767   8.564 -0.4793 -0.5537  0.5023
 5837SOL    HW118089   9.322   6.790   8.542 -0.3248 -0.8346  0.8252
 5837SOL    HW218090   9.239   6.717   8.646 -1.0241  0.3490  1.1151
 5838SOL     OW18091   8.232   5.528   0.933  0.1667 -0.1081  0.0851
 5838SOL    HW118092   8.249   5.435   0.946  0.5894 -0.1773 -0.9272
 5838SOL    HW218093   8.145   5.542   0.970  1.3174 -0.2470  3.1581
 5839SOL     OW18094   5.475   7.730   5.855  0.8538  0.4737  0.3009
 5839SOL    HW118095   5.497   7.792   5.925  2.3352  1.0749 -0.6451
 5839SOL    HW218096   5.542   7.661   5.862  0.8187  0.3728 -0.3008
 5840SOL     OW18097   8.518   3.500   7.914  0.4785 -0.2015 -0.4625
 5840SOL    HW118098   8.455   3.529   7.980 -0.5677 -2.1038 -0.5664
 5840SOL    HW218099   8.542   3.411   7.941  2.2280  0.0296 -1.1022
 5841SOL     OW18100   6.147   0.486   4.253 -0.8974  0.7851 -0.5246
 5841SOL    HW118101   6.158   0.423   4.182 -1.1396  0.8891 -0.6571
 5841SOL    HW218102   6.082   0.548   4.220 -0.5383  1.2013 -0.4630
 5842SOL     OW18103   3.074   4.869   9.425 -1.0563 -0.1436  0.3868
 5842SOL    HW118104   3.039   4.958   9.419 -1.0592 -0.1637  0.0772
 5842SOL    HW218105   3.003   4.817   9.463 -1.4682 -0.2354 -0.4672
 5843SOL     OW18106   4.122   2.681   1.358 -0.2459  0.0525 -0.7752
 5843SOL    HW118107   4.121   2.588   1.334 -0.5282  0.1802 -1.2614
 5843SOL    HW218108   4.210   2.695   1.394  0.5258  0.0772 -2.5965
 5844SOL     OW18109   7.072   0.633   4.803  0.8805  0.2637 -0.0412
 5844SOL    HW118110   7.075   0.624   4.708 -1.4140 -0.2582 -0.1372
 5844SOL    HW218111   7.031   0.719   4.818  1.2358  0.3486  0.4776
 5845SOL     OW18112   3.619   7.408   8.531  0.0218  0.8247  0.5798
 5845SOL    HW118113   3.618   7.471   8.603 -1.5753 -0.2971  1.6030
 5845SOL    HW218114   3.675   7.337   8.562  2.4520  1.9791 -0.8773
 5846SOL     OW18115   8.131   4.462   5.021 -0.1996 -0.4235  0.0369
 5846SOL    HW118116   8.096   4.478   5.109 -0.3420  0.5631 -0.1839
 5846SOL    HW218117   8.111   4.542   4.973 -0.5587 -1.1453 -1.0481
 5847SOL     OW18118   9.979   4.791   5.307  0.8185  0.2663 -0.0070
 5847SOL    HW118119  10.006   4.704   5.277 -0.9764 -0.4168  0.2439
 5847SOL    HW218120   9.919   4.774   5.380  0.2108  1.6930 -0.1410
 5848SOL     OW18121   6.098   5.690   7.170 -0.4681 -0.3122  0.0257
 5848SOL    HW118122   6.008   5.723   7.179 -0.4998 -0.6184  0.9479
 5848SOL    HW218123   6.113   5.687   7.076 -2.1630 -2.1877 -0.2409
 5849SOL     OW18124   3.165   4.675   4.807  0.3259  0.0215 -0.3328
 5849SOL    HW118125   3.207   4.730   4.873  1.1919 -0.6367 -0.3151
 5849SOL    HW218126   3.231   4.665   4.738  0.7894 -2.2172  0.3587
 5850SOL     OW18127   7.643   1.029   8.958 -0.3779 -0.0918 -0.1457
 5850SOL    HW118128   7.669   1.107   8.910  0.5720  0.1646  0.7580
 5850SOL    HW218129   7.550   1.042   8.977 -0.3049  0.6550 -0.2895
 5851SOL     OW18130   8.724   8.978   8.087  0.2571  0.3725  0.4295
 5851SOL    HW118131   8.797   8.960   8.146 -0.1089 -2.8186  0.1100
 5851SOL    HW218132   8.764   8.990   8.001  0.4684 -0.9310  0.3322
 5852SOL     OW18133   7.642   2.973   4.667  0.5232  0.4383  0.3054
 5852SOL    HW118134   7.699   3.009   4.599 -0.2413  0.0397 -0.5669
 5852SOL    HW218135   7.594   2.903   4.624  0.7229 -0.4808  1.5297
 5853SOL     OW18136   9.112   1.014   1.951 -0.1015 -0.3692  0.0803
 5853SOL    HW118137   9.074   1.074   2.016  0.7207 -0.5482  0.7461
 5853SOL    HW218138   9.097   1.057   1.867  1.2208  1.2171  0.5990
 5854SOL     OW18139   2.854   3.459   6.102 -0.1361  0.5648 -0.3325
 5854SOL    HW118140   2.880   3.367   6.109  1.7898  1.0853 -0.0509
 5854SOL    HW218141   2.798   3.462   6.024  0.5937 -0.6840 -0.9380
 5855SOL     OW18142   2.068   2.766   3.649 -0.3226 -0.5946 -0.6620
 5855SOL    HW118143   2.038   2.766   3.740 -0.4082  0.1565 -0.6796
 5855SOL    HW218144   2.163   2.761   3.655 -0.2264  0.9173 -0.4637
 5856SOL     OW18145   6.227   4.612   8.518 -0.2511  0.3651 -1.3786
 5856SOL    HW118146   6.253   4.545   8.454  0.9034 -0.6639  0.1122
 5856SOL    HW218147   6.131   4.614   8.512 -0.2824 -1.1143 -1.7631
 5857SOL     OW18148   4.450   7.222   1.680  0.8356 -0.1614 -0.0556
 5857SOL    HW118149   4.539   7.222   1.714  1.0306 -0.4093 -0.5524
 5857SOL    HW218150   4.395   7.242   1.756  1.3283  0.2266  0.2062
 5858SOL     OW18151   1.478   4.516   3.487 -0.3212 -0.6004 -0.5431
 5858SOL    HW118152   1.422   4.514   3.565 -1.0643 -2.4969 -1.0713
 5858SOL    HW218153   1.418   4.528   3.414  0.2805  0.2378 -0.9204
 5859SOL     OW18154   1.603   5.249   2.496 -0.3591 -0.3954  0.4185
 5859SOL    HW118155   1.670   5.316   2.504  0.5719 -1.2860  0.3186
 5859SOL    HW218156   1.520   5.297   2.499  0.2814  0.7829 -0.0070
 5860SOL     OW18157   5.282   6.124   7.019  0.2221 -0.1427  0.2226
 5860SOL    HW118158   5.251   6.208   7.053 -0.9162 -0.3476 -0.2647
 5860SOL    HW218159   5.281   6.135   6.924  2.3771  0.0765  0.1856
 5861SOL     OW18160   4.382   3.333   3.916 -0.3566  0.2994  0.0784
 5861SOL    HW118161   4.443   3.309   3.986  0.5240  1.0432 -0.4176
 5861SOL    HW218162   4.419   3.412   3.878 -2.6383  1.8864  0.9785
 5862SOL     OW18163   4.981   6.686   0.811  0.1838  0.2025  0.7312
 5862SOL    HW118164   5.017   6.599   0.827  0.6183  0.5344  1.6696
 5862SOL    HW218165   5.039   6.725   0.746  1.8985  0.8969  2.5374
 5863SOL     OW18166   4.686   1.327   1.936 -0.2806  0.3870  0.4252
 5863SOL    HW118167   4.723   1.410   1.906  1.2392 -0.7759 -1.1754
 5863SOL    HW218168   4.610   1.312   1.879 -0.1266  0.3584  0.2246
 5864SOL     OW18169   2.925   0.398   3.473 -0.0039 -0.1330  0.0284
 5864SOL    HW118170   2.966   0.314   3.456 -1.5178 -0.7471 -0.7134
 5864SOL    HW218171   2.831   0.379   3.477 -0.2676  1.2107  1.7163
 5865SOL     OW18172   0.387   3.180   5.194  0.0416 -0.2317  0.5864
 5865SOL    HW118173   0.300   3.210   5.221 -1.2196 -1.5445 -1.6998
 5865SOL    HW218174   0.404   3.104   5.249 -0.1323  0.1794  1.2189
 5866SOL     OW18175   4.841   7.888   3.889 -0.0084  0.4718  0.0975
 5866SOL    HW118176   4.746   7.895   3.904  0.1046 -0.9856  1.8834
 5866SOL    HW218177   4.854   7.799   3.858  0.8754  0.3230  0.8625
 5867SOL     OW18178   4.507   4.756   9.405  0.2595  0.5601  0.1416
 5867SOL    HW118179   4.522   4.679   9.459  0.9494  0.7936  0.2866
 5867SOL    HW218180   4.590   4.771   9.360 -0.2823  0.4123 -0.9293
 5868SOL     OW18181   2.474   2.529   7.808  0.4201  0.1378  0.5571
 5868SOL    HW118182   2.499   2.621   7.803  0.0637  0.2516  0.8430
 5868SOL    HW218183   2.409   2.518   7.738  1.3316 -0.1833 -0.2571
 5869SOL     OW18184   8.778   8.218   8.745 -0.0223  0.2120  0.1900
 5869SOL    HW118185   8.700   8.164   8.734 -0.7479  1.7372 -3.7736
 5869SOL    HW218186   8.837   8.192   8.675  1.1556  2.0612  0.4092
 5870SOL     OW18187   3.415   4.061   0.752  0.0512  0.1025 -0.5456
 5870SOL    HW118188   3.344   4.036   0.811  1.5450  0.8418  1.6728
 5870SOL    HW218189   3.371   4.109   0.682 -1.5371  1.7436  1.4466
 5871SOL     OW18190   1.773   8.979   5.708 -0.3941 -0.1146 -0.5584
 5871SOL    HW118191   1.739   8.957   5.622  0.4487 -2.1941 -0.4358
 5871SOL    HW218192   1.796   8.894   5.747  2.0065  0.9488  0.5443
 5872SOL     OW18193   5.946   3.253   5.328 -0.0540 -0.3181  0.4690
 5872SOL    HW118194   5.981   3.166   5.312  0.3736 -0.5880  2.5706
 5872SOL    HW218195   5.857   3.238   5.360 -0.1961  0.0513  0.2609
 5873SOL     OW18196   4.162   0.851   0.255 -0.1262 -0.0434 -0.2023
 5873SOL    HW118197   4.090   0.836   0.193  0.0842 -2.4439  0.0399
 5873SOL    HW218198   4.121   0.897   0.328 -1.5540 -1.6326  0.0645
 5874SOL     OW18199   5.785   6.365   1.827 -0.2833 -0.1788 -0.2913
 5874SOL    HW118200   5.811   6.367   1.735 -1.6747 -3.5198 -0.9155
 5874SOL    HW218201   5.692   6.346   1.825 -0.7172  1.3703  1.8754
 5875SOL     OW18202   7.478   1.371   2.315  0.4268 -0.4455 -0.7354
 5875SOL    HW118203   7.426   1.373   2.395  0.3238  0.3687 -0.8138
 5875SOL    HW218204   7.479   1.279   2.289  2.6166 -1.1786  1.5887
 5876SOL     OW18205   6.460   9.635   5.754  0.7417  0.2869  0.2417
 5876SOL    HW118206   6.525   9.706   5.755  1.6899 -0.5632  0.3308
 5876SOL    HW218207   6.478   9.585   5.834 -2.6911  2.3202  2.5756
 5877SOL     OW18208   8.057   7.947   8.712 -0.0144  0.6439 -0.5183
 5877SOL    HW118209   8.036   8.026   8.662 -0.3625  0.7968 -0.1377
 5877SOL    HW218210   8.059   7.976   8.803 -0.1180  0.2224 -0.3787
 5878SOL     OW18211   8.452   1.313   0.293 -0.5560 -0.3382  0.0150
 5878SOL    HW118212   8.361   1.283   0.289 -0.8804  0.2824  1.7640
 5878SOL    HW218213   8.464   1.341   0.384  1.8649 -1.8790  0.2568
 5879SOL     OW18214   1.953   5.382   2.957  0.5375  0.2564  0.2229
 5879SOL    HW118215   1.950   5.375   3.052 -0.6109  1.1063  0.2704
 5879SOL    HW218216   2.018   5.450   2.940  1.0945 -0.2313  0.3683
 5880SOL     OW18217   0.686   9.446   5.053  0.1075  0.4813 -0.0841
 5880SOL    HW118218   0.640   9.378   5.101 -1.4764 -0.0311 -2.1943
 5880SOL    HW218219   0.639   9.527   5.074 -0.4779  0.2852 -0.6032
 5881SOL     OW18220   9.925   5.921   2.641 -0.8237 -0.2042 -0.4024
 5881SOL    HW118221   9.937   6.007   2.681  0.4283 -0.1782 -0.8002
 5881SOL    HW218222   9.928   5.859   2.714  0.5922 -0.0819 -0.3223
 5882SOL     OW18223   6.193   3.610   5.752 -0.1342 -0.8284  0.2678
 5882SOL    HW118224   6.128   3.633   5.686 -0.0959 -0.3924  0.3771
 5882SOL    HW218225   6.244   3.539   5.712 -0.1040 -0.5595 -0.1792
 5883SOL     OW18226   4.118   4.118   0.855  0.7348  0.5417 -0.3070
 5883SOL    HW118227   4.142   4.203   0.891  2.9329 -0.1401 -0.0423
 5883SOL    HW218228   4.198   4.066   0.859 -0.5952 -1.6307 -0.2754
 5884SOL     OW18229   5.736   1.868   5.216  0.0722 -0.0649  0.0966
 5884SOL    HW118230   5.771   1.949   5.253  0.5041 -0.9638  1.7300
 5884SOL    HW218231   5.690   1.897   5.137  0.1789  1.7741  0.6442
 5885SOL     OW18232   7.251   1.872   0.804 -0.2408  0.3373 -0.2380
 5885SOL    HW118233   7.239   1.824   0.886 -1.4180 -1.1028 -1.1873
 5885SOL    HW218234   7.341   1.852   0.778 -0.9053 -2.0849 -0.9650
 5886SOL     OW18235   1.932   8.494   8.186  0.2000  0.5617  0.0413
 5886SOL    HW118236   1.919   8.571   8.131 -0.1628 -0.1282 -0.8590
 5886SOL    HW218237   1.976   8.431   8.129 -0.7199 -0.3766  0.3479
 5887SOL     OW18238   2.560   0.789   4.812 -0.1774  0.3955  0.0885
 5887SOL    HW118239   2.534   0.732   4.739 -1.8858 -0.2675  1.1752
 5887SOL    HW218240   2.643   0.751   4.843 -0.9160 -1.1183  0.3358
 5888SOL     OW18241   8.533   8.930   0.154 -0.6021  0.3307 -0.1433
 5888SOL    HW118242   8.475   8.979   0.212  0.9808  1.2024  0.7857
 5888SOL    HW218243   8.475   8.892   0.088 -2.2926  0.4857  1.1870
 5889SOL     OW18244   8.375   3.505   3.435 -0.5064  0.1009 -0.2944
 5889SOL    HW118245   8.410   3.558   3.506  1.4513  0.9688 -1.8161
 5889SOL    HW218246   8.327   3.566   3.380 -1.3559 -0.4204 -0.1542
 5890SOL     OW18247   5.609   7.990   0.624  0.1814 -0.3116  0.2356
 5890SOL    HW118248   5.528   8.018   0.581  1.0690  1.3123 -0.4239
 5890SOL    HW218249   5.679   8.032   0.575  1.4869 -1.9073  0.6299
 5891SOL     OW18250   7.019   0.734   4.527 -0.6484  0.6161  0.0341
 5891SOL    HW118251   7.046   0.803   4.466 -1.0979 -0.4183 -1.3676
 5891SOL    HW218252   6.928   0.757   4.550 -0.8501  0.4197 -0.5529
 5892SOL     OW18253   7.935   0.276   3.695 -0.1223 -0.1447 -0.6918
 5892SOL    HW118254   7.852   0.230   3.707  0.0525 -0.5123 -0.9068
 5892SOL    HW218255   7.976   0.234   3.620  0.2582  0.0416 -0.5919
 5893SOL     OW18256   9.679   9.308   0.479  0.6642  0.1930  0.0648
 5893SOL    HW118257   9.775   9.302   0.479  0.6356 -0.5130 -1.0544
 5893SOL    HW218258   9.650   9.225   0.442 -0.3597  0.7348 -0.3782
 5894SOL     OW18259   1.808   1.881   2.577  0.5945 -0.2609  0.7647
 5894SOL    HW118260   1.714   1.863   2.572  0.9350 -1.9787 -0.1389
 5894SOL    HW218261   1.845   1.803   2.620  1.5988  0.4685  1.2676
 5895SOL     OW18262   1.307   1.771   2.822 -0.1091  0.1235 -0.0351
 5895SOL    HW118263   1.393   1.749   2.786 -1.0933 -0.4282 -2.2324
 5895SOL    HW218264   1.324   1.840   2.887  2.2334 -1.7519  1.5126
 5896SOL     OW18265   3.665   5.600   1.627 -0.1193  0.7909  0.1290
 5896SOL    HW118266   3.710   5.516   1.626 -1.8180 -0.2000  1.7198
 5896SOL    HW218267   3.572   5.578   1.622 -0.6996  2.4373  2.1973
 5897SOL     OW18268   1.435   9.444   9.326 -0.2225  0.5959  0.5981
 5897SOL    HW118269   1.376   9.507   9.286 -0.2975  1.5836  2.1835
 5897SOL    HW218270   1.478   9.401   9.252 -2.4803  0.2371 -0.5996
 5898SOL     OW18271   9.107   6.246   6.161  0.1629 -0.4809  0.5214
 5898SOL    HW118272   9.033   6.300   6.189  0.8131  0.2198  0.9207
 5898SOL    HW218273   9.150   6.222   6.243  0.9283 -0.0775  0.2411
 5899SOL     OW18274   6.775   9.474   1.304 -0.2328  0.2046  0.1635
 5899SOL    HW118275   6.690   9.449   1.269 -0.3422  0.7804  0.0044
 5899SOL    HW218276   6.809   9.538   1.241  0.1839  0.2080  0.3849
 5900SOL     OW18277   6.825   6.657   2.757 -0.0261 -0.3704  0.5784
 5900SOL    HW118278   6.854   6.618   2.839  0.8047 -1.3565 -0.1583
 5900SOL    HW218279   6.861   6.746   2.759  1.0445 -0.7885  0.7542
 5901SOL     OW18280   8.841   9.775   1.935 -0.1709 -0.2853 -0.1760
 5901SOL    HW118281   8.850   9.750   2.027 -1.6659  2.5345  0.8420
 5901SOL    HW218282   8.746   9.783   1.922 -0.1050 -2.1615 -2.4831
 5902SOL     OW18283   6.687   0.506   0.179 -0.0989  0.2949 -0.0191
 5902SOL    HW118284   6.619   0.563   0.143 -1.3369 -0.5085  0.9701
 5902SOL    HW218285   6.768   0.538   0.140 -1.1221  0.7810 -1.8789
 5903SOL     OW18286   1.042   8.153   2.695 -0.0730  0.0944 -0.0297
 5903SOL    HW118287   0.986   8.093   2.647 -0.4929 -0.9778  1.6839
 5903SOL    HW218288   1.084   8.207   2.628 -0.5690 -1.3427 -1.5626
 5904SOL     OW18289   8.225   7.122   9.261  0.0701 -0.6372  0.5351
 5904SOL    HW118290   8.239   7.178   9.185  0.5551  2.9839  3.0226
 5904SOL    HW218291   8.293   7.056   9.255 -0.3750 -0.9554 -2.4750
 5905SOL     OW18292   3.071   4.376   1.872  0.3574 -0.1087  0.6200
 5905SOL    HW118293   3.133   4.310   1.839 -0.9088 -1.0438  0.0442
 5905SOL    HW218294   3.055   4.350   1.963  1.5119  0.7046  1.0896
 5906SOL     OW18295   8.202   5.413   4.157  0.3249 -0.0438  0.2438
 5906SOL    HW118296   8.287   5.371   4.146 -0.1898 -0.8660 -0.7644
 5906SOL    HW218297   8.167   5.378   4.238  1.4604  1.2516  1.3482
 5907SOL     OW18298   5.956   5.183   6.382 -0.0738 -0.1031 -0.6287
 5907SOL    HW118299   5.992   5.182   6.293 -0.6242 -4.5750 -1.0100
 5907SOL    HW218300   6.024   5.142   6.436 -0.7966  0.1358  0.5014
 5908SOL     OW18301   7.684   3.013   8.869  0.0092  0.2911 -0.1874
 5908SOL    HW118302   7.632   3.030   8.948 -0.1119 -1.2139  0.0702
 5908SOL    HW218303   7.769   2.983   8.902 -0.1608 -0.6893 -0.6257
 5909SOL     OW18304   1.061   0.059   2.735 -0.1535 -0.4755 -0.0759
 5909SOL    HW118305   1.036   0.150   2.751 -0.9613 -0.6933 -0.0319
 5909SOL    HW218306   1.108   0.061   2.652 -2.3589 -0.3257 -1.4279
 5910SOL     OW18307   7.159   4.375   8.110  0.1409  0.4197 -0.4249
 5910SOL    HW118308   7.139   4.452   8.058  1.4598 -0.1522 -1.8605
 5910SOL    HW218309   7.236   4.336   8.067 -1.4939 -2.6875 -0.8415
 5911SOL     OW18310   6.454   4.916   9.790 -0.1324 -0.1768 -0.3574
 5911SOL    HW118311   6.487   4.827   9.784 -1.2922 -0.7270  0.9474
 5911SOL    HW218312   6.530   4.968   9.818  0.7481 -0.5745 -1.8705
 5912SOL     OW18313   5.226   6.421   5.358  0.0331  0.1750 -0.3930
 5912SOL    HW118314   5.168   6.354   5.322  0.9306  0.1019 -1.7719
 5912SOL    HW218315   5.314   6.383   5.350  0.4414  1.0200 -0.0488
 5913SOL     OW18316   6.933   9.636   3.318 -0.0639  0.3631 -0.3157
 5913SOL    HW118317   6.901   9.688   3.244 -0.3297 -0.0508 -0.4953
 5913SOL    HW218318   6.882   9.555   3.314  1.5341 -0.6734 -1.0939
 5914SOL     OW18319   2.383   2.029   9.724 -0.4490 -0.3951 -0.0451
 5914SOL    HW118320   2.389   2.065   9.636  0.9349 -0.5587 -0.0365
 5914SOL    HW218321   2.337   2.096   9.774 -1.1188 -0.2339 -0.8439
 5915SOL     OW18322   9.664   1.483   8.129  0.1068 -0.8137 -0.1075
 5915SOL    HW118323   9.699   1.430   8.057  0.5013 -0.5242 -0.1351
 5915SOL    HW218324   9.596   1.537   8.089  2.7816  2.1166 -1.1773
 5916SOL     OW18325   4.125   0.096   3.007 -0.0712 -0.2393  0.3875
 5916SOL    HW118326   4.185   0.043   2.955  0.7108 -0.7374  1.7367
 5916SOL    HW218327   4.107   0.042   3.084 -0.2549  0.9513  1.2016
 5917SOL     OW18328   2.747   6.737   4.242  0.3790 -0.0865 -0.0420
 5917SOL    HW118329   2.689   6.674   4.199 -1.1923  0.2822  1.4297
 5917SOL    HW218330   2.786   6.688   4.315  1.4387 -0.1361 -0.6159
 5918SOL     OW18331   7.230   3.168   4.636 -0.0652  0.5766 -0.5265
 5918SOL    HW118332   7.195   3.224   4.567  0.4928  0.3238 -1.0132
 5918SOL    HW218333   7.309   3.129   4.599  0.2536  0.4586  0.2627
 5919SOL     OW18334   8.989   3.541   8.334 -0.7599  0.1657 -0.4549
 5919SOL    HW118335   8.994   3.596   8.256 -0.1630  1.6811  0.5996
 5919SOL    HW218336   8.905   3.495   8.325 -0.3054 -0.3936 -2.3960
 5920SOL     OW18337   1.418   2.085   8.340  0.1875 -0.2439  0.4916
 5920SOL    HW118338   1.494   2.142   8.327  0.8895 -1.1574  0.4897
 5920SOL    HW218339   1.429   2.051   8.429  1.6244 -2.9643 -0.5939
 5921SOL     OW18340   9.840   8.780   2.263 -0.3639  0.0481  1.3789
 5921SOL    HW118341   9.925   8.823   2.274 -0.7921  1.0053  1.0322
 5921SOL    HW218342   9.776   8.843   2.297 -0.9895 -0.4069  1.0740
 5922SOL     OW18343   8.731   4.984   9.622 -0.1019 -0.0810 -0.7436
 5922SOL    HW118344   8.812   4.938   9.600  0.2278 -0.3540  0.8528
 5922SOL    HW218345   8.700   4.939   9.701 -0.9279  1.0613 -0.3938
 5923SOL     OW18346   7.101   8.063   8.105  0.0970  0.1648  0.2667
 5923SOL    HW118347   7.070   8.133   8.162  1.4516  0.8008  0.2587
 5923SOL    HW218348   7.133   7.996   8.166  0.2247  0.2249  0.2666
 5924SOL     OW18349   2.168   3.546   3.692 -0.4590 -0.1434  0.1459
 5924SOL    HW118350   2.240   3.572   3.635  0.8701 -0.8068  1.4603
 5924SOL    HW218351   2.201   3.470   3.740 -1.9261 -0.2675  1.0274
 5925SOL     OW18352   0.694   4.279   4.261 -0.2958  0.0256  0.0927
 5925SOL    HW118353   0.719   4.189   4.282  1.5435  0.4303 -0.2473
 5925SOL    HW218354   0.718   4.329   4.340  0.1187  0.4460 -0.2952
 5926SOL     OW18355   2.482   9.743   4.695 -1.0693  0.0448  0.7716
 5926SOL    HW118356   2.426   9.819   4.712 -0.2994  0.3284  2.2210
 5926SOL    HW218357   2.444   9.673   4.748  0.6481  0.6047  2.9248
 5927SOL     OW18358   0.725   2.894   8.520 -0.5167  0.0828 -0.7607
 5927SOL    HW118359   0.669   2.913   8.445  1.0079  0.7514 -1.7777
 5927SOL    HW218360   0.762   2.808   8.502 -0.4800  0.0574 -0.5669
 5928SOL     OW18361   3.283   2.668   6.178  0.0186  0.0543 -0.0943
 5928SOL    HW118362   3.361   2.717   6.150  0.2288 -1.3637 -2.2535
 5928SOL    HW218363   3.316   2.582   6.201 -0.6474  0.1559  1.3626
 5929SOL     OW18364   3.642   0.880   4.746  0.4281  0.2336 -0.4151
 5929SOL    HW118365   3.657   0.972   4.768 -2.3735  0.7962 -0.4915
 5929SOL    HW218366   3.720   0.834   4.779  0.8826  2.3223  1.6969
 5930SOL     OW18367   2.331   6.077   6.076 -0.0891 -0.1845  0.9800
 5930SOL    HW118368   2.305   6.023   6.151  0.2444 -0.3230  0.9972
 5930SOL    HW218369   2.255   6.134   6.060  0.0815  0.2966  1.8293
 5931SOL     OW18370   8.840   9.801   2.201 -0.3554 -0.3871  0.1012
 5931SOL    HW118371   8.843   9.779   2.294 -0.5368 -1.2749 -0.0869
 5931SOL    HW218372   8.864   9.893   2.197 -0.6626 -0.2484  1.0566
 5932SOL     OW18373   0.105   2.022   7.366 -0.9062  0.4279  0.3083
 5932SOL    HW118374   0.159   2.082   7.417  0.0469 -1.1713  1.2405
 5932SOL    HW218375   0.017   2.058   7.371 -0.2943  1.9691  0.4680
 5933SOL     OW18376   8.082   2.287   2.750 -0.2995  0.2508 -0.6912
 5933SOL    HW118377   8.064   2.381   2.759 -0.4022  0.3609 -1.8685
 5933SOL    HW218378   8.144   2.281   2.677 -0.1356 -0.5902 -0.4974
 5934SOL     OW18379   2.828   4.284   2.671 -0.0134 -0.2795 -0.0519
 5934SOL    HW118380   2.907   4.272   2.724  1.0780  1.7221 -1.1136
 5934SOL    HW218381   2.759   4.301   2.736  0.9132  0.3012  0.8072
 5935SOL     OW18382   2.281   8.822   1.782  0.0767  0.1173 -0.4372
 5935SOL    HW118383   2.320   8.780   1.859 -1.2068 -1.9139 -0.8046
 5935SOL    HW218384   2.209   8.875   1.817 -0.8830 -1.2674 -0.2157
 5936SOL     OW18385   7.445   6.049   2.187 -0.5077 -0.0957 -0.4863
 5936SOL    HW118386   7.539   6.046   2.174  0.3581  2.4082  3.5704
 5936SOL    HW218387   7.430   6.000   2.268 -2.2142  1.8843  0.4979
 5937SOL     OW18388   7.692   8.328   6.307 -0.2963 -0.1893  0.6107
 5937SOL    HW118389   7.752   8.256   6.287  0.7622  0.7021  0.4559
 5937SOL    HW218390   7.749   8.405   6.315 -1.4768  0.7739  0.0427
 5938SOL     OW18391   1.971   6.627   3.590  0.4558  0.3530  0.7004
 5938SOL    HW118392   1.973   6.655   3.681 -0.5957  3.9362 -0.2121
 5938SOL    HW218393   2.041   6.676   3.548  1.0752 -1.4073 -0.4345
 5939SOL     OW18394   0.901   3.227   9.870 -0.6409  0.1079 -0.6757
 5939SOL    HW118395   0.864   3.263   9.951 -1.1675 -1.3151 -0.2650
 5939SOL    HW218396   0.910   3.134   9.887  0.0495 -0.0814 -1.9697
 5940SOL     OW18397   8.719   7.506   3.096 -0.0571  0.0622 -0.5000
 5940SOL    HW118398   8.661   7.442   3.055  0.8139 -0.6396 -0.6610
 5940SOL    HW218399   8.790   7.453   3.134 -0.6243  0.6974  1.6001
 5941SOL     OW18400   9.335   3.777   1.223  0.2575 -0.3834  0.4637
 5941SOL    HW118401   9.387   3.708   1.181  0.7373  0.8449 -1.0742
 5941SOL    HW218402   9.246   3.764   1.188  0.1154 -0.8066  0.9600
 5942SOL     OW18403   1.672   6.935   9.431  0.0777 -0.3426 -0.2518
 5942SOL    HW118404   1.748   6.958   9.378 -0.7706 -0.0696 -1.3815
 5942SOL    HW218405   1.604   6.911   9.367 -0.6795 -0.9210  0.7378
 5943SOL     OW18406   3.590   7.089   5.067 -0.0931 -0.0909 -0.0547
 5943SOL    HW118407   3.536   7.012   5.086 -0.7455  0.6004  0.9820
 5943SOL    HW218408   3.668   7.053   5.023 -1.1222 -1.1599 -1.0921
 5944SOL     OW18409   3.991   7.730   3.222 -0.6221 -0.0049  0.5122
 5944SOL    HW118410   4.083   7.730   3.249 -0.4176 -0.9910 -0.1030
 5944SOL    HW218411   3.941   7.735   3.303 -0.0328  1.2167  0.8133
 5945SOL     OW18412   9.164   9.787   7.214 -0.3747  0.8046 -0.2225
 5945SOL    HW118413   9.212   9.713   7.252  1.7101  1.4475 -1.4516
 5945SOL    HW218414   9.130   9.835   7.289 -0.4886 -0.5895  0.6443
 5946SOL     OW18415   3.264   0.052   1.019  0.1301  0.1268 -0.0776
 5946SOL    HW118416   3.349   0.072   0.979  1.3199 -1.0322  1.7222
 5946SOL    HW218417   3.279  -0.029   1.068 -1.9407  0.0762  0.5649
 5947SOL     OW18418   7.484   1.261   4.744 -0.2662  0.6507 -0.6194
 5947SOL    HW118419   7.579   1.273   4.750  0.2696 -2.3562 -1.4473
 5947SOL    HW218420   7.468   1.240   4.652 -2.0347  2.7726 -0.8583
 5948SOL     OW18421   3.976   8.126   5.569 -0.6629  0.0673  0.1948
 5948SOL    HW118422   3.967   8.084   5.483 -1.0278 -1.7055  1.0356
 5948SOL    HW218423   4.007   8.056   5.626 -1.3939  0.9403  1.7216
 5949SOL     OW18424   8.369   0.867   4.881  0.1240  0.4001 -0.2785
 5949SOL    HW118425   8.339   0.788   4.836  0.3817 -0.4774  1.0397
 5949SOL    HW218426   8.434   0.905   4.822  0.1801 -0.5130 -0.8179
 5950SOL     OW18427   4.521   0.273   6.905 -0.6603  0.2363 -0.1810
 5950SOL    HW118428   4.585   0.328   6.859 -0.2569  0.8935  1.1095
 5950SOL    HW218429   4.437   0.316   6.890 -1.0365 -1.2606 -2.8474
 5951SOL     OW18430   5.138   4.092   1.519  0.1803  0.4856 -0.0341
 5951SOL    HW118431   5.150   4.147   1.441 -0.4005  2.3777  1.1363
 5951SOL    HW218432   5.187   4.012   1.499  1.1041  1.4133 -1.8219
 5952SOL     OW18433   3.867   4.983   1.200 -0.4325 -0.3730  0.4393
 5952SOL    HW118434   3.802   4.914   1.209 -1.0069  0.1932  0.6577
 5952SOL    HW218435   3.885   4.988   1.106 -0.6266 -0.5966  0.3923
 5953SOL     OW18436   6.815   3.789   5.078  0.0273 -0.2756 -0.1559
 5953SOL    HW118437   6.812   3.695   5.057  0.9135 -0.3215 -0.1200
 5953SOL    HW218438   6.907   3.813   5.065 -0.3584  0.7858 -0.9854
 5954SOL     OW18439   8.260   7.344   9.978 -0.4605 -0.6026 -0.1550
 5954SOL    HW118440   8.221   7.299   9.903  0.7937 -1.8047 -0.1359
 5954SOL    HW218441   8.353   7.319   9.975  0.0557  1.1211  0.5208
 5955SOL     OW18442   9.201   9.424   1.822  0.1233 -0.2141  0.2033
 5955SOL    HW118443   9.188   9.444   1.915  0.1722  1.6293 -0.1529
 5955SOL    HW218444   9.224   9.508   1.782 -1.8998 -0.5399 -1.8528
 5956SOL     OW18445   2.546   2.604   2.276  0.5613  0.2409 -0.3166
 5956SOL    HW118446   2.520   2.695   2.267  1.2885  0.3586 -1.5205
 5956SOL    HW218447   2.627   2.607   2.326 -0.0086  0.1404  0.6409
 5957SOL     OW18448   2.816   6.599   5.678  0.1856  0.2587 -0.1666
 5957SOL    HW118449   2.755   6.658   5.635  1.9823  0.5179 -2.5783
 5957SOL    HW218450   2.764   6.556   5.746 -1.9771  2.2551 -0.4294
 5958SOL     OW18451   7.858   7.200   2.836  0.1439  0.2926  0.0200
 5958SOL    HW118452   7.785   7.138   2.835  0.2371  0.1705  0.4975
 5958SOL    HW218453   7.831   7.268   2.897  0.7807 -0.1972  0.8720
 5959SOL     OW18454   0.892   6.858   6.857 -0.6617 -0.1514  0.4223
 5959SOL    HW118455   0.832   6.933   6.860 -1.6315 -0.9060  0.6070
 5959SOL    HW218456   0.883   6.824   6.768 -0.3935 -0.1751  0.4053
 5960SOL     OW18457   5.559   0.208   0.476 -0.2641  0.3757 -0.2826
 5960SOL    HW118458   5.624   0.137   0.477 -0.3376  0.3003  1.0605
 5960SOL    HW218459   5.555   0.236   0.385  0.4905 -0.6914 -0.6584
 5961SOL     OW18460   8.876   0.980   0.494  0.0810 -0.3213 -0.2519
 5961SOL    HW118461   8.945   1.042   0.472 -0.5327  0.5515  0.2300
 5961SOL    HW218462   8.799   1.012   0.447 -0.6520  0.2229  1.2625
 5962SOL     OW18463   7.956   0.479   6.463  0.0674 -0.2524  0.2533
 5962SOL    HW118464   7.990   0.428   6.390 -2.4854 -0.7314 -0.7006
 5962SOL    HW218465   7.975   0.570   6.439  0.7550 -0.5022 -0.1783
 5963SOL     OW18466   8.145   6.234   5.813 -0.1217 -0.1166  0.4853
 5963SOL    HW118467   8.176   6.157   5.860  0.3745 -0.8247 -0.9260
 5963SOL    HW218468   8.051   6.238   5.832 -0.3766 -1.7368 -0.2588
 5964SOL     OW18469   8.565   1.416   4.345 -0.2058 -0.2254 -0.2776
 5964SOL    HW118470   8.640   1.403   4.287  1.7486  0.9067  1.8312
 5964SOL    HW218471   8.493   1.441   4.287  1.5725  0.6581 -2.2075
 5965SOL     OW18472   6.728   3.449   6.260  0.8598  0.2713  0.1626
 5965SOL    HW118473   6.814   3.452   6.217  1.6959 -3.0103  1.2843
 5965SOL    HW218474   6.677   3.388   6.206  0.0820  0.2881  0.8585
 5966SOL     OW18475   8.242   6.708   0.547 -0.0826  0.0920 -0.4094
 5966SOL    HW118476   8.240   6.790   0.498 -0.6787  1.2900  1.5266
 5966SOL    HW218477   8.285   6.730   0.629 -2.3379 -0.9229  1.1450
 5967SOL     OW18478   7.482   5.988   8.308  0.4789  0.4723  0.3319
 5967SOL    HW118479   7.485   5.904   8.261 -2.9490  0.9543 -1.0403
 5967SOL    HW218480   7.461   5.964   8.399 -2.2964 -0.2298 -0.3970
 5968SOL     OW18481   6.884   6.593   4.712 -0.1824  0.4761  0.0681
 5968SOL    HW118482   6.892   6.685   4.738  0.8128  0.7843 -1.1930
 5968SOL    HW218483   6.973   6.567   4.688 -0.7260 -0.2455 -1.3374
 5969SOL     OW18484   3.969   5.811   0.388 -0.3722 -0.0438 -0.3618
 5969SOL    HW118485   3.962   5.881   0.323 -2.9772  0.8064  0.7139
 5969SOL    HW218486   3.898   5.751   0.367 -1.0292  0.0511  1.4174
 5970SOL     OW18487   2.674   7.996   7.355  0.6844  0.3235  0.0130
 5970SOL    HW118488   2.614   8.070   7.370  1.7078  1.3138 -0.6796
 5970SOL    HW218489   2.743   8.008   7.420  0.1982 -0.7906  0.7742
 5971SOL     OW18490   3.681   8.233   1.589  0.1141  0.2961  0.5068
 5971SOL    HW118491   3.657   8.305   1.531 -3.0673 -2.4936 -2.0475
 5971SOL    HW218492   3.633   8.250   1.670 -2.4007  0.0843 -0.8457
 5972SOL     OW18493   5.004   6.022   6.585 -0.0660  0.0470  0.0475
 5972SOL    HW118494   4.948   6.084   6.539  0.4592 -0.6851 -1.6713
 5972SOL    HW218495   5.057   6.076   6.643 -0.6307  1.0436 -0.3300
 5973SOL     OW18496   1.030   3.429   4.973  0.2229 -0.4324  0.8139
 5973SOL    HW118497   1.097   3.492   4.999  0.8555 -0.8682  0.2829
 5973SOL    HW218498   0.965   3.480   4.924  1.5200 -0.4110 -0.9922
 5974SOL     OW18499   7.457   9.396   3.642  0.0983  0.3608 -0.5511
 5974SOL    HW118500   7.537   9.405   3.589  0.7425 -0.3449  0.2690
 5974SOL    HW218501   7.417   9.483   3.639  2.3587  1.5797  1.2506
 5975SOL     OW18502   9.990   0.163   1.479 -0.4471 -0.0582  0.2503
 5975SOL    HW118503  10.042   0.187   1.403  0.9888 -0.5679  1.0524
 5975SOL    HW218504   9.899   0.175   1.450  0.0584 -0.3447 -1.5613
 5976SOL     OW18505   3.887   0.299   0.664 -0.2582  0.3720  0.2227
 5976SOL    HW118506   3.880   0.360   0.737 -0.7568 -1.2212  1.5577
 5976SOL    HW218507   3.897   0.356   0.587 -1.0721  2.1367  1.3444
 5977SOL     OW18508   0.984   1.920   0.432 -0.0396 -0.2303 -0.1396
 5977SOL    HW118509   1.015   1.855   0.495  1.1818 -1.1861 -1.6538
 5977SOL    HW218510   1.051   1.988   0.432  0.2643 -0.5200 -0.7983
 5978SOL     OW18511   4.211   7.274   2.643 -0.6142  0.4065  0.1050
 5978SOL    HW118512   4.134   7.276   2.586 -0.3383 -1.1292 -0.3448
 5978SOL    HW218513   4.175   7.282   2.732 -1.6482 -3.1931  0.1540
 5979SOL     OW18514   9.420   0.704   0.991  0.3616 -0.0561  0.2848
 5979SOL    HW118515   9.420   0.683   1.084  1.0719 -2.6419 -0.2297
 5979SOL    HW218516   9.512   0.724   0.971  0.1507  0.8500  0.2029
 5980SOL     OW18517   1.806   7.306   4.516 -0.1985 -0.8160 -0.2322
 5980SOL    HW118518   1.762   7.291   4.600 -0.2852  1.2801  0.1766
 5980SOL    HW218519   1.892   7.265   4.526 -0.1866 -0.5588  0.9250
 5981SOL     OW18520   7.764   2.820   2.238 -0.1883 -0.2669  0.5331
 5981SOL    HW118521   7.831   2.826   2.306  1.7519 -0.4207 -1.2497
 5981SOL    HW218522   7.782   2.895   2.180 -1.0314 -0.7668 -0.4113
 5982SOL     OW18523   5.576   2.955   3.655 -0.6070  0.5380 -0.2298
 5982SOL    HW118524   5.666   2.985   3.646 -0.7194  1.6660  1.8318
 5982SOL    HW218525   5.544   2.946   3.565  1.2479  1.0453 -0.9699
 5983SOL     OW18526   0.769   4.485   9.221 -0.1013 -0.0695 -0.1018
 5983SOL    HW118527   0.751   4.499   9.314 -0.2412 -0.9459  0.0126
 5983SOL    HW218528   0.860   4.457   9.218  0.3507  1.3603 -0.3818
 5984SOL     OW18529   8.113   6.700   7.505 -0.1817 -0.1239 -0.3821
 5984SOL    HW118530   8.023   6.727   7.525  0.6239  2.1637  0.4098
 5984SOL    HW218531   8.123   6.719   7.412 -0.3638  0.0428 -0.3669
 5985SOL     OW18532   8.814   0.663   4.410  0.1247 -0.0895  0.2465
 5985SOL    HW118533   8.726   0.647   4.376  0.2119  0.4348 -0.2393
 5985SOL    HW218534   8.807   0.646   4.504 -0.3578 -0.5993  0.1193
 5986SOL     OW18535   5.964   3.319   9.241 -0.3127 -0.1541 -0.1166
 5986SOL    HW118536   5.877   3.348   9.267 -0.0988  0.7196 -0.3546
 5986SOL    HW218537   5.983   3.367   9.161  0.7785  0.4191  0.4534
 5987SOL     OW18538   2.967   9.559   8.671  0.6033  0.2372 -0.2619
 5987SOL    HW118539   2.911   9.573   8.594 -1.4663  2.5753  1.4846
 5987SOL    HW218540   2.913   9.507   8.730  2.3573 -1.9564 -0.4879
 5988SOL     OW18541   2.410   6.854   6.760 -0.0695 -0.7048 -0.3753
 5988SOL    HW118542   2.505   6.846   6.761 -0.0115 -0.0285 -0.0263
 5988SOL    HW218543   2.393   6.940   6.724 -0.6575 -1.9477 -3.3328
 5989SOL     OW18544   3.045   1.460   2.251  0.1359  0.1198  0.2257
 5989SOL    HW118545   3.063   1.372   2.284  0.5108  0.1409  0.0705
 5989SOL    HW218546   3.068   1.457   2.158 -0.7179  0.1237  0.0022
 5990SOL     OW18547   7.968   0.153   6.550 -0.2659  0.5623 -0.2256
 5990SOL    HW118548   7.886   0.178   6.506 -2.0531  1.0215  3.0657
 5990SOL    HW218549   7.958   0.060   6.568  0.0196  0.5757  0.0050
 5991SOL     OW18550   3.008   3.223   6.092 -0.1861 -0.0274 -0.3780
 5991SOL    HW118551   3.088   3.183   6.056 -0.4368 -0.0027 -0.9784
 5991SOL    HW218552   2.937   3.182   6.043 -0.3996  1.9883 -1.8627
 5992SOL     OW18553   3.818   4.307   0.329  0.2718  0.1655 -0.2702
 5992SOL    HW118554   3.792   4.288   0.239  1.9028 -2.0079 -0.3384
 5992SOL    HW218555   3.753   4.261   0.383  1.0902 -1.1679 -0.3931
 5993SOL     OW18556   7.227   4.043   1.577  0.0890 -0.2086 -0.0073
 5993SOL    HW118557   7.157   4.041   1.511  0.0041 -1.3315  0.0935
 5993SOL    HW218558   7.213   3.964   1.628  2.3987 -1.3289 -0.9780
 5994SOL     OW18559   3.577   2.782   8.416 -0.1416 -0.8800  0.1030
 5994SOL    HW118560   3.497   2.830   8.397  0.3487 -0.4690 -0.9524
 5994SOL    HW218561   3.630   2.842   8.468 -0.7211 -1.3455  1.2674
 5995SOL     OW18562   0.767   2.179   1.488 -0.5081 -0.1703  0.2111
 5995SOL    HW118563   0.784   2.147   1.400  0.9825  0.8557  0.0786
 5995SOL    HW218564   0.722   2.107   1.532 -0.3158 -1.0993 -1.0550
 5996SOL     OW18565   5.526   4.774   6.348 -0.2415  0.1057 -0.7073
 5996SOL    HW118566   5.617   4.775   6.378 -1.0117  2.1284  1.9589
 5996SOL    HW218567   5.533   4.766   6.253  2.6528 -0.8513 -0.5320
 5997SOL     OW18568   1.044   6.589   1.293  0.0925  0.1312  0.3942
 5997SOL    HW118569   1.000   6.670   1.318 -1.5183  0.3446 -2.6865
 5997SOL    HW218570   0.990   6.520   1.331  0.1688  0.4510  1.0984
 5998SOL     OW18571   9.262   6.778   9.705 -0.0349  0.4710  0.8372
 5998SOL    HW118572   9.289   6.837   9.635  0.5904  0.3663  0.9901
 5998SOL    HW218573   9.342   6.732   9.730 -0.7523 -1.5158 -0.2811
 5999SOL     OW18574   0.076   2.149   0.324 -0.5076  0.0018  0.3529
 5999SOL    HW118575   0.142   2.206   0.286 -0.2525 -1.9850 -2.4886
 5999SOL    HW218576  -0.007   2.189   0.302 -0.3042  0.0916 -0.2651
 6000SOL     OW18577   8.684   1.249   5.865  0.4471 -0.3908  0.0441
 6000SOL    HW118578   8.608   1.236   5.922 -0.8254  1.4042 -1.1342
 6000SOL    HW218579   8.726   1.328   5.899  1.0225 -0.6181 -0.1289
 6001SOL     OW18580   8.152   6.638   3.464  0.3386  0.4816  0.6182
 6001SOL    HW118581   8.236   6.685   3.469  0.5358  0.3251 -0.7655
 6001SOL    HW218582   8.090   6.705   3.434  0.0207  0.5164  1.3287
 6002SOL     OW18583   4.925   0.219   2.710  0.1908 -0.0958 -0.7230
 6002SOL    HW118584   4.927   0.127   2.682  1.1366 -0.0294 -0.8905
 6002SOL    HW218585   5.010   0.254   2.685 -1.3895  1.8296 -3.9614
 6003SOL     OW18586   6.379   1.265   5.878  0.1542 -0.0263 -0.3053
 6003SOL    HW118587   6.317   1.239   5.946  2.7291 -0.9149  1.9056
 6003SOL    HW218588   6.389   1.359   5.889 -0.2543  0.0059 -0.2004
 6004SOL     OW18589   6.299   4.758   2.615 -0.0242  0.1868  0.8914
 6004SOL    HW118590   6.317   4.679   2.564 -0.0189 -0.3409  1.6937
 6004SOL    HW218591   6.385   4.797   2.629 -0.1472  1.1489 -0.7423
 6005SOL     OW18592   9.308   7.138   1.793 -0.0095 -0.8033  0.3849
 6005SOL    HW118593   9.230   7.085   1.776 -0.1422 -0.4689 -0.0674
 6005SOL    HW218594   9.312   7.199   1.719  0.3581 -0.4422  0.7006
 6006SOL     OW18595   2.462   1.685   5.817  0.2548  0.4028  0.1203
 6006SOL    HW118596   2.440   1.627   5.743 -0.4994  0.3128  0.4069
 6006SOL    HW218597   2.398   1.756   5.812  0.1863  0.3851  0.7002
 6007SOL     OW18598   6.273   3.471   3.715  0.1441 -0.3197 -0.2232
 6007SOL    HW118599   6.318   3.453   3.632 -1.8207  1.3278 -1.7802
 6007SOL    HW218600   6.315   3.551   3.748 -1.1702  0.9553 -1.4437
 6008SOL     OW18601   6.566   5.134   6.688 -0.4533  0.4014 -0.0795
 6008SOL    HW118602   6.571   5.216   6.638 -1.8181 -0.0115 -0.9599
 6008SOL    HW218603   6.498   5.150   6.753  0.3882  0.4784  0.8084
 6009SOL     OW18604   5.851   5.463   3.922  0.3417 -0.1085 -0.1097
 6009SOL    HW118605   5.799   5.542   3.911 -0.0370 -0.0272  1.8954
 6009SOL    HW218606   5.933   5.493   3.962  1.0005 -0.5137 -1.1111
 6010SOL     OW18607   4.203   5.999   1.733 -0.0528  0.1605  0.1092
 6010SOL    HW118608   4.252   6.081   1.737  0.3601 -0.1217  1.0355
 6010SOL    HW218609   4.269   5.931   1.732 -0.4027 -0.1810 -0.2343
 6011SOL     OW18610   6.261   5.273   1.831  0.3854 -0.2995  0.3191
 6011SOL    HW118611   6.285   5.193   1.878 -1.0920 -1.4480 -0.7761
 6011SOL    HW218612   6.296   5.260   1.743 -0.0979  0.1305  0.0606
 6012SOL     OW18613   9.781   5.180   0.865 -0.4672  0.3251 -0.0482
 6012SOL    HW118614   9.776   5.275   0.871  1.2906  0.4397  0.2743
 6012SOL    HW218615   9.766   5.161   0.772 -2.5547  0.7364  0.1690
 6013SOL     OW18616   6.232   8.283   1.605 -0.1509 -0.0805  0.3743
 6013SOL    HW118617   6.303   8.242   1.654  2.4602  1.2106 -2.0401
 6013SOL    HW218618   6.176   8.210   1.579  1.0279 -1.3454  1.2228
 6014SOL     OW18619   0.586   1.970   8.101  0.6299  0.6015  0.0081
 6014SOL    HW118620   0.588   1.914   8.023  0.5167 -1.1519  1.2322
 6014SOL    HW218621   0.589   2.059   8.065 -0.5711 -0.1048 -2.0636
 6015SOL     OW18622   1.472   7.771   9.999 -0.2168 -0.2616  0.0130
 6015SOL    HW118623   1.421   7.779   9.919  1.1741  0.3526 -0.8462
 6015SOL    HW218624   1.563   7.770   9.970  0.2825 -1.3679  1.4963
 6016SOL     OW18625   7.337   0.166   5.166  0.2624 -0.0454  0.4113
 6016SOL    HW118626   7.275   0.100   5.196 -0.1580  0.0400 -0.2282
 6016SOL    HW218627   7.423   0.124   5.172 -0.1454 -1.3531 -1.7113
 6017SOL     OW18628   8.089   9.327   8.062 -0.0542 -0.3635 -0.7119
 6017SOL    HW118629   8.177   9.352   8.090 -1.0167  0.4614  1.8764
 6017SOL    HW218630   8.077   9.238   8.097 -0.4195 -0.2814 -0.6259
 6018SOL     OW18631   9.575   3.017   5.476 -0.1181 -0.1077 -0.9292
 6018SOL    HW118632   9.563   3.055   5.389 -1.4010 -2.1889 -1.7474
 6018SOL    HW218633   9.488   3.016   5.515  0.1149 -0.9063 -0.3945
 6019SOL     OW18634   5.337   5.813   9.441 -0.0167  0.0953  0.3785
 6019SOL    HW118635   5.269   5.878   9.421  0.7314  0.8551  0.2692
 6019SOL    HW218636   5.419   5.863   9.440  0.7403 -1.0952 -1.0824
 6020SOL     OW18637   3.680   6.474   7.218  0.3783  0.2378  0.4071
 6020SOL    HW118638   3.613   6.450   7.282  1.4495  1.2560  2.0048
 6020SOL    HW218639   3.670   6.410   7.147 -0.6957 -1.1297  1.7141
 6021SOL     OW18640   7.149   6.581   7.426 -0.0105  0.2354  0.3963
 6021SOL    HW118641   7.088   6.526   7.376 -0.6211  0.7907  0.5204
 6021SOL    HW218642   7.236   6.549   7.401 -0.2823  0.6932 -1.2496
 6022SOL     OW18643   6.078   4.193   6.475  0.1776  0.1598  0.0296
 6022SOL    HW118644   6.134   4.263   6.441  1.8695 -1.7012 -1.2535
 6022SOL    HW218645   5.993   4.234   6.487  1.5496  2.9119  1.2214
 6023SOL     OW18646   3.334   4.140   0.183 -0.0101  0.3674  0.5873
 6023SOL    HW118647   3.367   4.209   0.125  0.5610  0.0674  0.5485
 6023SOL    HW218648   3.371   4.059   0.147 -0.7671  0.0207  0.5628
 6024SOL     OW18649   7.400   8.150   9.816 -0.1087  0.2666 -0.3521
 6024SOL    HW118650   7.317   8.185   9.783 -0.3100  0.2171  0.0920
 6024SOL    HW218651   7.380   8.059   9.840  0.1145  0.2058 -0.3943
 6025SOL     OW18652   5.179   6.499   3.647  0.6428 -0.6038 -0.0082
 6025SOL    HW118653   5.097   6.481   3.693  0.0321 -0.2308 -0.9161
 6025SOL    HW218654   5.184   6.433   3.578  0.8466 -0.3087 -0.2812
 6026SOL     OW18655   6.230   4.753   8.197 -0.7486  0.2523 -0.1788
 6026SOL    HW118656   6.250   4.668   8.235  0.0527 -0.0517 -1.2145
 6026SOL    HW218657   6.186   4.733   8.114 -2.2793  0.8900  0.4307
 6027SOL     OW18658   8.675   9.718   3.935 -0.5945 -0.4491  0.0621
 6027SOL    HW118659   8.637   9.760   4.012  2.4754 -2.5375  3.0091
 6027SOL    HW218660   8.610   9.652   3.909 -2.0395  0.8467  0.2400
 6028SOL     OW18661   6.139   1.736   2.682  0.0263  0.0761  0.1167
 6028SOL    HW118662   6.112   1.648   2.656 -0.2528  0.5323 -1.2389
 6028SOL    HW218663   6.232   1.727   2.702 -0.3236 -0.8134  1.4466
 6029SOL     OW18664   8.056   1.246   5.430  0.0362  0.5625 -0.7336
 6029SOL    HW118665   8.091   1.250   5.340  0.2643  2.0071 -0.6022
 6029SOL    HW218666   8.030   1.155   5.441  0.8126  0.1590 -1.9697
 6030SOL     OW18667   9.042   4.918   2.906 -0.6589 -0.3555 -1.0380
 6030SOL    HW118668   9.056   5.012   2.920 -2.2329 -0.2394 -0.0709
 6030SOL    HW218669   9.036   4.909   2.811  0.3715  0.3675 -1.1983
 6031SOL     OW18670   2.000   2.620   7.699 -0.9050  0.2658  0.1279
 6031SOL    HW118671   1.994   2.647   7.607 -0.4957  0.2443  0.0951
 6031SOL    HW218672   1.909   2.608   7.726 -1.0242  0.1877 -0.3005
 6032SOL     OW18673   7.353   1.597   7.352 -0.1332 -0.1541  0.1001
 6032SOL    HW118674   7.268   1.622   7.389 -1.2534 -1.8257 -1.1680
 6032SOL    HW218675   7.372   1.512   7.392  1.0650  0.2766  0.4916
 6033SOL     OW18676   4.293   2.574   0.982 -0.1306  0.5020 -0.2225
 6033SOL    HW118677   4.312   2.623   0.903 -2.7890  1.3840 -0.4066
 6033SOL    HW218678   4.263   2.640   1.045 -1.2991 -0.5524  0.3766
 6034SOL     OW18679   3.677   7.374   1.910 -0.4906 -0.6580  0.2203
 6034SOL    HW118680   3.613   7.432   1.868  0.2077  0.7728  1.0421
 6034SOL    HW218681   3.625   7.315   1.963 -1.1667  0.3770  0.7387
 6035SOL     OW18682   9.842   4.084   7.787  0.2031  0.5880 -0.0814
 6035SOL    HW118683   9.915   4.090   7.849  0.4123  0.7853 -0.3439
 6035SOL    HW218684   9.880   4.107   7.703 -0.2886  1.2664 -0.1272
 6036SOL     OW18685   3.631   8.941   7.930  0.0252  0.4405 -0.3819
 6036SOL    HW118686   3.581   8.926   8.010 -1.4199  0.0939 -1.3182
 6036SOL    HW218687   3.720   8.912   7.952 -0.7535 -1.4535  0.5278
 6037SOL     OW18688   9.161   4.919   0.810 -0.3521  0.0430 -0.2066
 6037SOL    HW118689   9.256   4.924   0.803 -0.3211 -0.2873 -0.0392
 6037SOL    HW218690   9.135   4.859   0.741 -0.2065 -1.8092  1.2791
 6038SOL     OW18691   7.034   0.234   2.563  0.1644 -0.4157  1.0980
 6038SOL    HW118692   7.016   0.288   2.640 -1.8621  0.8904 -0.1706
 6038SOL    HW218693   6.991   0.281   2.491  0.9906 -2.1718 -0.6362
 6039SOL     OW18694   2.952   9.727   1.753 -0.2473 -0.2796  0.1359
 6039SOL    HW118695   3.034   9.703   1.796  0.2966  0.5827 -0.3870
 6039SOL    HW218696   2.975   9.800   1.696 -1.5398  0.4920  0.5598
 6040SOL     OW18697   7.115   3.918   6.169 -0.3681 -0.4685  0.5038
 6040SOL    HW118698   7.158   3.843   6.208 -0.4808 -0.8285 -0.0506
 6040SOL    HW218699   7.036   3.930   6.222  0.7958  0.7276  2.0608
 6041SOL     OW18700   4.484   9.276   9.499 -0.3018 -0.3139 -0.1985
 6041SOL    HW118701   4.397   9.249   9.531  0.0577 -2.8484 -1.2179
 6041SOL    HW218702   4.484   9.371   9.512 -1.6088 -0.6362  3.7894
 6042SOL     OW18703   2.396   1.507   0.382  0.2123 -0.3425  0.1636
 6042SOL    HW118704   2.430   1.501   0.293  1.6561 -0.3353  0.6933
 6042SOL    HW218705   2.425   1.426   0.425  1.3715  0.5908  1.2149
 6043SOL     OW18706   1.689   7.932   1.326 -0.1449  0.4270  0.3797
 6043SOL    HW118707   1.698   7.864   1.393 -1.8059 -0.5162 -0.2854
 6043SOL    HW218708   1.754   7.998   1.350 -0.2839 -0.1559  2.5788
 6044SOL     OW18709   2.301   1.962   6.847  0.1481  0.0016 -0.0408
 6044SOL    HW118710   2.308   2.037   6.789  0.8038 -0.0491 -0.0373
 6044SOL    HW218711   2.234   1.987   6.911 -0.8862 -0.1095 -1.0462
 6045SOL     OW18712   0.992   9.414   1.234 -0.3786  0.1696  0.0165
 6045SOL    HW118713   0.961   9.441   1.320  0.0387 -0.7108  0.4450
 6045SOL    HW218714   0.929   9.453   1.173 -0.9383  0.4135  0.7377
 6046SOL     OW18715   2.413   2.336   3.852  0.3234  0.0134 -0.0326
 6046SOL    HW118716   2.474   2.329   3.779  1.0609  0.3313  0.5400
 6046SOL    HW218717   2.435   2.420   3.894 -1.2861  0.7029 -0.4989
 6047SOL     OW18718   6.193   4.823   4.066  0.4470  0.3670  0.1386
 6047SOL    HW118719   6.108   4.863   4.087  1.1602  2.7347 -1.1023
 6047SOL    HW218720   6.245   4.835   4.145  0.6769  2.1694 -0.2226
 6048SOL     OW18721   7.265   8.233   4.949 -0.4450  0.5995  0.1251
 6048SOL    HW118722   7.275   8.240   4.854 -2.7235 -0.3351 -0.2421
 6048SOL    HW218723   7.346   8.191   4.979  0.0021  0.2538 -1.4849
 6049SOL     OW18724   9.783   7.784   0.343  0.6795 -0.4752 -0.1756
 6049SOL    HW118725   9.699   7.754   0.378  0.2335  0.3110 -0.5525
 6049SOL    HW218726   9.846   7.718   0.372  0.2133 -0.2372  1.5096
 6050SOL     OW18727   8.056   4.376   2.437 -0.0089  0.0314  0.1818
 6050SOL    HW118728   7.997   4.317   2.390 -1.3799 -0.1470  2.0179
 6050SOL    HW218729   8.111   4.415   2.368 -1.4941 -0.6549 -1.4736
 6051SOL     OW18730   5.205   0.602   8.263 -0.0013 -0.2565 -0.3412
 6051SOL    HW118731   5.209   0.673   8.198  0.6563  0.6401  0.6419
 6051SOL    HW218732   5.296   0.571   8.269  0.1176  0.2715  0.7790
 6052SOL     OW18733   8.384   0.364   0.884  0.4293  0.0406  0.4653
 6052SOL    HW118734   8.411   0.442   0.836 -0.6220 -0.2583 -0.6709
 6052SOL    HW218735   8.436   0.293   0.845  1.4165  0.1628  1.5266
 6053SOL     OW18736   3.512   0.686  -0.008  0.2383  0.7302  0.5826
 6053SOL    HW118737   3.532   0.593  -0.001  0.0064  0.5161 -1.0644
 6053SOL    HW218738   3.581   0.729   0.043  0.1011 -0.3496  1.7154
 6054SOL     OW18739   4.170   8.971   8.754  0.2752 -0.0888 -0.3284
 6054SOL    HW118740   4.174   8.877   8.736  0.7690 -0.3847  1.1661
 6054SOL    HW218741   4.246   9.008   8.709  1.2388 -0.7316  0.7105
 6055SOL     OW18742   6.984   7.710   7.842  0.3135 -0.0370  0.2056
 6055SOL    HW118743   7.069   7.743   7.870  1.3384 -3.5708  1.9266
 6055SOL    HW218744   6.921   7.752   7.900  1.3059  0.1439  1.1745
 6056SOL     OW18745   2.157   4.757   3.935 -0.7789 -0.2600  0.9994
 6056SOL    HW118746   2.169   4.780   3.843 -0.1423  0.4243  1.2383
 6056SOL    HW218747   2.188   4.834   3.983 -0.1750 -0.9730  1.8018
 6057SOL     OW18748   1.965   5.620   4.155 -0.0916  0.1328 -0.4785
 6057SOL    HW118749   1.930   5.644   4.069 -0.9186  0.1954 -0.1396
 6057SOL    HW218750   1.896   5.647   4.216  1.8638  3.3102  0.5626
 6058SOL     OW18751   8.879   1.033   8.656  0.1207 -0.0659 -0.1239
 6058SOL    HW118752   8.911   1.089   8.586 -0.4440 -0.3211 -0.5902
 6058SOL    HW218753   8.830   1.093   8.713 -0.0129  0.0168 -0.3239
 6059SOL     OW18754   5.904   9.254   3.866 -0.3794 -0.5441  0.8793
 6059SOL    HW118755   5.849   9.308   3.922  1.5130  0.6319  1.6761
 6059SOL    HW218756   5.993   9.281   3.886  0.4314  0.0482 -2.7773
 6060SOL     OW18757   7.969   2.092   1.936 -0.2630 -0.0097  0.0251
 6060SOL    HW118758   7.945   2.183   1.951 -0.5717  0.1473 -1.2895
 6060SOL    HW218759   7.953   2.048   2.020  1.3206  1.4201  1.1445
 6061SOL     OW18760   6.701   9.524   1.974 -0.0533 -0.1167  0.3919
 6061SOL    HW118761   6.659   9.609   1.970  1.2900  0.5511 -0.7131
 6061SOL    HW218762   6.629   9.461   1.969 -1.1306  0.9060  2.0454
 6062SOL     OW18763   6.469   5.660   6.048 -0.3043  0.2204  0.0938
 6062SOL    HW118764   6.522   5.676   6.126 -0.3926 -2.2537  0.7573
 6062SOL    HW218765   6.386   5.625   6.081 -0.1473 -1.4035 -1.0809
 6063SOL     OW18766   7.293   7.471   6.903  0.2485  0.0214  0.8568
 6063SOL    HW118767   7.328   7.545   6.952  2.2454  0.1502 -0.6731
 6063SOL    HW218768   7.200   7.492   6.891  0.9466  2.7513 -0.3622
 6064SOL     OW18769   0.668   1.900   6.298 -0.1062 -0.4929 -0.0433
 6064SOL    HW118770   0.636   1.839   6.365 -1.6920  1.5529  1.1746
 6064SOL    HW218771   0.762   1.905   6.314 -0.2270 -1.2084  1.0546
 6065SOL     OW18772   2.003   2.994   2.136  0.3420  0.1425 -0.0397
 6065SOL    HW118773   1.973   2.932   2.203  0.1377  1.3120  0.9803
 6065SOL    HW218774   1.928   3.004   2.078  0.1785 -0.1315  0.1194
 6066SOL     OW18775   7.137   2.888   6.378  0.1654  0.2088 -0.1749
 6066SOL    HW118776   7.157   2.841   6.460 -0.0024 -1.6087 -1.1188
 6066SOL    HW218777   7.178   2.834   6.310 -1.6492  0.4181 -1.4819
 6067SOL     OW18778   2.026   5.802   1.372  0.0706 -0.4160  0.2903
 6067SOL    HW118779   2.041   5.897   1.368  0.0101 -0.4269 -0.3396
 6067SOL    HW218780   2.043   5.779   1.463 -0.1086  0.2321  0.4926
 6068SOL     OW18781   8.599   6.461   0.740 -0.3535  0.2891 -0.0189
 6068SOL    HW118782   8.566   6.549   0.762 -0.4511  0.5950 -1.3318
 6068SOL    HW218783   8.524   6.404   0.755 -0.0174  0.2554  1.7888
 6069SOL     OW18784   8.338   8.852   9.106 -0.1468  0.7018 -0.5819
 6069SOL    HW118785   8.319   8.942   9.134  1.1736  0.4768  1.2142
 6069SOL    HW218786   8.251   8.813   9.093 -0.9157  1.2419  2.1319
 6070SOL     OW18787   1.452   2.695   2.460  0.1825  0.6931 -0.1339
 6070SOL    HW118788   1.422   2.629   2.522  0.7664  0.3198 -0.2354
 6070SOL    HW218789   1.408   2.775   2.487 -0.6604  0.2308 -0.1113
 6071SOL     OW18790   6.319   2.789   1.537 -1.0697 -0.1613  0.5170
 6071SOL    HW118791   6.337   2.876   1.572 -1.1198  0.1494 -0.2157
 6071SOL    HW218792   6.388   2.733   1.573  0.0745  0.5624 -0.4818
 6072SOL     OW18793   1.102   9.691   8.030 -0.3772  0.0312 -0.1826
 6072SOL    HW118794   1.181   9.745   8.024 -1.2338  1.8888  3.0185
 6072SOL    HW218795   1.036   9.741   7.982 -0.6497  0.8334  0.9842
 6073SOL     OW18796   4.451   2.252   1.793  0.3990  0.1390 -0.3093
 6073SOL    HW118797   4.425   2.178   1.739  0.8158  0.8001 -1.4363
 6073SOL    HW218798   4.369   2.287   1.827  0.1743 -0.5930 -0.0651
 6074SOL     OW18799   3.623   7.017   8.689 -0.0216  0.6562 -0.3672
 6074SOL    HW118800   3.646   6.924   8.692 -0.3323  0.5860 -0.2288
 6074SOL    HW218801   3.704   7.060   8.659  0.0647  0.3224 -0.6174
 6075SOL     OW18802   4.093   6.852   3.133 -0.2350 -0.0122 -0.2706
 6075SOL    HW118803   4.140   6.848   3.049 -1.1972 -0.6473 -0.8090
 6075SOL    HW218804   4.161   6.870   3.198  0.8243 -1.3072 -0.9586
 6076SOL     OW18805   5.607  10.004   4.321 -0.3007 -0.4302 -0.2551
 6076SOL    HW118806   5.564   9.933   4.274  0.4122 -1.1864  0.2079
 6076SOL    HW218807   5.629   9.967   4.407  1.2858 -0.0861 -0.4835
 6077SOL     OW18808   4.124   6.074   5.935 -0.2657 -0.2295  0.4483
 6077SOL    HW118809   4.160   6.098   6.020  0.8831 -0.6582  0.1035
 6077SOL    HW218810   4.030   6.067   5.949 -0.1812  0.5540  1.4751
 6078SOL     OW18811   1.554   1.627   9.553  0.1262  0.3009 -0.5480
 6078SOL    HW118812   1.629   1.685   9.541  0.6944 -0.1478  0.6649
 6078SOL    HW218813   1.495   1.649   9.481  1.5827  0.3670 -1.7750
 6079SOL     OW18814   7.801   1.143   7.092  0.4908 -0.4492  0.3866
 6079SOL    HW118815   7.856   1.067   7.073 -1.0354 -1.1798 -1.3931
 6079SOL    HW218816   7.765   1.169   7.008 -0.6939  0.9440  1.2702
 6080SOL     OW18817   3.571   2.257   6.269 -0.2201  0.2128  0.0348
 6080SOL    HW118818   3.663   2.267   6.292 -0.0803 -1.0325  0.0553
 6080SOL    HW218819   3.558   2.316   6.195  0.2291  1.4915  0.9425
 6081SOL     OW18820   5.698   0.045   9.351 -0.6727 -0.8362  0.1685
 6081SOL    HW118821   5.665   0.132   9.334 -2.6342 -1.6400 -0.3452
 6081SOL    HW218822   5.742   0.019   9.270  0.2015 -0.2428  0.4319
 6082SOL     OW18823   3.861   5.038   1.548  0.6604 -0.7658  0.1884
 6082SOL    HW118824   3.778   5.032   1.595 -0.1278 -0.4337 -1.1162
 6082SOL    HW218825   3.836   5.035   1.455  2.2139 -2.0745 -0.2250
 6083SOL     OW18826   0.726   0.975   0.481  0.3849 -0.5611 -0.7306
 6083SOL    HW118827   0.639   0.959   0.444 -0.4054  0.1675  0.7255
 6083SOL    HW218828   0.750   0.892   0.522 -0.2126 -0.3920 -0.0164
 6084SOL     OW18829   9.743   2.441   2.382  0.2904 -0.2009 -0.8322
 6084SOL    HW118830   9.798   2.518   2.368  0.3244 -0.0534  0.0470
 6084SOL    HW218831   9.796   2.367   2.351  0.5548  0.0520 -0.9852
 6085SOL     OW18832   3.863   6.938   3.275 -0.1531 -0.2781 -0.2412
 6085SOL    HW118833   3.875   7.031   3.296  1.0903 -0.4827  0.0029
 6085SOL    HW218834   3.942   6.914   3.227 -0.0301 -1.4420  0.5217
 6086SOL     OW18835   1.609   0.760   6.828  0.0683  0.0902  1.0168
 6086SOL    HW118836   1.579   0.841   6.870  0.7319  0.2051  1.2883
 6086SOL    HW218837   1.670   0.789   6.761 -1.5781 -0.0444 -0.6249
 6087SOL     OW18838   2.798   0.855   2.309 -0.2970  0.3045  0.3837
 6087SOL    HW118839   2.793   0.914   2.384  1.8948 -2.8011  3.2751
 6087SOL    HW218840   2.716   0.807   2.310 -0.2253  0.1911  0.8798
 6088SOL     OW18841   7.698   6.899   8.664  0.1492 -0.0057 -0.3825
 6088SOL    HW118842   7.744   6.852   8.595  1.0914 -0.3076  0.4328
 6088SOL    HW218843   7.618   6.848   8.679 -0.6717  0.6854 -2.0131
 6089SOL     OW18844   8.136   2.136   3.593  0.4965 -0.0560  0.0497
 6089SOL    HW118845   8.052   2.161   3.631  0.1823 -0.0031 -0.6489
 6089SOL    HW218846   8.172   2.070   3.653  0.1159  0.1702  0.5283
 6090SOL     OW18847   0.874   0.663   6.556  0.2312  0.2569  0.0760
 6090SOL    HW118848   0.900   0.748   6.591  2.7847 -0.1979 -0.5713
 6090SOL    HW218849   0.935   0.646   6.485 -0.3824 -2.0161  0.0116
 6091SOL     OW18850   8.336   5.898   4.897  0.3028 -0.5249  0.1024
 6091SOL    HW118851   8.429   5.909   4.915  0.0071 -0.5434  1.8256
 6091SOL    HW218852   8.317   5.808   4.923 -0.4674 -0.0818  1.1247
 6092SOL     OW18853   5.708   2.466   5.181 -0.6588 -0.6506 -0.9023
 6092SOL    HW118854   5.621   2.478   5.217 -0.9417 -0.3930 -1.6622
 6092SOL    HW218855   5.759   2.429   5.253 -0.4002  2.6397  0.7838
 6093SOL     OW18856   6.172   7.485   0.657 -0.1574 -0.1914 -0.0288
 6093SOL    HW118857   6.128   7.458   0.576 -1.0507 -1.2604  0.7963
 6093SOL    HW218858   6.102   7.521   0.711  0.4305  0.4695  0.3096
 6094SOL     OW18859   0.625   1.856   3.113 -0.3428 -0.1534 -0.4080
 6094SOL    HW118860   0.588   1.944   3.115 -0.7998 -0.3446  1.3944
 6094SOL    HW218861   0.720   1.870   3.116 -0.3537  0.2865 -1.7644
 6095SOL     OW18862   8.114   6.052   5.276 -0.4487  0.4283 -0.2038
 6095SOL    HW118863   8.117   6.128   5.334 -1.4310 -0.4193  0.9800
 6095SOL    HW218864   8.177   5.990   5.313 -1.3831 -0.2853  0.2217
 6096SOL     OW18865   9.773   8.827   9.545 -0.0389 -0.5579 -0.5842
 6096SOL    HW118866   9.773   8.734   9.566  1.6535 -0.3405  0.5833
 6096SOL    HW218867   9.766   8.871   9.629 -1.5949  0.3997 -1.1746
 6097SOL     OW18868   0.095   6.338   9.772 -0.5012 -0.1848  0.2037
 6097SOL    HW118869   0.044   6.359   9.851 -0.6140  0.6367 -0.0725
 6097SOL    HW218870   0.141   6.257   9.794  1.0178  1.0298  1.8635
 6098SOL     OW18871   8.284   9.916   7.873  0.0522 -0.4690 -1.0368
 6098SOL    HW118872   8.273  10.002   7.914  1.1144 -0.8884  0.2150
 6098SOL    HW218873   8.342   9.931   7.799  1.1088 -0.2442 -0.1885
 6099SOL     OW18874   4.017   3.697   9.310 -0.0137 -0.4226 -0.0767
 6099SOL    HW118875   3.927   3.722   9.287  0.7253  1.2163 -1.4183
 6099SOL    HW218876   4.028   3.610   9.273 -1.0452 -0.6716  0.1520
 6100SOL     OW18877   0.224   1.016   9.427 -0.3395  0.0097  0.5200
 6100SOL    HW118878   0.289   0.974   9.483  0.6351  0.3583 -0.3190
 6100SOL    HW218879   0.154   0.951   9.418  0.3651 -0.7809  0.6151
 6101SOL     OW18880   3.995   4.304   3.091 -0.1836  0.3075 -0.1813
 6101SOL    HW118881   4.052   4.239   3.049  1.0650  0.6562  0.8923
 6101SOL    HW218882   3.921   4.253   3.123  0.6401 -0.5797  0.3942
 6102SOL     OW18883   5.924   9.490   0.753 -0.0943  0.0690 -0.1810
 6102SOL    HW118884   5.955   9.412   0.707  1.0325  1.1126 -1.2583
 6102SOL    HW218885   5.900   9.552   0.684  0.1136  1.0959  0.6306
 6103SOL     OW18886   0.380   1.898   4.845  0.1456  0.4440 -0.6077
 6103SOL    HW118887   0.306   1.865   4.794 -0.3294  1.4470 -0.5908
 6103SOL    HW218888   0.442   1.825   4.847 -0.4619 -0.1132 -1.3625
 6104SOL     OW18889   7.532   4.220   8.470 -0.0159  0.0284 -0.3720
 6104SOL    HW118890   7.555   4.198   8.561 -0.4903 -1.4245 -0.5874
 6104SOL    HW218891   7.505   4.312   8.474  1.4853  0.4704  0.6740
 6105SOL     OW18892   5.302   6.105   0.343  0.3845 -0.7337  0.4687
 6105SOL    HW118893   5.276   6.013   0.333  0.1701 -0.5283 -1.1617
 6105SOL    HW218894   5.346   6.108   0.428 -0.6444 -2.0942  1.1018
 6106SOL     OW18895   2.725   3.524   5.408 -0.2852 -0.2090 -0.2679
 6106SOL    HW118896   2.651   3.557   5.459 -0.9521 -1.7867 -0.1715
 6106SOL    HW218897   2.700   3.539   5.317 -1.1155 -1.5051 -0.2637
 6107SOL     OW18898   4.325   7.815   0.057  0.2197 -0.4341 -0.2549
 6107SOL    HW118899   4.308   7.887   0.118  0.7329  0.7159 -1.4233
 6107SOL    HW218900   4.419   7.817   0.044  0.0059  0.0242 -1.8722
 6108SOL     OW18901   0.017   8.947   5.415  0.5941 -0.3458 -0.2069
 6108SOL    HW118902   0.084   8.879   5.419  0.2817 -0.5985  1.3068
 6108SOL    HW218903  -0.023   8.936   5.329  0.0872 -2.5579  0.2423
 6109SOL     OW18904   3.020   1.587   4.974  0.4325 -0.1931  0.4403
 6109SOL    HW118905   2.941   1.536   4.993  0.6802 -0.5578  0.4950
 6109SOL    HW218906   2.987   1.668   4.934  0.0350 -0.3690  0.4061
 6110SOL     OW18907   2.502   8.463   1.250  0.7754 -0.8429 -0.3644
 6110SOL    HW118908   2.471   8.441   1.338  0.6759 -0.6983 -0.3626
 6110SOL    HW218909   2.426   8.502   1.207  1.0922 -0.0188 -0.1946
 6111SOL     OW18910   3.602   6.736   1.693 -0.0109 -0.5687 -0.2505
 6111SOL    HW118911   3.697   6.752   1.692  0.2967 -2.0942 -2.0867
 6111SOL    HW218912   3.592   6.649   1.732 -0.5182 -0.9176 -1.1211
 6112SOL     OW18913   6.172   7.918   9.067  0.5020  0.1180  0.3499
 6112SOL    HW118914   6.203   7.973   9.139  0.4851 -0.1024  0.5277
 6112SOL    HW218915   6.077   7.929   9.068  0.4757 -0.1113  0.5498
 6113SOL     OW18916   5.149   5.102   9.421 -0.3040 -0.4389 -0.2394
 6113SOL    HW118917   5.125   5.067   9.335  0.0068  1.2692 -1.0846
 6113SOL    HW218918   5.075   5.157   9.446  0.8038  1.4608 -0.8720
 6114SOL     OW18919   9.476   8.842   6.959  0.7655  0.5128 -0.0749
 6114SOL    HW118920   9.436   8.926   6.979  2.0171  1.2309 -0.4782
 6114SOL    HW218921   9.510   8.811   7.043  0.4251  0.4685  0.0487
 6115SOL     OW18922   6.677   3.325   3.933 -0.4955 -0.1170  0.2549
 6115SOL    HW118923   6.643   3.289   3.851  2.7179 -0.9356 -0.8329
 6115SOL    HW218924   6.735   3.396   3.906  1.5720 -1.1692  1.6662
 6116SOL     OW18925   8.341   1.137   6.715 -0.0269  0.7144  0.7795
 6116SOL    HW118926   8.286   1.075   6.762 -0.0612  0.6882  0.7044
 6116SOL    HW218927   8.287   1.216   6.708 -0.0181  0.7220  0.7938
 6117SOL     OW18928   4.382   4.014   9.849 -0.7626  0.8391  0.5182
 6117SOL    HW118929   4.439   3.943   9.879 -0.3901  0.3703 -1.1665
 6117SOL    HW218930   4.430   4.094   9.870  0.2501  0.4674 -0.2717
 6118SOL     OW18931   1.888   4.019   2.341 -0.3553 -0.2152  0.0602
 6118SOL    HW118932   1.854   4.061   2.420 -1.5401 -1.2440  0.1394
 6118SOL    HW218933   1.953   4.080   2.307  0.3279  0.1697  1.9226
 6119SOL     OW18934   4.455   9.895   4.594 -0.0626 -0.6447 -0.1525
 6119SOL    HW118935   4.455   9.841   4.514 -1.7433 -2.1605  0.8003
 6119SOL    HW218936   4.496   9.839   4.660  1.6091  0.7168  0.0549
 6120SOL     OW18937   6.146   5.857   5.563  0.9004  0.6479 -0.2662
 6120SOL    HW118938   6.124   5.896   5.648  0.7548  2.6953 -1.2141
 6120SOL    HW218939   6.177   5.930   5.510 -0.8005 -0.2309 -2.6075
 6121SOL     OW18940   7.119   9.223   7.719  0.5269 -0.5716  0.1225
 6121SOL    HW118941   7.154   9.271   7.644  0.6951  0.0272  0.5775
 6121SOL    HW218942   7.153   9.134   7.708 -0.7279 -0.9269 -1.3597
 6122SOL     OW18943   5.287   5.142   3.583 -0.1888  0.1883  0.2855
 6122SOL    HW118944   5.254   5.053   3.588 -0.5719  0.2399 -1.0020
 6122SOL    HW218945   5.224   5.194   3.633  0.4664 -0.3526  1.7123
 6123SOL     OW18946   6.982   4.132   7.522 -0.1367 -0.3010  0.1974
 6123SOL    HW118947   6.970   4.047   7.564  1.0505 -1.3294 -1.4254
 6123SOL    HW218948   6.964   4.116   7.430  1.1848  0.9257 -0.3103
 6124SOL     OW18949   4.222   3.071   0.563 -0.1717 -0.1998  0.5120
 6124SOL    HW118950   4.195   3.135   0.497  2.1293 -1.2484 -1.6179
 6124SOL    HW218951   4.153   3.005   0.563 -1.5066  1.1361  1.1854
 6125SOL     OW18952   6.856   3.004   6.370 -0.2493 -0.1797  0.0655
 6125SOL    HW118953   6.805   3.003   6.289  0.1032  2.0926 -0.2649
 6125SOL    HW218954   6.938   2.960   6.347  0.1197  1.0118 -1.0741
 6126SOL     OW18955   5.867   5.581   5.878 -0.2181 -0.2062 -0.1713
 6126SOL    HW118956   5.874   5.526   5.957 -0.5232 -0.6910 -0.4814
 6126SOL    HW218957   5.774   5.583   5.859 -0.3059  1.0862  0.2985
 6127SOL     OW18958   0.588   1.253   1.580 -0.1875 -0.0036  0.0728
 6127SOL    HW118959   0.672   1.233   1.619  0.1215 -1.3805 -1.2020
 6127SOL    HW218960   0.523   1.213   1.638 -0.1084  2.0779  1.7098
 6128SOL     OW18961   5.913   0.521   2.568 -0.1700 -0.3799 -0.8832
 6128SOL    HW118962   5.999   0.508   2.530  0.5022 -3.0016  1.1898
 6128SOL    HW218963   5.866   0.439   2.550 -1.4643  0.1833 -0.2007
 6129SOL     OW18964   4.271   9.470   9.207  0.1584 -0.0816 -0.1239
 6129SOL    HW118965   4.321   9.551   9.195 -0.0169  0.0851  0.2721
 6129SOL    HW218966   4.271   9.454   9.301 -2.9304  1.4665  0.2685
 6130SOL     OW18967   6.237   6.076   6.538  0.1899 -0.2696 -0.4297
 6130SOL    HW118968   6.165   6.017   6.513  0.8996 -1.3117 -0.0913
 6130SOL    HW218969   6.227   6.086   6.633  0.8804 -0.9623 -0.2788
 6131SOL     OW18970   2.045   9.101   3.527 -0.8630  0.1339 -0.1285
 6131SOL    HW118971   2.090   9.044   3.465  1.0058  2.0325 -0.6062
 6131SOL    HW218972   2.072   9.069   3.613  1.1316  0.9559 -0.4011
 6132SOL     OW18973   2.354   7.926   2.775  0.3251  0.8966  0.1616
 6132SOL    HW118974   2.429   7.980   2.801  0.5763  1.3504 -1.4080
 6132SOL    HW218975   2.390   7.838   2.764  0.2020  0.6798  1.3398
 6133SOL     OW18976   5.066   0.967   4.937 -0.0804 -0.2581 -0.4484
 6133SOL    HW118977   5.026   0.899   4.883 -1.4665  0.5489 -0.4838
 6133SOL    HW218978   5.039   1.049   4.897 -1.1311  0.3739  1.3959
 6134SOL     OW18979   8.852   1.076   9.047 -0.2803  0.6042 -0.2668
 6134SOL    HW118980   8.814   1.114   8.968 -1.2518  0.4004  0.0886
 6134SOL    HW218981   8.923   1.021   9.015  1.5117  3.0428 -0.7760
 6135SOL     OW18982   1.827   8.325   2.200  0.5813 -0.0480 -0.7714
 6135SOL    HW118983   1.869   8.243   2.224  2.6948  0.5521 -2.1336
 6135SOL    HW218984   1.776   8.350   2.277  1.7227 -1.4826  0.4985
 6136SOL     OW18985   3.073   1.056   0.028  0.0681  0.0556 -0.0980
 6136SOL    HW118986   3.072   0.980   0.086  0.4421  0.5505  0.5688
 6136SOL    HW218987   3.145   1.038  -0.032 -1.0043 -0.9660 -1.1288
 6137SOL     OW18988   7.026   2.106   1.834 -0.1353  0.6486  0.1221
 6137SOL    HW118989   7.114   2.132   1.863 -0.4802  0.5018  1.3511
 6137SOL    HW218990   6.984   2.071   1.913 -1.8806  2.2431 -0.0507
 6138SOL     OW18991   3.624   5.339   7.535  0.5351  0.2749  0.5066
 6138SOL    HW118992   3.689   5.409   7.540  0.0629  0.7727 -0.2080
 6138SOL    HW218993   3.576   5.346   7.618 -0.2845  1.5765 -0.0454
 6139SOL     OW18994   7.770   5.192   6.567 -0.4123 -0.4618 -0.2829
 6139SOL    HW118995   7.846   5.139   6.590  0.5122  0.2348 -1.6060
 6139SOL    HW218996   7.756   5.175   6.474 -0.7740  0.7689 -0.4730
 6140SOL     OW18997   9.169   0.281   5.809  0.5446 -0.4625 -0.5037
 6140SOL    HW118998   9.143   0.204   5.860 -1.5221  1.1762  1.0934
 6140SOL    HW218999   9.107   0.284   5.736 -1.9158  1.5547  1.4444
 6141SOL     OW19000   5.205   9.721   1.780 -0.4513 -0.0070  0.5124
 6141SOL    HW119001   5.212   9.661   1.854 -1.2782 -0.6719  0.0750
 6141SOL    HW219002   5.113   9.718   1.755 -0.0220 -0.6177 -1.1905
 6142SOL     OW19003   6.205   1.381   5.643 -0.3751 -0.2339  0.4218
 6142SOL    HW119004   6.279   1.349   5.695  0.7103 -0.9375 -1.4411
 6142SOL    HW219005   6.137   1.401   5.707 -0.1174 -3.6320  1.9575
 6143SOL     OW19006   1.795   9.951   5.734  0.0038 -0.3074  0.2354
 6143SOL    HW119007   1.708   9.912   5.745  0.3286 -0.8574  0.9122
 6143SOL    HW219008   1.778  10.036   5.693 -0.9305 -0.0450  1.1367
 6144SOL     OW19009   0.201   6.534   5.502 -0.3134 -0.4201  0.0771
 6144SOL    HW119010   0.187   6.447   5.539  1.6788 -0.7373  0.1825
 6144SOL    HW219011   0.169   6.526   5.412 -0.1358 -1.2644  0.0751
 6145SOL     OW19012   8.193   5.178   2.650  0.0954 -0.0174 -0.2168
 6145SOL    HW119013   8.222   5.253   2.701 -0.9582  3.0531 -3.7023
 6145SOL    HW219014   8.272   5.143   2.609  0.3642  0.5057 -0.1416
 6146SOL     OW19015   7.440   5.868   7.875  0.0964  0.1254 -0.1386
 6146SOL    HW119016   7.483   5.803   7.820  1.3303  1.2138 -0.5154
 6146SOL    HW219017   7.379   5.913   7.816  0.5459  0.4881 -0.3351
 6147SOL     OW19018   1.291   1.032   2.231  0.6002 -0.0740 -0.1500
 6147SOL    HW119019   1.218   0.977   2.204 -1.3010  1.7299  1.0257
 6147SOL    HW219020   1.347   1.038   2.153  0.0026 -2.2112 -0.8034
 6148SOL     OW19021  -0.027   7.880   8.358 -0.2086 -0.2013 -0.1067
 6148SOL    HW119022   0.037   7.840   8.417 -0.8250 -0.5845  0.3146
 6148SOL    HW219023   0.011   7.965   8.335  0.3197 -0.3104  0.3531
 6149SOL     OW19024   8.816   6.371   5.347 -0.7843 -0.3251  0.2200
 6149SOL    HW119025   8.810   6.391   5.253 -0.0915 -0.5372  0.1240
 6149SOL    HW219026   8.890   6.424   5.378 -0.1119 -1.3078  0.3480
 6150SOL     OW19027   5.106   0.034   1.917  0.3718  0.0810  0.1640
 6150SOL    HW119028   5.014   0.033   1.892  0.0130  0.1047  1.3935
 6150SOL    HW219029   5.148   0.090   1.852 -0.3222 -0.5554 -0.8738
 6151SOL     OW19030   1.988   3.497   5.906  0.3159 -0.7068 -0.1868
 6151SOL    HW119031   2.049   3.497   5.832  0.0134 -0.9010 -0.4419
 6151SOL    HW219032   1.973   3.590   5.925 -0.6601 -0.6166 -1.2680
 6152SOL     OW19033   5.427   4.863   5.853 -0.2113  0.3787  0.7620
 6152SOL    HW119034   5.504   4.818   5.818 -0.3977  2.2793 -2.4799
 6152SOL    HW219035   5.360   4.795   5.858 -0.0673 -0.1644 -2.5501
 6153SOL     OW19036   4.492   0.448   4.249  0.1408  0.2261  0.1054
 6153SOL    HW119037   4.504   0.409   4.162  0.6314  0.4251  0.0822
 6153SOL    HW219038   4.559   0.406   4.303  0.0962  0.3968  0.2924
 6154SOL     OW19039   2.206   2.930   7.319  0.1821  0.2090 -0.1977
 6154SOL    HW119040   2.281   2.873   7.299  0.4211 -0.4131  2.1733
 6154SOL    HW219041   2.243   3.018   7.321  0.4346  0.1268 -0.9245
 6155SOL     OW19042   3.977   0.515   9.364  0.5724  0.1738  0.1183
 6155SOL    HW119043   4.044   0.494   9.429  1.3346 -0.1192 -0.7552
 6155SOL    HW219044   4.022   0.513   9.280 -0.4319  0.4166 -0.4507
 6156SOL     OW19045   9.941   9.930   7.458 -0.2006 -0.0703  0.0233
 6156SOL    HW119046   9.901   9.965   7.538 -1.3200 -0.8654 -0.1739
 6156SOL    HW219047   9.876   9.946   7.390  0.1222 -0.7321 -0.4434
 6157SOL     OW19048   4.037   1.519   8.046 -0.0350 -0.6091  0.3945
 6157SOL    HW119049   3.950   1.513   8.084 -0.2947 -2.5635 -0.3883
 6157SOL    HW219050   4.077   1.433   8.063  1.0326 -0.3922 -0.8641
 6158SOL     OW19051   7.597   2.990   1.755  0.0724 -0.4213  0.3479
 6158SOL    HW119052   7.608   3.026   1.667 -1.5458  0.0045  0.3021
 6158SOL    HW219053   7.586   2.896   1.741 -0.9077 -0.2663  0.0235
 6159SOL     OW19054   6.921   6.136   0.041  0.2586  0.4249  0.6350
 6159SOL    HW119055   6.839   6.112   0.084 -0.4810  3.1273  0.9393
 6159SOL    HW219056   6.907   6.115  -0.051 -0.1727 -0.5671  0.9192
 6160SOL     OW19057   1.821   3.494   1.674 -0.0600  0.1813 -0.9203
 6160SOL    HW119058   1.817   3.578   1.627 -1.0696  0.4429 -0.4004
 6160SOL    HW219059   1.908   3.493   1.714 -0.8696  2.1444  1.1221
 6161SOL     OW19060   0.999   8.513   6.635 -0.3796 -0.6027 -0.1206
 6161SOL    HW119061   0.959   8.513   6.548 -0.8365  0.3944  0.0758
 6161SOL    HW219062   0.959   8.439   6.680 -2.2809  0.5344  0.1666
 6162SOL     OW19063   1.620   3.872   9.223  0.9011  0.0877 -0.7518
 6162SOL    HW119064   1.543   3.821   9.248  0.1269  1.5490 -0.0395
 6162SOL    HW219065   1.690   3.838   9.278  0.1806  0.3938  0.3878
 6163SOL     OW19066   3.932   5.109   7.205  0.2194 -0.2376  0.0095
 6163SOL    HW119067   3.846   5.101   7.247 -0.0716 -0.0336 -0.5447
 6163SOL    HW219068   3.959   5.199   7.226  0.5082 -0.4524  0.5757
 6164SOL     OW19069   0.506   0.831   0.894  0.4266  0.6736 -0.3960
 6164SOL    HW119070   0.467   0.867   0.974 -0.3433  1.3543 -1.0548
 6164SOL    HW219071   0.548   0.906   0.852  1.7954  0.1044 -0.0976
 6165SOL     OW19072   5.482   5.285   5.320 -0.1439 -0.6038 -0.0370
 6165SOL    HW119073   5.483   5.250   5.231  1.1373 -0.5436 -0.0687
 6165SOL    HW219074   5.557   5.344   5.323 -0.9000  0.3541  0.7176
 6166SOL     OW19075   6.722   2.424   3.340  0.2378 -0.3947  0.3017
 6166SOL    HW119076   6.795   2.484   3.356  1.5121 -2.1021  1.0707
 6166SOL    HW219077   6.714   2.423   3.244 -0.5319  1.7615  0.2688
 6167SOL     OW19078   0.692   3.195   7.199  0.3055 -0.0471 -0.5863
 6167SOL    HW119079   0.710   3.106   7.227 -0.6588 -0.2049 -0.4051
 6167SOL    HW219080   0.743   3.251   7.257 -0.5116 -0.4287  0.5287
 6168SOL     OW19081   3.139   4.993   5.603 -0.6353 -0.4368  0.7745
 6168SOL    HW119082   3.170   5.050   5.533 -0.7610 -0.2905  0.8386
 6168SOL    HW219083   3.107   4.915   5.558  0.9706 -1.1406  0.7662
 6169SOL     OW19084   1.674   5.626   3.896  0.1846 -0.0885  0.5610
 6169SOL    HW119085   1.699   5.715   3.921  0.8978  0.3038 -1.4203
 6169SOL    HW219086   1.756   5.581   3.880 -0.2144 -0.7290  0.2825
 6170SOL     OW19087   3.897   4.092   0.099 -0.4044 -0.2149 -0.2653
 6170SOL    HW119088   3.964   4.119   0.161 -1.9218  0.7670  1.0097
 6170SOL    HW219089   3.864   4.009   0.133  0.1306 -0.7066 -0.9017
 6171SOL     OW19090  -0.000   5.262   8.284 -0.4011 -0.1113  0.0182
 6171SOL    HW119091   0.094   5.251   8.298 -0.3799  0.5158  0.4028
 6171SOL    HW219092  -0.023   5.339   8.335 -0.9005  0.4447 -1.0179
 6172SOL     OW19093   5.657   4.082   2.104  0.5036  0.6822  0.1108
 6172SOL    HW119094   5.693   4.133   2.032  3.0610 -0.3619  0.5439
 6172SOL    HW219095   5.599   4.018   2.062  2.0895 -0.0323 -1.1021
 6173SOL     OW19096   5.104   2.664   4.287  0.0012  0.0667  0.1752
 6173SOL    HW119097   5.025   2.639   4.335 -1.5272  1.8502 -1.2486
 6173SOL    HW219098   5.127   2.749   4.322  0.5112  0.1410 -0.3246
 6174SOL     OW19099   9.082   9.158   0.407 -0.5054 -0.2689  0.1894
 6174SOL    HW119100   9.092   9.223   0.337  0.6721 -0.7253 -0.0858
 6174SOL    HW219101   9.040   9.083   0.364 -1.5821  0.1629  0.4391
 6175SOL     OW19102   9.850   3.708   7.948  0.1310 -0.1186 -0.2391
 6175SOL    HW119103   9.934   3.741   7.917 -0.1620  1.2709  0.3592
 6175SOL    HW219104   9.870   3.672   8.035 -0.2548  2.4997  1.0461
 6176SOL     OW19105   0.281   5.472   7.141 -0.3838  0.3254  0.2146
 6176SOL    HW119106   0.193   5.444   7.114  0.0768 -0.8797 -0.0961
 6176SOL    HW219107   0.317   5.396   7.185  1.6484 -0.3682 -2.3782
 6177SOL     OW19108   7.149   9.771   1.815  0.5636  0.4057 -0.3688
 6177SOL    HW119109   7.232   9.806   1.849  1.3331  0.3745 -2.1077
 6177SOL    HW219110   7.168   9.679   1.797 -0.4809 -0.1261  1.1034
 6178SOL     OW19111   3.642   9.797   2.857  0.8760  0.0001 -0.2360
 6178SOL    HW119112   3.556   9.839   2.855 -0.0344 -1.7840 -1.3588
 6178SOL    HW219113   3.653   9.770   2.948  0.7403  1.1311  0.1379
 6179SOL     OW19114   5.695   3.222   2.044  0.2995 -0.3943  0.0590
 6179SOL    HW119115   5.606   3.212   2.078 -0.1525  1.9484 -0.2724
 6179SOL    HW219116   5.746   3.157   2.092 -1.1675 -0.2803  1.9018
 6180SOL     OW19117   6.580   9.442   2.227 -0.2573 -0.1741  0.0469
 6180SOL    HW119118   6.559   9.451   2.134 -0.2681  0.1331  0.0800
 6180SOL    HW219119   6.524   9.505   2.271 -1.0501 -1.0727  0.3747
 6181SOL     OW19120   1.879   1.295   8.506  0.6294  0.5293  0.5930
 6181SOL    HW119121   1.853   1.211   8.545 -0.2206  0.4119 -0.1887
 6181SOL    HW219122   1.799   1.327   8.465  1.7462  0.0626 -2.0978
 6182SOL     OW19123   4.629   4.348   6.618 -0.1061 -0.2235 -0.2790
 6182SOL    HW119124   4.632   4.322   6.526 -0.9057  0.7007 -0.5909
 6182SOL    HW219125   4.538   4.378   6.631  0.5764  1.7917  0.1951
 6183SOL     OW19126   2.563   8.076   5.422  0.1462 -0.3569  0.8916
 6183SOL    HW119127   2.634   8.068   5.486  0.1864 -0.1616  0.8696
 6183SOL    HW219128   2.548   7.986   5.393 -0.7982 -0.6443  2.1751
 6184SOL     OW19129   1.342   7.160   9.158  0.3189  1.0874 -0.6711
 6184SOL    HW119130   1.253   7.138   9.130 -0.3046  0.6885  1.4466
 6184SOL    HW219131   1.356   7.248   9.125 -1.2434  1.5256 -0.2775
 6185SOL     OW19132   1.439   5.630   2.298  0.1351 -0.2784  0.4685
 6185SOL    HW119133   1.412   5.658   2.385  1.3598 -1.0067  1.1131
 6185SOL    HW219134   1.424   5.706   2.242  3.3990  1.8096  2.1308
 6186SOL     OW19135   2.594   1.852   7.675  0.2709  0.0862  0.1272
 6186SOL    HW119136   2.659   1.875   7.742  2.0627 -2.2803 -0.6612
 6186SOL    HW219137   2.543   1.782   7.715 -0.2980  0.3687 -0.1000
 6187SOL     OW19138   1.354   2.466   0.420  0.1001  0.1766 -0.1278
 6187SOL    HW119139   1.426   2.499   0.367  0.8232  0.5510  1.0389
 6187SOL    HW219140   1.292   2.430   0.357  1.6055 -0.7629 -1.1504
 6188SOL     OW19141   6.122   0.026   7.687  0.2125  0.3025  0.0021
 6188SOL    HW119142   6.145   0.026   7.594  0.6316 -0.1400  0.1038
 6188SOL    HW219143   6.027   0.035   7.688  0.1834  0.0741 -0.4750
 6189SOL     OW19144   7.715   7.141   0.972  0.3842  0.4263  0.1222
 6189SOL    HW119145   7.654   7.083   1.017  0.9927 -0.2646  0.0847
 6189SOL    HW219146   7.662   7.215   0.944 -0.4888 -0.2949 -0.1788
 6190SOL     OW19147   3.165   1.635   3.687  0.0876  0.2641  0.0255
 6190SOL    HW119148   3.069   1.629   3.691  0.1172 -0.1866  0.1338
 6190SOL    HW219149   3.184   1.727   3.705 -0.3604  0.4899 -0.6382
 6191SOL     OW19150   5.006   6.615   3.407 -1.0338 -0.1604  0.1446
 6191SOL    HW119151   4.979   6.530   3.442  0.3636 -0.8718 -0.4365
 6191SOL    HW219152   5.101   6.612   3.406 -0.9449  1.4771  0.2269
 6192SOL     OW19153   0.945   8.063   0.802  0.5031 -0.0224 -0.2860
 6192SOL    HW119154   1.022   8.109   0.767  0.5021 -0.8354 -1.4137
 6192SOL    HW219155   0.873   8.124   0.787  0.8580  0.6175  0.4988
 6193SOL     OW19156   4.528   2.917   4.639 -0.0042 -0.8463 -0.2142
 6193SOL    HW119157   4.611   2.933   4.594 -1.0551  1.8780 -1.3955
 6193SOL    HW219158   4.553   2.907   4.731  1.5679  2.1408 -0.1800
 6194SOL     OW19159   9.673   5.262   9.276 -0.1286  0.6371  0.1356
 6194SOL    HW119160   9.598   5.253   9.335  0.3846 -0.4931  0.6292
 6194SOL    HW219161   9.698   5.354   9.285 -1.3485  1.0012  0.0788
 6195SOL     OW19162   0.474   0.646   8.762  0.0615 -0.2880 -0.1619
 6195SOL    HW119163   0.484   0.564   8.810  0.3776 -0.4604 -0.5181
 6195SOL    HW219164   0.391   0.682   8.792  1.0106  0.4391  1.7711
 6196SOL     OW19165   1.449   9.408   0.562  0.0779 -0.4026  0.2501
 6196SOL    HW119166   1.379   9.395   0.498  0.5020  1.8821 -0.7775
 6196SOL    HW219167   1.402   9.424   0.644 -0.6776  1.3470 -0.4727
 6197SOL     OW19168   3.924   6.922   4.928 -1.4526 -0.3292  0.0962
 6197SOL    HW119169   4.004   6.898   4.974 -0.0240  2.0871 -0.8925
 6197SOL    HW219170   3.854   6.876   4.974  0.2448 -0.6550  2.5179
 6198SOL     OW19171   5.110   9.255   9.871  0.0325 -0.1475  0.0521
 6198SOL    HW119172   5.113   9.160   9.880 -2.2816 -0.1157  2.0752
 6198SOL    HW219173   5.117   9.270   9.776  2.2027 -2.1548 -0.1860
 6199SOL     OW19174   9.423   3.519   2.382 -0.5086 -0.2469 -0.3878
 6199SOL    HW119175   9.379   3.452   2.433  0.2018 -0.8870 -0.5889
 6199SOL    HW219176   9.514   3.489   2.377 -0.0801  0.9655 -0.0924
 6200SOL     OW19177   1.408   7.793   8.391  0.2862  0.1798 -0.2037
 6200SOL    HW119178   1.340   7.846   8.432 -0.4344 -1.0986  0.3111
 6200SOL    HW219179   1.403   7.709   8.436  2.2291  0.0563 -0.1365
 6201SOL     OW19180   0.344   1.792   6.919  0.7679 -0.3224  0.0282
 6201SOL    HW119181   0.416   1.768   6.860  2.4784  2.1648  0.9286
 6201SOL    HW219182   0.339   1.887   6.913 -2.1973 -0.3654  0.3892
 6202SOL     OW19183   2.304   0.061   4.653 -0.2220 -0.7496  0.0371
 6202SOL    HW119184   2.386   0.092   4.615 -0.9999  0.7697 -0.4980
 6202SOL    HW219185   2.256   0.024   4.579  0.2521 -2.3173  0.4811
 6203SOL     OW19186   6.550   7.781   9.848 -0.4232 -0.0564 -0.2563
 6203SOL    HW119187   6.574   7.797   9.756 -0.6882 -0.6152 -0.4248
 6203SOL    HW219188   6.621   7.726   9.882 -1.0123 -0.9788 -0.5088
 6204SOL     OW19189   5.436   4.365   6.518  0.3140  0.0914  0.1267
 6204SOL    HW119190   5.400   4.398   6.436 -0.3212 -2.2214 -0.6073
 6204SOL    HW219191   5.491   4.292   6.493 -0.1690 -0.9013  1.7660
 6205SOL     OW19192   7.517   8.044   9.109 -0.0944  0.1148 -0.3379
 6205SOL    HW119193   7.517   8.026   9.203 -0.2902 -2.1510 -0.7249
 6205SOL    HW219194   7.600   8.010   9.078 -0.2345  0.4241 -1.0646
 6206SOL     OW19195   7.189   7.373   0.677 -0.6168  0.3853 -0.4166
 6206SOL    HW119196   7.232   7.421   0.607 -2.0638  1.3662 -0.6713
 6206SOL    HW219197   7.115   7.329   0.635 -1.4669  0.9306  0.4643
 6207SOL     OW19198   0.282   3.679   1.738  0.3107  0.3160  0.1191
 6207SOL    HW119199   0.341   3.735   1.687 -0.1936  0.6531 -0.0997
 6207SOL    HW219200   0.227   3.637   1.672 -0.2275  0.6130  0.3828
 6208SOL     OW19201   1.756   5.896   1.844  0.3111 -0.4787  0.2867
 6208SOL    HW119202   1.770   5.910   1.937  2.9687  0.6017 -0.1914
 6208SOL    HW219203   1.718   5.978   1.812  1.5649  0.0521  0.0821
 6209SOL     OW19204   7.617   4.571   2.323 -0.6929 -0.0198 -0.0692
 6209SOL    HW119205   7.680   4.552   2.252  0.3076  0.3507  0.6944
 6209SOL    HW219206   7.567   4.645   2.290  0.1636  0.5314 -0.1582
 6210SOL     OW19207   1.765   0.091   2.306  0.1864  0.0951  0.5601
 6210SOL    HW119208   1.689   0.051   2.348  0.4210 -0.1680  0.7390
 6210SOL    HW219209   1.729   0.163   2.255 -0.1862 -0.0416  0.6261
 6211SOL     OW19210   5.816   9.734   5.468 -0.1691  0.1332 -0.6584
 6211SOL    HW119211   5.793   9.659   5.523  3.3465  0.0256  0.9243
 6211SOL    HW219212   5.796   9.810   5.522  1.4745  0.0837  0.0782
 6212SOL     OW19213   2.577   2.141   0.561  0.7479  0.0904 -0.4909
 6212SOL    HW119214   2.567   2.229   0.523 -0.5727  0.1261 -0.1293
 6212SOL    HW219215   2.625   2.092   0.495  0.7886  0.8711 -1.0593
 6213SOL     OW19216   2.927   0.076   8.764  0.2896 -0.2498  0.1438
 6213SOL    HW119217   2.877   0.054   8.685  1.3449 -1.9692 -0.0974
 6213SOL    HW219218   2.875   0.144   8.807 -2.5858 -2.3461  0.2499
 6214SOL     OW19219   7.818   4.610   1.367  0.2140 -0.3536  0.4443
 6214SOL    HW119220   7.807   4.663   1.446 -1.0830 -0.0041  0.0661
 6214SOL    HW219221   7.832   4.521   1.398 -0.7232 -0.2947  1.0791
 6215SOL     OW19222   2.578   4.066   4.469  0.2580 -0.1492  0.0714
 6215SOL    HW119223   2.630   4.136   4.509 -0.8089  0.6049  0.1631
 6215SOL    HW219224   2.492   4.074   4.508 -1.5194  1.9181 -3.6857
 6216SOL     OW19225   9.736   1.064   2.309  0.1942 -0.0961 -0.1833
 6216SOL    HW119226   9.681   1.137   2.335 -0.4277 -0.7291  0.2887
 6216SOL    HW219227   9.682   1.014   2.248  0.1762 -0.8213  0.4258
 6217SOL     OW19228   3.228   2.979   8.832 -0.0555 -0.4187 -0.4367
 6217SOL    HW119229   3.209   3.041   8.903  2.3278  1.1335 -1.0064
 6217SOL    HW219230   3.299   2.925   8.866  1.0994  0.3308 -1.5830
 6218SOL     OW19231   5.804   3.933   1.159  0.5856  0.6855 -0.0574
 6218SOL    HW119232   5.778   3.846   1.130 -0.6400  0.7230  0.8367
 6218SOL    HW219233   5.899   3.928   1.169  0.4589 -0.7646  0.6797
 6219SOL     OW19234   6.247   5.484   2.046 -0.3032 -0.3564  0.0017
 6219SOL    HW119235   6.339   5.505   2.062 -0.1226 -1.3968  0.4150
 6219SOL    HW219236   6.245   5.449   1.957 -0.6724  1.6847 -0.8564
 6220SOL     OW19237   0.593   7.497   2.648 -0.4512 -0.6515  0.5253
 6220SOL    HW119238   0.536   7.429   2.612 -0.7416  0.1251 -0.5469
 6220SOL    HW219239   0.533   7.566   2.675 -0.1161 -0.5301  0.9723
 6221SOL     OW19240   8.641   4.012   0.721 -0.4380  0.0873 -0.1133
 6221SOL    HW119241   8.696   4.010   0.642 -0.5206 -0.1025 -0.1678
 6221SOL    HW219242   8.687   4.070   0.781  0.5862 -1.1882  0.3848
 6222SOL     OW19243   9.841   2.473   2.693 -0.0315 -0.6017  0.5440
 6222SOL    HW119244   9.765   2.476   2.751  0.0681  1.4452  0.6301
 6222SOL    HW219245   9.821   2.536   2.624 -0.1415 -2.9710 -1.7119
 6223SOL     OW19246   9.322   9.135   8.152  0.2626  0.4203 -0.5099
 6223SOL    HW119247   9.348   9.224   8.127 -0.0654  0.4914 -0.6032
 6223SOL    HW219248   9.402   9.084   8.146  0.2887  0.5385 -1.2468
 6224SOL     OW19249   3.574   3.753   7.920  0.4952 -0.2272 -0.4188
 6224SOL    HW119250   3.656   3.787   7.884  1.7423 -0.4621  2.0250
 6224SOL    HW219251   3.515   3.749   7.844  2.2552  1.3155 -1.9769
 6225SOL     OW19252   1.054   3.360   7.848  0.4069  0.4960  0.3277
 6225SOL    HW119253   1.073   3.406   7.930 -2.9799  0.9593  0.9945
 6225SOL    HW219254   1.028   3.429   7.787 -0.8386 -0.1507  0.0962
 6226SOL     OW19255   4.812   8.057   2.949  0.3001 -0.3250  0.1695
 6226SOL    HW119256   4.808   8.133   2.890  0.3510  0.1183  0.7314
 6226SOL    HW219257   4.788   7.983   2.893  0.1425  0.1150 -0.3624
 6227SOL     OW19258   1.546   8.051   1.077  0.1531  0.1693 -0.0798
 6227SOL    HW119259   1.590   8.026   1.159  0.8835  0.7362 -0.2926
 6227SOL    HW219260   1.596   8.127   1.045  1.8865 -1.8710 -2.6711
 6228SOL     OW19261   9.762   6.828   9.736  0.0139 -0.5180  0.5230
 6228SOL    HW119262   9.738   6.891   9.669 -0.1867 -0.2174  0.8763
 6228SOL    HW219263   9.679   6.802   9.776  0.0208 -1.5449 -0.0950
 6229SOL     OW19264   1.239   9.758   0.423  0.0681 -0.6034  0.9291
 6229SOL    HW119265   1.208   9.844   0.451  0.7715  0.1728 -0.6265
 6229SOL    HW219266   1.317   9.742   0.475  0.1928 -0.1001  0.8957
 6230SOL     OW19267   7.739   6.856   6.409  0.2200 -0.0035 -0.2195
 6230SOL    HW119268   7.759   6.782   6.467  0.1682  0.7769  0.8046
 6230SOL    HW219269   7.656   6.831   6.367  0.6087 -0.8778 -0.4797
 6231SOL     OW19270   1.966   1.775   0.777 -0.3578  0.2301 -0.4175
 6231SOL    HW119271   2.022   1.698   0.765  1.0241  0.7203  2.2093
 6231SOL    HW219272   1.959   1.813   0.690 -0.4796 -2.4189 -1.6791
 6232SOL     OW19273   4.659   6.721   5.406  0.1837 -0.5549 -0.4192
 6232SOL    HW119274   4.673   6.727   5.500  0.1303 -1.1818 -0.3688
 6232SOL    HW219275   4.644   6.628   5.390 -0.7615 -0.3306 -0.9058
 6233SOL     OW19276   0.359   0.589   4.183 -0.5849  0.5973 -0.6992
 6233SOL    HW119277   0.312   0.545   4.254  0.7332  0.8483  0.3834
 6233SOL    HW219278   0.451   0.586   4.211 -0.1066  1.1967 -2.1490
 6234SOL     OW19279   7.776   5.750   7.262 -0.0073 -0.0443 -0.2115
 6234SOL    HW119280   7.721   5.732   7.186 -0.6093 -0.3342  0.2844
 6234SOL    HW219281   7.716   5.786   7.327  0.6766  1.1585 -0.2083
 6235SOL     OW19282   6.052   3.658   7.047  0.0718  0.4056  0.1293
 6235SOL    HW119283   6.102   3.625   6.972  0.5524 -1.3285  1.1581
 6235SOL    HW219284   5.965   3.620   7.036  0.2672 -0.2130  0.6555
 6236SOL     OW19285   8.574   0.049   1.142 -0.9058 -0.1009 -0.6052
 6236SOL    HW119286   8.534   0.133   1.166  1.4324  0.6413  0.9983
 6236SOL    HW219287   8.508  -0.016   1.167 -1.6295  1.1194  0.8545
 6237SOL     OW19288   5.988  -0.012   3.889  0.4828 -0.5797  0.4546
 6237SOL    HW119289   6.014   0.072   3.850 -0.1145 -0.0194  1.2400
 6237SOL    HW219290   5.893  -0.014   3.882  0.4511 -0.9519  0.9159
 6238SOL     OW19291   9.352   7.624   2.172  0.2090  0.3206 -0.1836
 6238SOL    HW119292   9.421   7.682   2.143  0.8625 -0.1373  0.4103
 6238SOL    HW219293   9.355   7.550   2.111 -0.1173  0.5488 -0.4794
 6239SOL     OW19294   8.694   4.985   2.033  0.3797 -0.4578  0.1305
 6239SOL    HW119295   8.645   5.067   2.035  0.6403 -0.1549 -2.3764
 6239SOL    HW219296   8.785   5.011   2.042  0.3370 -0.6931  1.3646
 6240SOL     OW19297   6.852   8.894   0.924  0.4165  0.4098  0.1495
 6240SOL    HW119298   6.912   8.963   0.951 -0.2372  0.9929  0.1470
 6240SOL    HW219299   6.823   8.853   1.006  0.4573  0.4408  0.1789
 6241SOL     OW19300   2.740   1.709   5.759  0.1702  0.2560 -0.0318
 6241SOL    HW119301   2.755   1.791   5.713  0.3251 -0.3810 -1.1619
 6241SOL    HW219302   2.647   1.709   5.780 -0.0732  0.2125 -1.0679
 6242SOL     OW19303   4.134   5.237   2.683  0.3589 -0.4603  0.1589
 6242SOL    HW119304   4.133   5.239   2.587 -3.4674 -2.4166 -0.0460
 6242SOL    HW219305   4.066   5.299   2.708 -0.0692 -1.4225  1.4580
 6243SOL     OW19306   3.827   1.752   9.799  0.2568 -0.0553 -0.0375
 6243SOL    HW119307   3.850   1.793   9.715  1.8956  1.9312  1.2938
 6243SOL    HW219308   3.789   1.824   9.851  0.8844 -0.8222  1.5195
 6244SOL     OW19309   5.331   2.072   8.325  0.4412  0.2814 -0.7995
 6244SOL    HW119310   5.271   2.077   8.399 -0.0040 -1.1751 -1.0316
 6244SOL    HW219311   5.275   2.052   8.249  1.0486  0.3264 -1.2717
 6245SOL     OW19312   7.148   8.928   5.088  0.5665  0.6912 -0.0987
 6245SOL    HW119313   7.207   8.909   5.015  1.3701 -1.3526  1.0046
 6245SOL    HW219314   7.191   8.889   5.164 -1.6414  0.1512  0.9518
 6246SOL     OW19315   9.046   6.968   4.636 -0.1611 -0.5427  0.3075
 6246SOL    HW119316   9.052   6.879   4.670 -1.0369 -1.0011 -0.6665
 6246SOL    HW219317   9.092   7.022   4.700  0.1573 -1.6603  1.0431
 6247SOL     OW19318   2.287   7.378   7.108  0.3628  0.6103  0.4957
 6247SOL    HW119319   2.352   7.447   7.110  0.2428  0.7077  1.0587
 6247SOL    HW219320   2.253   7.373   7.197  1.2833 -1.0395  0.7962
 6248SOL     OW19321   3.433   2.890   7.738  0.0020  0.0742  0.2657
 6248SOL    HW119322   3.434   2.964   7.678  0.3666 -0.5408 -0.5110
 6248SOL    HW219323   3.389   2.820   7.689  0.4043 -0.4707  0.6722
 6249SOL     OW19324   5.187   6.956   5.656 -0.4350  0.5044 -0.1680
 6249SOL    HW119325   5.160   6.910   5.576 -0.8191  0.6132 -0.1056
 6249SOL    HW219326   5.258   6.903   5.691  1.0774  1.4711 -1.5858
 6250SOL     OW19327   8.880   2.266   9.330  0.2183 -0.0474  0.0425
 6250SOL    HW119328   8.911   2.180   9.358  2.5079  1.2922  2.0180
 6250SOL    HW219329   8.922   2.280   9.245 -1.3997 -1.4259 -1.0442
 6251SOL     OW19330   0.394   7.049   7.681  0.2587  1.0368  0.1942
 6251SOL    HW119331   0.482   7.029   7.710  0.3354 -0.8617 -1.1531
 6251SOL    HW219332   0.338   6.984   7.725 -0.1555  0.8507 -0.5784
 6252SOL     OW19333   5.319   6.398   5.616 -0.2160  0.2808 -0.4139
 6252SOL    HW119334   5.276   6.423   5.533  1.2023  0.0013 -1.2690
 6252SOL    HW219335   5.409   6.376   5.590 -0.5685 -2.9211  0.7117
 6253SOL     OW19336   3.214   6.948   6.458  0.1546  0.9736 -0.6937
 6253SOL    HW119337   3.132   6.956   6.506 -1.2007 -1.9751 -2.2127
 6253SOL    HW219338   3.233   7.037   6.427 -1.6829  1.9827  0.8753
 6254SOL     OW19339   3.340   7.558   2.822 -0.0979 -0.4683  0.7345
 6254SOL    HW119340   3.371   7.647   2.840  1.4881 -0.9026  0.2585
 6254SOL    HW219341   3.268   7.545   2.883  0.2478  0.8139  1.4450
 6255SOL     OW19342   7.241   6.222   2.906  0.8307 -1.0503  0.0023
 6255SOL    HW119343   7.165   6.166   2.892  0.7475 -0.7369 -0.8809
 6255SOL    HW219344   7.280   6.190   2.987  0.9162 -2.5313 -0.5885
 6256SOL     OW19345   5.253   8.082   8.362 -0.1653  0.2359  0.1653
 6256SOL    HW119346   5.173   8.029   8.358 -0.0063 -0.0897  1.0807
 6256SOL    HW219347   5.273   8.101   8.271 -0.6961 -0.5818 -0.1338
 6257SOL     OW19348   2.061   6.127   3.715 -0.2488  0.5005  0.5580
 6257SOL    HW119349   2.032   6.213   3.684  0.1184  0.6236  0.5535
 6257SOL    HW219350   2.024   6.065   3.653 -0.1348  0.6904  0.2998
 6258SOL     OW19351   7.639   3.124   0.116  0.6490 -0.3095  0.2591
 6258SOL    HW119352   7.620   3.202   0.064  1.2581  0.1299  0.6726
 6258SOL    HW219353   7.659   3.159   0.204 -1.1806 -1.0821  1.0342
 6259SOL     OW19354   8.410   8.116   1.459  0.1235 -0.0783 -0.3712
 6259SOL    HW119355   8.413   8.062   1.380  0.7991 -1.3889  0.5197
 6259SOL    HW219356   8.361   8.194   1.433  1.8360  0.3549 -2.5926
 6260SOL     OW19357   4.688   4.812   9.878 -0.5275 -0.3940 -0.2037
 6260SOL    HW119358   4.656   4.739   9.825 -2.6099 -1.1245  1.9150
 6260SOL    HW219359   4.724   4.771   9.957 -0.9343  0.8127  0.6378
 6261SOL     OW19360   4.812   2.881   4.867  0.7799 -0.0390  0.1963
 6261SOL    HW119361   4.817   2.788   4.891 -0.0090 -0.0005  0.5404
 6261SOL    HW219362   4.856   2.926   4.939 -1.2462  0.0459  1.4655
 6262SOL     OW19363   3.495   7.837   2.868  0.0762  0.1569 -0.4770
 6262SOL    HW119364   3.577   7.885   2.879  0.5711 -0.4360 -1.4366
 6262SOL    HW219365   3.427   7.903   2.881  0.5852  0.2428  2.6296
 6263SOL     OW19366   1.661   9.645   8.476  0.0981  0.2436 -0.3383
 6263SOL    HW119367   1.665   9.661   8.382  1.1418 -0.4484 -0.4311
 6263SOL    HW219368   1.700   9.723   8.516 -2.0297  1.3861 -0.3470
 6264SOL     OW19369   5.676   5.563   9.016 -0.2590  0.2057 -0.1394
 6264SOL    HW119370   5.584   5.590   9.027 -0.2116 -0.1186  1.1807
 6264SOL    HW219371   5.726   5.630   9.063  0.1538  0.0697 -0.3797
 6265SOL     OW19372   3.956   7.429   1.930 -0.0139 -0.2120  0.0764
 6265SOL    HW119373   3.864   7.404   1.931 -0.0661 -0.0634  1.7606
 6265SOL    HW219374   3.994   7.386   2.006  0.5114  2.4178  1.4385
 6266SOL     OW19375   5.250   5.250   6.780  0.0830 -0.4653 -0.1343
 6266SOL    HW119376   5.281   5.162   6.802  1.5542 -0.0310 -0.3447
 6266SOL    HW219377   5.315   5.283   6.718 -1.7196 -0.1215 -1.9889
 6267SOL     OW19378   8.027   9.804   1.730  0.4164  0.5607 -0.4760
 6267SOL    HW119379   8.004   9.712   1.715  0.6426  0.6112 -1.1762
 6267SOL    HW219380   8.028   9.843   1.642  0.0938  1.2876 -0.1641
 6268SOL     OW19381   9.526   5.030   1.693 -0.8495  0.2588  0.2675
 6268SOL    HW119382   9.622   5.031   1.696 -0.8111  2.4822 -0.2145
 6268SOL    HW219383   9.499   5.088   1.764 -1.8270  0.1434 -0.0009
 6269SOL     OW19384   6.064   8.287   3.473  0.4979 -0.9763  0.6573
 6269SOL    HW119385   6.085   8.339   3.550 -0.8070  2.0662 -0.8837
 6269SOL    HW219386   5.975   8.254   3.489  0.9588 -2.0071  1.2158
 6270SOL     OW19387   0.886   2.412   7.854 -0.5302 -0.4126 -0.2992
 6270SOL    HW119388   0.916   2.503   7.856 -0.1067 -0.5618  1.4073
 6270SOL    HW219389   0.790   2.417   7.860 -0.3987 -0.0817  3.7252
 6271SOL     OW19390   9.792   1.780   8.983 -0.1965  0.0714 -0.4784
 6271SOL    HW119391   9.833   1.734   8.910 -1.0247  0.3532 -1.1334
 6271SOL    HW219392   9.702   1.793   8.956 -0.4470  0.4437  0.4792
 6272SOL     OW19393   5.772   5.878   1.947  0.1302 -0.1081  0.3167
 6272SOL    HW119394   5.857   5.916   1.971 -0.1880  0.6323  0.2969
 6272SOL    HW219395   5.792   5.787   1.927  1.2271  0.4274 -1.3279
 6273SOL     OW19396   8.384   6.436   9.513  0.8321 -0.5807 -0.4595
 6273SOL    HW119397   8.331   6.364   9.481 -1.6406  0.7726  0.3755
 6273SOL    HW219398   8.393   6.495   9.438  1.4959 -0.9545 -0.6888
 6274SOL     OW19399   7.013   7.986   3.295 -0.3818  0.0743  0.2325
 6274SOL    HW119400   6.930   7.952   3.331 -1.4965  0.7638 -1.5317
 6274SOL    HW219401   7.021   7.941   3.211 -2.0535  4.1018 -2.3500
 6275SOL     OW19402   9.779   0.894   0.683 -0.6350 -0.2540 -0.3735
 6275SOL    HW119403   9.758   0.812   0.637 -4.3063  0.8515 -1.0209
 6275SOL    HW219404   9.859   0.926   0.640  0.5010 -3.0547 -0.5740
 6276SOL     OW19405   2.406   4.100   0.329  0.1440  0.5627  0.2238
 6276SOL    HW119406   2.403   4.196   0.330 -1.3304  0.5597 -0.9386
 6276SOL    HW219407   2.384   4.076   0.239 -0.5328 -0.8886  0.7422
 6277SOL     OW19408   3.019   0.964   6.904 -0.3170  0.7119  0.5055
 6277SOL    HW119409   2.954   1.028   6.874  0.5785  1.6720  0.5344
 6277SOL    HW219410   2.977   0.922   6.979 -0.5364  2.0424  1.1746
 6278SOL     OW19411   9.242   0.876   3.655 -0.2900  0.0822  0.1942
 6278SOL    HW119412   9.237   0.812   3.584  0.3308 -0.7934  0.9120
 6278SOL    HW219413   9.291   0.831   3.724 -0.6579  1.0014  1.0801
 6279SOL     OW19414   4.287   2.663   0.615  0.1205  0.1203 -0.3029
 6279SOL    HW119415   4.235   2.662   0.534  2.2965  2.4146 -1.8811
 6279SOL    HW219416   4.338   2.583   0.612 -1.8159 -1.2160  0.3162
 6280SOL     OW19417   6.908   1.502   7.784  0.2112 -0.2516 -0.5503
 6280SOL    HW119418   6.830   1.446   7.782  0.6866 -0.9233 -2.0382
 6280SOL    HW219419   6.930   1.514   7.692  3.2013 -2.0114 -0.1944
 6281SOL     OW19420   7.389   2.743   0.748 -0.1427  0.0893  0.0327
 6281SOL    HW119421   7.371   2.801   0.674 -1.3724  0.1398  0.3590
 6281SOL    HW219422   7.465   2.691   0.719  0.8704  1.6885 -0.3383
 6282SOL     OW19423   6.628   4.028   8.829  0.1720 -0.4407 -0.0978
 6282SOL    HW119424   6.581   4.069   8.755 -0.8392 -1.0939  0.1619
 6282SOL    HW219425   6.720   4.039   8.807 -0.0687  1.2154 -0.4508
 6283SOL     OW19426   2.267   5.613   0.678 -0.4609  0.1107 -0.0786
 6283SOL    HW119427   2.250   5.543   0.615  0.6619 -1.1808  0.9823
 6283SOL    HW219428   2.190   5.614   0.735  0.1700 -1.4204  0.8798
 6284SOL     OW19429   1.711   2.917   1.431  0.2770  0.2280  0.3324
 6284SOL    HW119430   1.716   2.931   1.526 -0.4799  0.4658  0.3472
 6284SOL    HW219431   1.630   2.868   1.419 -0.2025  1.1460 -0.2869
 6285SOL     OW19432   5.948   0.224   8.026 -0.4714 -0.3984 -0.7013
 6285SOL    HW119433   5.854   0.206   8.023 -0.6941  0.7568 -1.6132
 6285SOL    HW219434   5.976   0.191   8.112 -1.7556 -0.5401 -0.3091
 6286SOL     OW19435   0.598   8.654   6.379 -0.1110 -0.0756  0.1324
 6286SOL    HW119436   0.531   8.597   6.415 -2.0765  2.4042  0.7181
 6286SOL    HW219437   0.637   8.697   6.456  1.4194 -0.6783 -0.2735
 6287SOL     OW19438   9.487   5.463   9.692 -0.4687  0.1092  0.0512
 6287SOL    HW119439   9.439   5.539   9.659 -0.1694 -0.3126 -1.4405
 6287SOL    HW219440   9.421   5.394   9.698 -0.0435 -0.6129 -2.4805
 6288SOL     OW19441   5.363   8.447   0.408  0.0338 -0.1135  0.3565
 6288SOL    HW119442   5.375   8.501   0.486 -0.4338 -1.1520  1.1654
 6288SOL    HW219443   5.451   8.435   0.373  0.5098 -1.2733  1.8628
 6289SOL     OW19444   4.448   0.996   5.176 -0.3240 -0.0238  0.4437
 6289SOL    HW119445   4.384   1.004   5.105 -2.0570 -0.9000  1.8158
 6289SOL    HW219446   4.479   0.906   5.169  1.6860  0.7014 -0.8839
 6290SOL     OW19447   2.594   4.486   8.543  0.6377  0.3179 -0.1981
 6290SOL    HW119448   2.636   4.401   8.529  1.6194  0.5576  1.1486
 6290SOL    HW219449   2.662   4.551   8.526 -0.2065  0.8815 -1.5782
 6291SOL     OW19450   5.930   0.242   4.104  0.1478 -0.2942 -0.3078
 6291SOL    HW119451   6.023   0.219   4.101 -0.3459 -2.3923 -1.5681
 6291SOL    HW219452   5.909   0.271   4.016 -0.0511  1.9413  0.4118
 6292SOL     OW19453   4.376   8.666   3.115  0.3156  0.2833  0.6551
 6292SOL    HW119454   4.322   8.734   3.156 -0.1292  0.3015  0.0674
 6292SOL    HW219455   4.388   8.698   3.025  1.2588  0.2425  0.7633
 6293SOL     OW19456   5.377   9.531   4.906  0.0305 -0.0050  0.2523
 6293SOL    HW119457   5.441   9.547   4.975 -0.0748 -0.2127  0.3996
 6293SOL    HW219458   5.319   9.607   4.908  0.0092 -0.0254  0.4147
 6294SOL     OW19459   8.931   8.680   1.427  0.8451  0.1268 -0.4292
 6294SOL    HW119460   8.901   8.665   1.516 -0.6703 -2.5293 -1.2761
 6294SOL    HW219461   9.018   8.719   1.437  0.2154  1.0353  2.1427
 6295SOL     OW19462   8.237   5.433   5.007  0.4599  0.0820 -0.8612
 6295SOL    HW119463   8.286   5.376   4.949 -1.9261 -0.8796 -2.0939
 6295SOL    HW219464   8.166   5.468   4.952  0.8227  2.9216  0.3008
 6296SOL     OW19465   5.571   6.525   2.124  0.0438  0.5696 -0.3107
 6296SOL    HW119466   5.667   6.528   2.118  0.3865 -2.4435  1.3191
 6296SOL    HW219467   5.548   6.439   2.087 -2.1577  1.5575 -1.4218
 6297SOL     OW19468   2.816   4.389   7.684  0.3659  0.1576  0.1694
 6297SOL    HW119469   2.891   4.449   7.685 -0.2321  0.9294 -0.3039
 6297SOL    HW219470   2.782   4.392   7.774 -0.5564  1.7081 -0.1954
 6298SOL     OW19471   8.958   3.737   7.669  0.4039 -0.7380  0.1001
 6298SOL    HW119472   8.870   3.739   7.707  0.6069 -0.6319  0.5702
 6298SOL    HW219473   8.943   3.742   7.574 -0.0701  0.0705  0.2037
 6299SOL     OW19474   1.914   8.446   3.919  0.4250  0.0917  0.4756
 6299SOL    HW119475   1.846   8.443   3.986 -1.7602 -0.9240 -1.6549
 6299SOL    HW219476   1.977   8.379   3.945 -0.0719  0.0901  1.7526
 6300SOL     OW19477   9.669   7.640   3.322 -0.7710  0.0646  0.4376
 6300SOL    HW119478   9.719   7.579   3.376 -2.5241 -1.2768  0.6465
 6300SOL    HW219479   9.682   7.608   3.232 -1.1652 -0.2275  0.4829
 6301SOL     OW19480   0.625   6.443   1.112  0.2516 -0.5026 -0.4532
 6301SOL    HW119481   0.714   6.454   1.079  0.9973  0.8138  1.7809
 6301SOL    HW219482   0.628   6.362   1.162 -0.1319 -1.0282 -1.2565
 6302SOL     OW19483   1.882   8.551   6.571 -0.4293 -0.3052 -0.7716
 6302SOL    HW119484   1.879   8.635   6.526 -2.0589 -0.0729 -0.3061
 6302SOL    HW219485   1.924   8.570   6.654  1.3636 -0.4640 -1.5971
 6303SOL     OW19486   5.064   6.803   9.841 -0.5907  0.0218 -0.2079
 6303SOL    HW119487   5.058   6.895   9.813  0.7794  1.0229  2.3415
 6303SOL    HW219488   5.148   6.773   9.807 -0.5569  0.0655 -0.1636
 6304SOL     OW19489   0.045   0.910   4.332 -0.7162 -0.8663 -0.7119
 6304SOL    HW119490  -0.031   0.855   4.318 -2.0083  0.7156 -0.2426
 6304SOL    HW219491   0.020   0.995   4.295  0.3234  0.0340  0.5474
 6305SOL     OW19492   8.758   9.453   5.966 -0.0184  0.5639  0.2486
 6305SOL    HW119493   8.732   9.364   5.942  0.6586  0.3498  0.2682
 6305SOL    HW219494   8.756   9.502   5.884 -0.4940  0.5581  0.2555
 6306SOL     OW19495   9.216   6.212   5.880  0.6491  0.4791 -0.1596
 6306SOL    HW119496   9.135   6.220   5.829  1.1376  0.9653 -0.8857
 6306SOL    HW219497   9.187   6.200   5.970 -0.2303  0.6607 -0.4092
 6307SOL     OW19498   9.022   6.328   9.462 -0.3828  0.4276 -0.5289
 6307SOL    HW119499   9.084   6.255   9.463 -0.6267  0.0702 -3.2172
 6307SOL    HW219500   8.965   6.310   9.387 -1.4108  2.6149 -0.3551
 6308SOL     OW19501   1.135   8.935   5.432 -0.0680 -0.0254 -0.2917
 6308SOL    HW119502   1.211   8.988   5.409 -0.2259  0.0611 -0.6144
 6308SOL    HW219503   1.157   8.847   5.403 -0.4287  0.1596 -1.1410
 6309SOL     OW19504   6.570   9.204   1.681 -0.1984 -0.3484  0.1715
 6309SOL    HW119505   6.637   9.215   1.614  1.2634  0.5874  1.7295
 6309SOL    HW219506   6.583   9.116   1.714  0.1615 -0.2297  0.3515
 6310SOL     OW19507   7.375   0.063   8.377 -0.0294  0.5364  0.1888
 6310SOL    HW119508   7.361   0.082   8.470 -0.1305  0.0824  0.2663
 6310SOL    HW219509   7.399  -0.029   8.374  2.0494  1.0308 -0.0381
 6311SOL     OW19510   1.234   4.576   7.163 -0.2450 -0.4590  0.0042
 6311SOL    HW119511   1.319   4.563   7.120 -0.1483 -0.3809  0.1691
 6311SOL    HW219512   1.197   4.652   7.119  0.5830  0.6526  1.1555
 6312SOL     OW19513   8.055   6.668   6.731 -0.2727  0.1279 -0.7960
 6312SOL    HW119514   8.114   6.611   6.781 -3.4534 -2.1755  0.7033
 6312SOL    HW219515   8.069   6.755   6.768 -1.1343 -1.1452  3.0572
 6313SOL     OW19516   5.261   2.010   1.002  0.0933 -0.1455  0.1975
 6313SOL    HW119517   5.286   2.003   1.094 -0.5614  1.3238  0.5106
 6313SOL    HW219518   5.165   2.012   1.004  0.0867  1.5014 -0.3507
 6314SOL     OW19519   5.746   6.891   8.784 -0.0274 -0.6739  0.2536
 6314SOL    HW119520   5.766   6.818   8.843  2.9919  0.7508  1.1644
 6314SOL    HW219521   5.727   6.964   8.842 -0.8481 -0.1460 -0.6415
 6315SOL     OW19522   9.041   3.909   2.028 -0.2722  0.4435 -0.5640
 6315SOL    HW119523   9.114   3.864   1.984 -1.2508 -1.1673 -0.6206
 6315SOL    HW219524   8.963   3.878   1.983 -1.0124  2.4122 -0.7376
 6316SOL     OW19525   1.536   3.695   0.230 -0.8573 -0.0952  0.3560
 6316SOL    HW119526   1.571   3.669   0.316 -1.2585 -0.0549  0.5358
 6316SOL    HW219527   1.558   3.788   0.223  1.8416 -0.7410 -0.9073
 6317SOL     OW19528   4.626   3.869   0.361  0.4058 -0.8529 -0.2998
 6317SOL    HW119529   4.539   3.858   0.324 -0.0477 -1.0297  0.7883
 6317SOL    HW219530   4.666   3.782   0.355  0.0454 -1.0697  0.3082
 6318SOL     OW19531   6.493   5.395   5.577 -0.1451  0.1722 -0.1755
 6318SOL    HW119532   6.429   5.461   5.551  0.5583  0.4882 -1.1826
 6318SOL    HW219533   6.547   5.439   5.643  0.7919  0.9004 -1.3803
 6319SOL     OW19534   3.254   0.367   9.948 -0.1600  0.1411  0.1929
 6319SOL    HW119535   3.349   0.374   9.948 -0.2531  1.8359  0.2137
 6319SOL    HW219536   3.230   0.366   9.855 -0.2171  2.0244  0.1512
 6320SOL     OW19537   4.557   1.495   5.624 -0.1427 -0.0129 -0.0671
 6320SOL    HW119538   4.484   1.534   5.577 -0.3836  0.1232  0.4201
 6320SOL    HW219539   4.628   1.492   5.559 -0.9506 -1.3444 -0.9410
 6321SOL     OW19540   3.591   2.725   4.093 -0.5596  0.4443 -0.0643
 6321SOL    HW119541   3.686   2.714   4.101 -0.4855  1.1249  0.0466
 6321SOL    HW219542   3.580   2.799   4.034 -0.9814  1.3736  1.1200
 6322SOL     OW19543   0.701   7.414   2.187  0.5360  0.0081  0.6973
 6322SOL    HW119544   0.734   7.351   2.123  0.8876  0.7190  0.1665
 6322SOL    HW219545   0.778   7.435   2.241  1.2036  2.1879 -0.9682
 6323SOL     OW19546   3.050   3.038   7.017  0.4215 -0.1575  0.0107
 6323SOL    HW119547   2.981   3.029   7.083 -0.7548 -1.7671 -1.3309
 6323SOL    HW219548   3.005   3.022   6.934  1.9363  1.3843 -1.1587
 6324SOL     OW19549   0.538   3.147   7.783  0.4675 -0.2822 -0.1165
 6324SOL    HW119550   0.549   3.191   7.699 -1.9484  0.4514 -0.1214
 6324SOL    HW219551   0.540   3.054   7.762  2.2757 -0.1671 -0.5957
 6325SOL     OW19552   2.760   9.928   3.817 -0.5774 -0.1773  0.1082
 6325SOL    HW119553   2.810   9.853   3.850 -0.7337 -0.4088 -0.1701
 6325SOL    HW219554   2.689   9.939   3.881  0.8437  1.3088  1.5099
 6326SOL     OW19555   0.077   1.040   5.269 -0.5277  0.1341 -0.5087
 6326SOL    HW119556   0.152   1.090   5.302 -1.7342  0.9641  1.1280
 6326SOL    HW219557   0.106   0.949   5.272  0.7248  0.4995 -0.7858
 6327SOL     OW19558   6.410   2.541   6.902  0.4886 -0.0283 -0.1251
 6327SOL    HW119559   6.404   2.446   6.909 -0.8340 -0.3212 -3.4992
 6327SOL    HW219560   6.491   2.557   6.854  1.2825  0.6749  1.3845
 6328SOL     OW19561   9.604   2.037   4.036 -0.1100 -0.7403 -0.3987
 6328SOL    HW119562   9.567   1.989   3.962 -1.9461 -0.1106  0.0704
 6328SOL    HW219563   9.605   2.128   4.008 -3.0442 -0.1340  1.0984
 6329SOL     OW19564   1.749   9.438   6.015  0.3449  0.3402 -0.1958
 6329SOL    HW119565   1.821   9.488   6.053  0.8197 -1.4950  1.4722
 6329SOL    HW219566   1.792   9.369   5.964 -0.1896 -0.8437  0.9165
 6330SOL     OW19567   4.311   0.395   0.705  0.5182  0.7517  0.0281
 6330SOL    HW119568   4.364   0.393   0.625 -0.5480  2.0515 -0.7411
 6330SOL    HW219569   4.334   0.314   0.751 -0.0282 -0.8464 -2.3589
 6331SOL     OW19570   7.406   7.484   1.748  0.1511 -0.5169  0.2791
 6331SOL    HW119571   7.345   7.506   1.818 -0.2513 -1.0607  0.1102
 6331SOL    HW219572   7.460   7.413   1.784 -0.7306 -1.5103 -0.2939
 6332SOL     OW19573   4.871   0.338   6.892  0.3209 -0.1788  0.4056
 6332SOL    HW119574   4.899   0.428   6.906 -1.0150  0.6248 -1.6422
 6332SOL    HW219575   4.822   0.340   6.810 -0.0821 -2.7109  0.4912
 6333SOL     OW19576   2.785   0.555   6.588 -0.3892  0.1852  0.1319
 6333SOL    HW119577   2.732   0.548   6.508 -0.9775 -1.0454  0.6023
 6333SOL    HW219578   2.866   0.509   6.567 -0.3809  0.2073  0.1153
 6334SOL     OW19579   0.513   6.039   2.227  0.0062  0.1085 -0.0246
 6334SOL    HW119580   0.468   5.964   2.189 -0.5224 -0.0397  0.8766
 6334SOL    HW219581   0.547   6.007   2.311 -0.1611  0.8432  0.3364
 6335SOL     OW19582   0.831   3.181   8.477  0.0232 -0.0937  0.0531
 6335SOL    HW119583   0.835   3.166   8.383 -0.9347  0.9204 -0.1698
 6335SOL    HW219584   0.742   3.155   8.502  1.2734 -3.7247  1.3612
 6336SOL     OW19585   6.295   6.352   8.697 -0.8762 -0.6153  0.0404
 6336SOL    HW119586   6.256   6.373   8.782 -1.3209 -0.6416 -0.1534
 6336SOL    HW219587   6.267   6.423   8.640  0.3476 -0.0001  0.1769
 6337SOL     OW19588   6.231   0.687   9.083 -0.1166  0.2557  0.3681
 6337SOL    HW119589   6.149   0.640   9.069  0.4154 -0.6956  0.3864
 6337SOL    HW219590   6.297   0.634   9.039  0.8034 -0.0808  2.0540
 6338SOL     OW19591   4.311   9.128   4.510  0.1645  0.9478 -0.1628
 6338SOL    HW119592   4.301   9.205   4.454 -1.6539 -0.0225 -1.2589
 6338SOL    HW219593   4.359   9.065   4.456 -1.7070 -0.0401 -0.7664
 6339SOL     OW19594   8.993   2.816   9.884 -0.1078  0.0273 -0.0430
 6339SOL    HW119595   8.981   2.807   9.978 -0.7483  0.2204 -0.1002
 6339SOL    HW219596   9.085   2.842   9.873 -0.1331  0.3736  0.5472
 6340SOL     OW19597   9.408   8.705   4.068 -0.5416 -0.2076 -0.6491
 6340SOL    HW119598   9.483   8.692   4.126 -1.2062  1.6948  0.7530
 6340SOL    HW219599   9.440   8.683   3.981  1.2750 -0.5908  0.0748
 6341SOL     OW19600   1.518   1.220   5.843 -0.0976 -0.2330 -0.0396
 6341SOL    HW119601   1.577   1.289   5.814  1.7857 -1.3933  0.8475
 6341SOL    HW219602   1.563   1.139   5.820 -2.2613 -1.2178 -1.0827
 6342SOL     OW19603   6.485   4.914   6.967  0.1090 -0.0788  0.5264
 6342SOL    HW119604   6.458   4.893   6.878  0.0723  0.1489  0.4843
 6342SOL    HW219605   6.404   4.922   7.016  0.0954  0.5994  0.3999
 6343SOL     OW19606   0.275   0.260   5.650 -0.1843 -0.0775 -0.0440
 6343SOL    HW119607   0.295   0.190   5.588 -0.4269 -0.3716  0.2077
 6343SOL    HW219608   0.250   0.215   5.731  1.8754  0.2729  0.8662
 6344SOL     OW19609   7.955   8.130   2.720 -0.2506 -0.3057  0.1329
 6344SOL    HW119610   8.040   8.128   2.763  0.6128 -2.1473 -1.4870
 6344SOL    HW219611   7.930   8.038   2.712 -1.3310  0.0831 -1.4000
 6345SOL     OW19612   7.446   2.147   0.868 -0.1504  0.1241 -0.0859
 6345SOL    HW119613   7.475   2.057   0.884 -0.0977  0.1116 -0.2478
 6345SOL    HW219614   7.406   2.143   0.781 -1.2310 -0.0046  0.3884
 6346SOL     OW19615   5.270   7.777   0.914 -0.1106  0.1591 -0.0911
 6346SOL    HW119616   5.231   7.807   0.996 -0.4250  0.0464 -0.1999
 6346SOL    HW219617   5.201   7.787   0.849 -0.0891 -0.4004 -0.2059
 6347SOL     OW19618   9.830   2.502   5.727 -0.6736  0.3373  0.5380
 6347SOL    HW119619   9.854   2.586   5.765  1.5799  0.2307 -0.4602
 6347SOL    HW219620   9.893   2.440   5.764 -1.5208 -0.6842  0.3253
 6348SOL     OW19621   4.266   5.122   2.878  0.1060 -0.4712  0.4569
 6348SOL    HW119622   4.221   5.162   2.804  0.4653  1.0268  1.0201
 6348SOL    HW219623   4.197   5.076   2.926 -1.2068  2.7459  1.9699
 6349SOL     OW19624   1.960   6.193   7.840 -0.0655  0.5258 -0.1986
 6349SOL    HW119625   1.927   6.251   7.909 -2.1131 -0.7385 -0.0474
 6349SOL    HW219626   1.898   6.202   7.768  0.6369 -0.0767 -0.9126
 6350SOL     OW19627   5.267   9.374   6.758  0.0620  0.4738  0.5369
 6350SOL    HW119628   5.199   9.326   6.710  0.9970 -1.3975  0.9686
 6350SOL    HW219629   5.252   9.466   6.736 -1.2559 -0.0811 -1.0888
 6351SOL     OW19630   3.154   7.245   6.292  0.1850 -0.3640 -0.0235
 6351SOL    HW119631   3.209   7.296   6.233  0.2860  0.0137  0.3874
 6351SOL    HW219632   3.077   7.223   6.241  0.4177 -0.3187 -0.3943
 6352SOL     OW19633   0.974   8.418   9.589  0.5691  0.6153 -0.8394
 6352SOL    HW119634   1.041   8.443   9.526 -0.7778 -0.8593 -3.0010
 6352SOL    HW219635   0.914   8.492   9.591  2.1567  1.9656  1.1456
 6353SOL     OW19636   7.603   8.967   7.939 -0.2045 -0.6781 -0.5370
 6353SOL    HW119637   7.574   8.890   7.890  1.5671 -1.3158 -0.6563
 6353SOL    HW219638   7.646   9.022   7.874 -1.7029  0.5896 -0.5086
 6354SOL     OW19639   3.072   5.335   6.779 -0.3339  0.2841 -0.3126
 6354SOL    HW119640   3.060   5.246   6.744  0.8131  0.0140 -0.0553
 6354SOL    HW219641   3.140   5.373   6.724 -0.0842  0.6330  0.2322
 6355SOL     OW19642   4.425   8.642   9.124 -0.2445 -0.2915 -0.4537
 6355SOL    HW119643   4.417   8.551   9.095 -1.9109  0.2892 -1.9973
 6355SOL    HW219644   4.437   8.692   9.044  0.1442  0.9087  0.3239
 6356SOL     OW19645   6.821   8.379   1.489 -0.1644 -0.1512 -0.5569
 6356SOL    HW119646   6.850   8.469   1.502 -0.3944 -0.3136  1.5578
 6356SOL    HW219647   6.884   8.341   1.428  1.2673  0.8374  0.2486
 6357SOL     OW19648   4.527   4.515   3.567 -0.0578  0.3325 -0.1679
 6357SOL    HW119649   4.483   4.431   3.581 -0.2592  0.5042  0.2594
 6357SOL    HW219650   4.493   4.572   3.637 -0.6001  1.0451 -0.9959
 6358SOL     OW19651   6.828   6.013   4.199 -0.2500 -0.4572  0.6419
 6358SOL    HW119652   6.889   6.087   4.194 -0.8866  0.0673  0.3715
 6358SOL    HW219653   6.870   5.943   4.150 -1.0129  0.7462 -1.9174
 6359SOL     OW19654   9.536   4.418   3.145 -0.1839 -0.4752 -0.5784
 6359SOL    HW119655   9.469   4.434   3.211 -0.4970 -0.7625 -0.8221
 6359SOL    HW219656   9.608   4.378   3.194  0.1080  0.5021 -0.1913
 6360SOL     OW19657   6.079   1.459   6.466 -0.2737 -0.1073 -0.1029
 6360SOL    HW119658   6.148   1.502   6.517 -0.5120  0.6452 -0.4073
 6360SOL    HW219659   6.041   1.395   6.526  0.3020 -0.1177  0.2527
 6361SOL     OW19660   0.308   6.314   2.845  0.4780 -0.0855 -0.5123
 6361SOL    HW119661   0.260   6.385   2.887 -0.1759 -1.8456  1.9262
 6361SOL    HW219662   0.378   6.358   2.796 -0.8197  2.2808 -0.3970
 6362SOL     OW19663   0.407   8.243   9.005 -0.0116  0.0205 -0.8209
 6362SOL    HW119664   0.428   8.292   9.084  0.0766  0.3158 -1.0283
 6362SOL    HW219665   0.448   8.292   8.934 -2.3386  1.2766 -1.4011
 6363SOL     OW19666   2.700   0.805   9.163  0.3674  0.0204 -0.0907
 6363SOL    HW119667   2.657   0.875   9.114  0.9339  0.5109  0.1068
 6363SOL    HW219668   2.788   0.801   9.127  0.1556 -1.0108 -0.5184
 6364SOL     OW19669   1.592   5.724   6.906  0.0416 -0.1592  0.3104
 6364SOL    HW119670   1.514   5.781   6.904  0.9709  1.1896  0.9247
 6364SOL    HW219671   1.651   5.767   6.968  2.3213  0.2480 -2.0171
 6365SOL     OW19672   8.308   1.926   6.543  0.7485  0.4944  0.4474
 6365SOL    HW119673   8.258   1.847   6.520 -0.6582  1.4703  0.0272
 6365SOL    HW219674   8.277   1.992   6.482  2.2333  1.2882  0.5023
 6366SOL     OW19675   1.382   4.544   6.540  0.3183 -0.2666 -0.2329
 6366SOL    HW119676   1.358   4.475   6.478  0.2992 -0.2110 -0.2875
 6366SOL    HW219677   1.351   4.625   6.498 -0.9371 -0.3603  0.4713
 6367SOL     OW19678   2.198   3.180   6.541  0.0551  0.5299 -0.7412
 6367SOL    HW119679   2.241   3.207   6.460  1.1519  2.0528  0.2933
 6367SOL    HW219680   2.248   3.223   6.611 -0.9575 -0.5869  0.7486
 6368SOL     OW19681   3.456   4.255   9.215  0.5510 -0.1860 -0.1580
 6368SOL    HW119682   3.518   4.181   9.213  2.9033  1.6082  1.2453
 6368SOL    HW219683   3.406   4.241   9.296  1.3256 -0.0023  0.3612
 6369SOL     OW19684   7.867   2.681   0.513  0.2118  0.8423  0.0752
 6369SOL    HW119685   7.867   2.715   0.602  0.7643 -0.0552  0.4358
 6369SOL    HW219686   7.775   2.658   0.497  0.2060  0.4230  0.6579
 6370SOL     OW19687   1.887   5.140   2.498 -0.5324  0.4286  0.1594
 6370SOL    HW119688   1.853   5.178   2.578 -0.9755 -0.8627  0.6077
 6370SOL    HW219689   1.974   5.178   2.488  0.2180 -0.6248  2.1798
 6371SOL     OW19690   3.357   2.440   6.310 -0.2881  0.1769  0.0436
 6371SOL    HW119691   3.347   2.349   6.338 -0.5720 -0.3556 -1.6623
 6371SOL    HW219692   3.431   2.473   6.361  0.3499 -1.2674  0.1020
 6372SOL     OW19693   3.850   6.326   6.337 -0.2470  0.1351  0.8023
 6372SOL    HW119694   3.905   6.403   6.322  0.0520 -0.4690 -1.5648
 6372SOL    HW219695   3.790   6.353   6.407  1.3809  1.6662  1.6907
 6373SOL     OW19696   3.937   8.169   8.389 -0.6438 -0.3484  0.0705
 6373SOL    HW119697   4.026   8.133   8.389 -0.8665 -0.9119 -0.2568
 6373SOL    HW219698   3.946   8.254   8.432  0.2231  0.0275 -0.8237
 6374SOL     OW19699   6.189   7.908   0.913  0.3687  0.1384 -0.2017
 6374SOL    HW119700   6.112   7.924   0.858 -0.3953 -0.4378  0.6732
 6374SOL    HW219701   6.255   7.875   0.852  0.0050  0.8562 -1.0051
 6375SOL     OW19702   8.280   3.334   5.458 -0.3005 -0.4163 -0.1817
 6375SOL    HW119703   8.254   3.394   5.387 -0.6061 -0.0958  0.1978
 6375SOL    HW219704   8.200   3.287   5.480  0.0550 -1.3748 -0.8474
 6376SOL     OW19705   6.910  -0.003   3.337 -0.2352  0.2742  0.1283
 6376SOL    HW119706   6.907   0.091   3.351 -0.7355  0.3641 -0.5397
 6376SOL    HW219707   7.004  -0.024   3.335 -0.1170  0.4858  1.9006
 6377SOL     OW19708   4.658   4.811   3.901  0.2690  0.4472 -0.2219
 6377SOL    HW119709   4.569   4.823   3.866 -0.4163  1.2790  1.6533
 6377SOL    HW219710   4.662   4.718   3.924  0.4162  0.0921 -1.6293
 6378SOL     OW19711   8.956   1.933   7.951 -0.1086 -0.2183  0.1965
 6378SOL    HW119712   8.961   1.845   7.915 -0.0606 -0.1633  0.0684
 6378SOL    HW219713   9.016   1.985   7.897 -1.6543  0.3483 -1.0460
 6379SOL     OW19714   6.482   6.127   2.788 -0.3543 -0.5282  0.2236
 6379SOL    HW119715   6.508   6.044   2.747 -0.5865  0.0628 -1.1522
 6379SOL    HW219716   6.402   6.106   2.836  0.6941 -1.5580  1.6152
 6380SOL     OW19717   5.932   6.911   0.130 -0.3307  0.1213  0.2180
 6380SOL    HW119718   5.889   6.937   0.049 -1.3135  1.8516  1.2286
 6380SOL    HW219719   5.976   6.829   0.109 -0.9379  0.2905 -1.9202
 6381SOL     OW19720   4.733   6.910   4.999 -0.3926  0.1052  0.1484
 6381SOL    HW119721   4.824   6.900   5.024 -0.9644 -0.1728  2.3333
 6381SOL    HW219722   4.700   6.821   4.988 -0.8272  0.1169  1.1921
 6382SOL     OW19723   6.512   8.174   6.644  0.2155 -0.0124  0.0643
 6382SOL    HW119724   6.524   8.090   6.601  0.2457 -1.2721  2.3870
 6382SOL    HW219725   6.524   8.239   6.574  0.0570 -1.8997 -1.8103
 6383SOL     OW19726   7.688   1.463   8.368 -0.5632  0.0797  0.0078
 6383SOL    HW119727   7.763   1.502   8.414 -0.5122 -0.0686  0.0542
 6383SOL    HW219728   7.616   1.524   8.382 -0.7121 -0.2572  0.8189
 6384SOL     OW19729   8.061   4.069   5.703 -0.0428  0.1030  0.2703
 6384SOL    HW119730   8.063   3.974   5.714  1.0813  0.2170  1.3403
 6384SOL    HW219731   8.141   4.089   5.654 -0.8494  0.4161 -0.9653
 6385SOL     OW19732   8.185   3.740   8.844 -0.0077 -0.6021  0.2928
 6385SOL    HW119733   8.204   3.834   8.849 -2.3965 -0.0239 -0.1275
 6385SOL    HW219734   8.112   3.727   8.904 -1.3224 -1.6922 -1.4635
 6386SOL     OW19735   0.475   9.436   1.162 -0.1090 -0.6925 -0.1139
 6386SOL    HW119736   0.465   9.388   1.245 -0.2124  0.7326  0.7356
 6386SOL    HW219737   0.508   9.521   1.189  0.3010 -0.3642 -1.6082
 6387SOL     OW19738   1.150   1.763   3.407  0.0708  0.5693  0.4594
 6387SOL    HW119739   1.155   1.704   3.332 -0.2752  0.2075  0.7154
 6387SOL    HW219740   1.111   1.710   3.477  0.4839  0.8747  0.9260
 6388SOL     OW19741   3.113   2.199   4.612  0.0098 -0.8869 -0.2785
 6388SOL    HW119742   3.135   2.160   4.527 -0.2033 -1.3378 -0.1345
 6388SOL    HW219743   3.182   2.262   4.629 -0.0973 -0.5922 -0.9200
 6389SOL     OW19744   6.948   6.631   0.635 -0.2854 -0.3652  0.2117
 6389SOL    HW119745   7.008   6.639   0.709  0.2313 -0.4973 -0.1822
 6389SOL    HW219746   7.006   6.632   0.558 -0.9282  1.9451 -0.3290
 6390SOL     OW19747   2.847   6.370   0.985 -0.2001 -0.4739  0.1499
 6390SOL    HW119748   2.867   6.457   1.017  0.1129 -0.4687 -0.0550
 6390SOL    HW219749   2.911   6.313   1.028 -0.6566 -0.6614  0.5925
 6391SOL     OW19750   0.054   9.393   4.643 -0.3192  0.1090 -0.5400
 6391SOL    HW119751   0.073   9.441   4.723 -0.5355  0.1136 -0.4924
 6391SOL    HW219752   0.025   9.460   4.581 -1.4107 -0.0619 -0.2276
 6392SOL     OW19753   7.640   9.061   8.246  0.0984 -0.7403 -0.1957
 6392SOL    HW119754   7.733   9.063   8.270  0.2944 -0.3437 -0.9468
 6392SOL    HW219755   7.596   9.022   8.322  1.2920 -4.2460 -1.1117
 6393SOL     OW19756   8.072   7.601   8.403 -0.1153 -0.6905 -0.2292
 6393SOL    HW119757   8.135   7.621   8.333  1.4594 -0.6908  1.1235
 6393SOL    HW219758   7.992   7.646   8.377  0.9889  0.8430 -1.1205
 6394SOL     OW19759   2.455   5.220   1.251 -0.0485 -0.3223 -0.4000
 6394SOL    HW119760   2.462   5.149   1.187 -0.7984 -0.5442 -0.2405
 6394SOL    HW219761   2.393   5.282   1.213  0.0255 -0.1173 -0.1952
 6395SOL     OW19762   3.300   7.366   4.528  0.4302  0.1001 -0.4815
 6395SOL    HW119763   3.230   7.355   4.464 -1.5574 -0.7033  1.6663
 6395SOL    HW219764   3.377   7.386   4.476 -1.0828 -0.3245 -3.0854
 6396SOL     OW19765   6.625   0.134   6.341  0.4744 -0.1584  0.0064
 6396SOL    HW119766   6.693   0.068   6.327  1.1084  0.4251  0.2741
 6396SOL    HW219767   6.586   0.110   6.425 -0.3620 -1.1020 -0.6461
 6397SOL     OW19768   8.110   3.445   8.628 -0.7572  0.5662  0.1816
 6397SOL    HW119769   8.110   3.464   8.722 -0.7487  0.7032  0.1547
 6397SOL    HW219770   8.034   3.389   8.614  0.2751 -0.9831  0.5622
 6398SOL     OW19771   0.386   9.643   3.573  1.0261  0.0682 -0.1379
 6398SOL    HW119772   0.295   9.640   3.543  0.8640  1.8381  0.0792
 6398SOL    HW219773   0.422   9.558   3.549 -0.5872 -0.5400 -0.5298
 6399SOL     OW19774   1.291   2.342   0.898 -0.6475 -0.2601 -0.0766
 6399SOL    HW119775   1.295   2.437   0.892  0.4419 -0.3472 -1.1893
 6399SOL    HW219776   1.319   2.311   0.811  0.6045 -1.6043  0.7452
 6400SOL     OW19777   5.607   1.564   5.784 -0.2146 -0.1791 -0.0338
 6400SOL    HW119778   5.594   1.608   5.700  0.3340 -0.2277 -0.1509
 6400SOL    HW219779   5.686   1.512   5.771  0.4498  0.5947  0.8236
 6401SOL     OW19780   2.597   3.207   0.746  0.1495  0.2292 -0.3397
 6401SOL    HW119781   2.527   3.243   0.799  0.7134  1.3001 -0.3055
 6401SOL    HW219782   2.565   3.120   0.719 -0.7173  0.2597  0.5677
 6402SOL     OW19783   6.729   0.603   3.535  0.4645 -0.3181  0.5548
 6402SOL    HW119784   6.656   0.606   3.474  0.7370 -0.9520  0.1796
 6402SOL    HW219785   6.785   0.677   3.510 -1.1250  1.5716  2.2798
 6403SOL     OW19786   6.529   9.761   4.925  0.3387  0.3741  0.0935
 6403SOL    HW119787   6.521   9.811   4.843 -0.8412  0.6504  0.3629
 6403SOL    HW219788   6.465   9.691   4.917  0.2857  0.3433  0.7319
 6404SOL     OW19789   0.507   3.377   5.554  0.2484  0.1140  0.0432
 6404SOL    HW119790   0.488   3.400   5.463 -2.6573  0.3063  0.5892
 6404SOL    HW219791   0.580   3.315   5.548 -0.5280 -0.6904 -2.5145
 6405SOL     OW19792   4.059   2.949   6.710  0.4623 -0.0506 -0.0472
 6405SOL    HW119793   4.115   2.874   6.729  1.3305  0.4715 -0.4790
 6405SOL    HW219794   4.095   2.987   6.630 -0.4292  0.3823 -0.2570
 6406SOL     OW19795   0.696   7.317   7.456 -0.8011 -0.2400  0.2784
 6406SOL    HW119796   0.770   7.260   7.474  0.7598  0.7196 -2.4119
 6406SOL    HW219797   0.620   7.269   7.487  0.8122 -1.8265  2.0241
 6407SOL     OW19798   7.328   7.223   4.159 -0.0288 -1.1214  0.0494
 6407SOL    HW119799   7.375   7.225   4.075 -2.7662 -1.8628 -1.6015
 6407SOL    HW219800   7.236   7.217   4.136 -1.3088  2.5305  3.0781
 6408SOL     OW19801   1.480   1.741   0.999  0.0532  0.1472 -0.2586
 6408SOL    HW119802   1.413   1.678   1.027  0.2881  0.1078  0.2393
 6408SOL    HW219803   1.534   1.692   0.938  1.6169 -0.9148  1.8475
 6409SOL     OW19804   6.215   3.482   5.269 -0.1364 -0.4555  0.2273
 6409SOL    HW119805   6.143   3.438   5.223  0.0283 -0.2107 -0.2729
 6409SOL    HW219806   6.294   3.441   5.235  0.0574  0.6649 -0.7508
 6410SOL     OW19807   6.011   2.240   4.327  0.2166 -0.1659 -0.6366
 6410SOL    HW119808   6.010   2.280   4.240 -1.0911 -1.5625 -1.2977
 6410SOL    HW219809   6.048   2.153   4.313 -0.1985 -0.4790  0.1631
 6411SOL     OW19810   5.976   2.993   8.304 -0.1464  0.8452 -0.3484
 6411SOL    HW119811   5.895   3.045   8.304  0.0434  1.1461  0.0007
 6411SOL    HW219812   5.949   2.906   8.334 -0.1488  1.2628  0.9365
 6412SOL     OW19813   6.239   6.484   8.942 -0.0467  0.5161  0.1578
 6412SOL    HW119814   6.242   6.564   8.890 -1.4601  0.1327 -0.5762
 6412SOL    HW219815   6.156   6.490   8.990  0.8261  0.4512  1.7270
 6413SOL     OW19816   5.238   3.486   6.948  0.2459  0.1943 -0.0829
 6413SOL    HW119817   5.196   3.401   6.959 -0.1155  0.2636 -0.8811
 6413SOL    HW219818   5.320   3.468   6.901  0.9581  0.1057  1.1416
 6414SOL     OW19819   8.944   3.927   9.964 -0.4464 -0.6142  0.2864
 6414SOL    HW119820   8.946   3.940   9.869 -1.0922  0.8341  0.4410
 6414SOL    HW219821   9.034   3.905   9.987  0.2304  1.2432 -0.4061
 6415SOL     OW19822   1.890   2.384   7.046 -0.3300 -0.2084 -0.3571
 6415SOL    HW119823   1.978   2.421   7.050 -1.2105  1.9326  1.0875
 6415SOL    HW219824   1.845   2.437   6.980 -0.7197 -0.8876 -0.6422
 6416SOL     OW19825   8.903   4.672   3.460  0.1909 -0.1259 -0.3384
 6416SOL    HW119826   8.865   4.675   3.372  2.3766 -1.8486 -1.4395
 6416SOL    HW219827   8.861   4.597   3.501 -0.7101  0.5789  0.0495
 6417SOL     OW19828   1.294   3.175   7.886  0.7571 -0.1922 -0.1903
 6417SOL    HW119829   1.235   3.238   7.844 -0.4042  0.3385  2.0782
 6417SOL    HW219830   1.361   3.157   7.820  0.8230  2.9815 -1.1412
 6418SOL     OW19831   4.437   2.316   2.976 -0.1081  0.4569  0.2868
 6418SOL    HW119832   4.492   2.320   3.054 -2.2551  2.1508  1.8489
 6418SOL    HW219833   4.414   2.407   2.958 -0.4189  0.0169 -1.7931
 6419SOL     OW19834   0.370   1.052   4.989 -0.0153  0.2024  0.2949
 6419SOL    HW119835   0.283   1.017   4.970  0.3430  0.3782 -1.9774
 6419SOL    HW219836   0.421   1.033   4.910  1.8174  0.7182  1.3042
 6420SOL     OW19837   5.125   3.139   2.336  0.0584 -0.3230 -0.6472
 6420SOL    HW119838   5.055   3.136   2.270 -0.4163  0.6076 -0.2021
 6420SOL    HW219839   5.197   3.185   2.292 -0.0085 -0.3023 -0.7367
 6421SOL     OW19840   1.975   6.725   8.145 -0.4963 -0.6035 -0.5451
 6421SOL    HW119841   1.905   6.743   8.082 -0.1075 -1.6209 -1.2996
 6421SOL    HW219842   2.054   6.756   8.101 -0.1452 -1.8526 -0.8298
 6422SOL     OW19843   5.713   6.410   0.230 -0.2432  0.0324 -0.6835
 6422SOL    HW119844   5.767   6.483   0.259 -0.9994 -0.0555  1.0533
 6422SOL    HW219845   5.688   6.365   0.310 -0.8799 -1.3669 -1.6261
 6423SOL     OW19846   7.712   7.765   7.366 -0.3053  1.0868  0.3007
 6423SOL    HW119847   7.726   7.755   7.272  1.5976  1.1294  0.5487
 6423SOL    HW219848   7.619   7.785   7.374 -0.2708  2.3130 -1.6701
 6424SOL     OW19849   5.694   6.002   7.001 -0.6707  0.6338  0.0190
 6424SOL    HW119850   5.755   5.987   7.074  0.6823  0.4459 -1.1140
 6424SOL    HW219851   5.618   5.948   7.022  0.1592 -0.2814  0.7555
 6425SOL     OW19852   8.618   1.993   0.161 -0.2854 -0.0249 -0.0686
 6425SOL    HW119853   8.703   2.002   0.204 -0.5689  0.7103  0.3369
 6425SOL    HW219854   8.639   1.959   0.074  0.3413 -0.8438  0.3842
 6426SOL     OW19855   8.286   2.140   8.565  0.4793  0.8634  0.2592
 6426SOL    HW119856   8.213   2.143   8.502  1.2783  0.2593 -0.7213
 6426SOL    HW219857   8.249   2.098   8.642 -0.1169  0.2018 -0.3759
 6427SOL     OW19858   3.195   8.646   0.864 -0.1069  0.5729  0.3572
 6427SOL    HW119859   3.249   8.725   0.866 -0.3362  0.7320  0.4085
 6427SOL    HW219860   3.256   8.574   0.847  0.2036  0.6667  1.0789
 6428SOL     OW19861   8.568   2.119   8.533 -0.1407  0.1891  0.0542
 6428SOL    HW119862   8.480   2.095   8.563  0.1020 -0.4068  0.3039
 6428SOL    HW219863   8.556   2.204   8.491 -0.8694  0.0420 -0.0624
 6429SOL     OW19864   1.234   5.316   5.598 -0.6144 -0.3630  0.7001
 6429SOL    HW119865   1.194   5.368   5.528 -1.8951 -0.1334  1.5614
 6429SOL    HW219866   1.327   5.338   5.594 -0.7149 -0.0851 -0.6842
 6430SOL     OW19867   2.806   0.720   2.010 -0.0962  0.6037  0.0910
 6430SOL    HW119868   2.831   0.745   2.099  0.7912  1.1056 -0.2817
 6430SOL    HW219869   2.750   0.643   2.022  1.7033 -0.6753  1.0128
 6431SOL     OW19870   5.269   6.811   7.032  0.1518 -0.1668  0.4998
 6431SOL    HW119871   5.290   6.752   7.104 -0.3537  0.4629  1.1864
 6431SOL    HW219872   5.354   6.835   6.995  0.5515  0.6750  1.8565
 6432SOL     OW19873   4.687   6.431   4.255 -0.1365 -0.0148 -0.1784
 6432SOL    HW119874   4.720   6.366   4.317  4.9415  1.4610 -0.8705
 6432SOL    HW219875   4.690   6.513   4.304 -1.2088  0.4526 -0.8811
 6433SOL     OW19876   8.431   9.173   9.445  0.8723  0.2592 -0.1983
 6433SOL    HW119877   8.371   9.242   9.470  0.5324 -0.1221  0.0552
 6433SOL    HW219878   8.482   9.155   9.524  1.1196  0.3791 -0.3292
 6434SOL     OW19879   8.292   6.237   6.968 -0.6238 -0.4406 -0.3186
 6434SOL    HW119880   8.227   6.176   6.933 -0.5512 -0.3663 -0.5858
 6434SOL    HW219881   8.375   6.205   6.934 -0.4092 -1.0608  0.7474
 6435SOL     OW19882   7.205   6.136   1.236 -0.1061 -0.5412  0.1884
 6435SOL    HW119883   7.278   6.181   1.193 -0.8064  0.1822 -0.2814
 6435SOL    HW219884   7.227   6.138   1.329  0.7507 -0.8535 -0.0023
 6436SOL     OW19885   3.537   3.450   1.813 -0.0362 -0.2469  0.0077
 6436SOL    HW119886   3.590   3.380   1.849  0.5352  0.6438  0.9681
 6436SOL    HW219887   3.478   3.475   1.884 -1.6820 -1.1387 -1.0102
 6437SOL     OW19888   7.001   0.055   3.880  0.0307  0.1188  0.6776
 6437SOL    HW119889   6.927   0.008   3.842  0.3290  0.1255  0.0616
 6437SOL    HW219890   6.991   0.045   3.974 -2.0721  2.1036  0.7545
 6438SOL     OW19891   3.866   0.815   6.521  0.0461 -0.1615 -0.1022
 6438SOL    HW119892   3.820   0.731   6.521 -0.4640  0.1031  1.3090
 6438SOL    HW219893   3.911   0.818   6.605 -0.6666  1.3662  0.2561
 6439SOL     OW19894   0.712   1.962   1.729  0.2453  0.2620  0.3098
 6439SOL    HW119895   0.748   2.038   1.776 -0.4069  0.7370  0.0682
 6439SOL    HW219896   0.730   1.888   1.786  0.6453  0.6457  0.6878
 6440SOL     OW19897   7.271   2.942   8.006 -0.5042 -0.0529  0.3811
 6440SOL    HW119898   7.194   2.979   8.050 -1.0728 -0.0980 -0.5419
 6440SOL    HW219899   7.239   2.862   7.964  0.1809 -0.3666  0.4375
 6441SOL     OW19900   7.788   2.500   2.660  0.5078  0.1218  0.2586
 6441SOL    HW119901   7.795   2.481   2.753  1.3081  3.4479  1.0187
 6441SOL    HW219902   7.753   2.420   2.621  0.6407 -1.5544  3.3006
 6442SOL     OW19903   1.841   0.531   5.511  0.1037  0.3613 -0.8418
 6442SOL    HW119904   1.830   0.549   5.604  0.3414 -1.5466 -0.3969
 6442SOL    HW219905   1.808   0.610   5.467  0.4088  1.4910  0.8438
 6443SOL     OW19906   8.870   5.640   2.567  0.1837  0.0780 -0.5447
 6443SOL    HW119907   8.905   5.556   2.537 -0.9942 -0.4301 -0.5522
 6443SOL    HW219908   8.897   5.646   2.658 -0.0343 -0.4995 -0.4336
 6444SOL     OW19909   8.304   0.947   1.342  0.3850 -0.0758 -0.4323
 6444SOL    HW119910   8.308   0.913   1.252 -0.9489  0.3580 -0.6773
 6444SOL    HW219911   8.340   1.035   1.336 -0.3816  0.2316 -0.7088
 6445SOL     OW19912   6.566   2.124   2.515 -0.0943  0.3318 -0.7390
 6445SOL    HW119913   6.477   2.130   2.550 -0.0484  2.7778 -0.8770
 6445SOL    HW219914   6.563   2.174   2.433  1.1187 -0.6513 -1.4188
 6446SOL     OW19915   3.628   8.663   7.109  0.2803 -0.6703 -0.2752
 6446SOL    HW119916   3.695   8.608   7.068  1.2270  1.1829 -1.3329
 6446SOL    HW219917   3.553   8.657   7.051  0.1145 -1.4161  0.0106
 6447SOL     OW19918   3.751   1.583   2.693 -0.2078  0.0069 -0.2120
 6447SOL    HW119919   3.787   1.615   2.611  1.0439 -0.1085  0.2808
 6447SOL    HW219920   3.794   1.499   2.708 -0.0683  0.2353  0.7789
 6448SOL     OW19921   7.932   4.340   1.390 -0.3621 -0.2522  0.4515
 6448SOL    HW119922   7.999   4.366   1.453  0.9111 -3.1307  0.4251
 6448SOL    HW219923   7.977   4.341   1.306 -1.1057  0.2622  0.0498
 6449SOL     OW19924   6.591   1.229   5.054 -0.5024 -0.7631 -0.1049
 6449SOL    HW119925   6.522   1.196   5.111 -0.3012  0.1120  0.6695
 6449SOL    HW219926   6.615   1.314   5.091 -0.2495 -0.2403 -1.3933
 6450SOL     OW19927   9.143   1.486   0.831  0.0114  0.4019  0.7005
 6450SOL    HW119928   9.095   1.487   0.749 -0.8764 -0.3423  1.1932
 6450SOL    HW219929   9.138   1.576   0.863  0.4293  0.7111 -0.0885
 6451SOL     OW19930   6.854   5.247   3.456  0.7159  0.2493  0.5380
 6451SOL    HW119931   6.869   5.157   3.486 -0.0490  0.3989  1.4031
 6451SOL    HW219932   6.760   5.250   3.434  1.0719  0.3669 -1.1685
 6452SOL     OW19933   4.064   6.319   2.258 -0.1408  0.2776  0.1752
 6452SOL    HW119934   4.008   6.269   2.198  0.4737 -0.6500  0.3602
 6452SOL    HW219935   4.002   6.368   2.312 -0.8676 -1.6350  1.1722
 6453SOL     OW19936   7.333   3.501   7.289 -0.4659 -0.5756  0.4040
 6453SOL    HW119937   7.369   3.589   7.277 -1.3780 -0.0319  1.5068
 6453SOL    HW219938   7.409   3.443   7.279  1.0173  0.5834  3.4196
 6454SOL     OW19939   0.057   2.312   5.454 -0.5937 -0.1747  0.0260
 6454SOL    HW119940   0.013   2.265   5.524 -0.2207  0.2567  0.5598
 6454SOL    HW219941   0.053   2.404   5.481 -0.5133  0.0012 -0.5519
 6455SOL     OW19942   8.253   2.748   1.580 -0.0577 -0.1385  0.1304
 6455SOL    HW119943   8.170   2.761   1.626 -0.3005 -0.7179 -0.1291
 6455SOL    HW219944   8.282   2.661   1.608  0.5281  0.1124  0.3177
 6456SOL     OW19945   3.597   6.072   6.649  0.0342 -0.0206 -0.0280
 6456SOL    HW119946   3.544   6.001   6.687 -0.5024  0.2037 -0.3464
 6456SOL    HW219947   3.686   6.036   6.646 -0.0493 -0.3095  0.7549
 6457SOL     OW19948   7.242   9.436   7.914  0.0646 -0.4336  0.7753
 6457SOL    HW119949   7.241   9.360   7.973  0.4712 -0.9759  0.1002
 6457SOL    HW219950   7.150   9.454   7.896 -0.0630 -0.2905  1.5384
 6458SOL     OW19951   0.979   6.408   9.869  0.5285 -0.0480  0.1504
 6458SOL    HW119952   0.972   6.345   9.941  0.6255 -1.0124 -0.6623
 6458SOL    HW219953   1.057   6.460   9.890  1.3984 -1.2621  0.0476
 6459SOL     OW19954   3.355   7.152   3.336  0.0063  0.3405 -0.1895
 6459SOL    HW119955   3.437   7.102   3.343  0.3457  0.6531 -1.6466
 6459SOL    HW219956   3.382   7.239   3.307 -0.6138  1.3351  1.9772
 6460SOL     OW19957   1.552   1.527   7.782  0.0847  0.5326  0.2568
 6460SOL    HW119958   1.519   1.443   7.750  2.5330 -0.2786 -0.3885
 6460SOL    HW219959   1.635   1.506   7.825  1.4470  2.7240 -1.0804
 6461SOL     OW19960   9.312   2.214   5.395 -0.2888  0.1045 -0.0252
 6461SOL    HW119961   9.401   2.181   5.412 -0.3849 -0.7517 -1.0797
 6461SOL    HW219962   9.283   2.164   5.319 -1.4874  0.7506 -0.0003
 6462SOL     OW19963   2.391   8.011   6.331 -0.0798 -0.3500  0.1681
 6462SOL    HW119964   2.483   8.000   6.309 -0.1786 -0.6532 -0.1151
 6462SOL    HW219965   2.356   7.922   6.331 -1.1374 -0.1013 -3.1703
 6463SOL     OW19966   4.131   6.378   4.308  0.4813 -0.2222 -0.5113
 6463SOL    HW119967   4.080   6.335   4.376 -2.2112  1.6726 -1.1831
 6463SOL    HW219968   4.222   6.365   4.335 -0.4171 -0.1839  3.0584
 6464SOL     OW19969   8.793   0.302   6.227 -0.1161 -0.3712  0.2350
 6464SOL    HW119970   8.731   0.371   6.205 -1.2486 -1.3125  0.3847
 6464SOL    HW219971   8.785   0.239   6.156  0.1581 -0.8335  0.6049
 6465SOL     OW19972   7.370   2.487   0.394  0.2452 -0.3706 -0.0681
 6465SOL    HW119973   7.305   2.503   0.326 -0.0174 -1.2112 -0.0275
 6465SOL    HW219974   7.343   2.404   0.434  0.8771 -0.3142  0.4975
 6466SOL     OW19975   8.726   7.684   0.332 -0.1776  0.5821  0.1059
 6466SOL    HW119976   8.749   7.623   0.403  0.2864  0.3118 -0.2762
 6466SOL    HW219977   8.715   7.628   0.255  1.2684  1.0864 -0.4825
 6467SOL     OW19978   5.862   5.862   1.414 -0.0182 -0.1146  0.0521
 6467SOL    HW119979   5.833   5.903   1.495  2.7824 -1.7327  2.0179
 6467SOL    HW219980   5.859   5.932   1.349 -0.1556  1.8402  2.0780
 6468SOL     OW19981   1.313   0.835   7.462  0.4167 -0.1406 -0.3041
 6468SOL    HW119982   1.230   0.866   7.425  0.4449  1.0981  0.6035
 6468SOL    HW219983   1.329   0.893   7.537  2.5064  0.1647 -0.9288
 6469SOL     OW19984   5.412   2.776   5.484  0.9041  0.4814 -0.2970
 6469SOL    HW119985   5.401   2.746   5.394  3.1747 -1.2198 -0.1187
 6469SOL    HW219986   5.392   2.869   5.482  0.3044  0.3554 -2.4035
 6470SOL     OW19987   1.086   5.098   5.087 -0.2074 -0.1932 -0.3510
 6470SOL    HW119988   1.036   5.038   5.143 -0.4083  0.3985  0.1233
 6470SOL    HW219989   1.175   5.096   5.122  0.3848 -1.9772 -1.7838
 6471SOL     OW19990   8.054   3.188   5.201 -0.2097 -0.0779  0.5027
 6471SOL    HW119991   7.963   3.157   5.203 -0.1326 -0.3041  0.4960
 6471SOL    HW219992   8.052   3.270   5.251 -0.8506  1.0792 -1.3419
 6472SOL     OW19993   5.400   9.260   6.261 -0.5251 -0.3948  0.7857
 6472SOL    HW119994   5.331   9.290   6.202  0.3535 -0.2754 -0.2138
 6472SOL    HW219995   5.451   9.198   6.209  0.3956 -0.1305  1.3465
 6473SOL     OW19996   5.131   0.593   4.858  0.3679 -0.3858  0.2109
 6473SOL    HW119997   5.146   0.553   4.772 -0.3238  1.5936 -0.8970
 6473SOL    HW219998   5.218   0.620   4.888  0.5583 -0.6553 -0.0918
 6474SOL     OW19999   0.470   2.166   1.943  0.1299  0.0321  0.0838
 6474SOL    HW120000   0.497   2.221   2.017  0.2590 -0.2935  0.2827
 6474SOL    HW220001   0.428   2.226   1.883 -1.0579  0.1150  0.9645
 6475SOL     OW20002   8.015   9.497   7.579 -0.0390 -1.0322  0.5615
 6475SOL    HW120003   8.049   9.548   7.653 -0.9164  1.8993 -0.9032
 6475SOL    HW220004   8.091   9.479   7.525  0.0654  0.4919  0.1523
 6476SOL     OW20005   4.106   4.728   2.170 -0.2762  0.3699  0.1258
 6476SOL    HW120006   4.041   4.741   2.239 -0.6111 -0.6623  0.0212
 6476SOL    HW220007   4.162   4.805   2.176 -1.3676  1.1737  0.3677
 6477SOL     OW20008   6.206   8.801   9.883 -0.3956  0.0505 -0.0243
 6477SOL    HW120009   6.147   8.730   9.910  0.0367 -0.6926 -0.9885
 6477SOL    HW220010   6.285   8.756   9.851  1.4319  1.0330  2.7461
 6478SOL     OW20011   9.766   9.445   2.365 -0.6073 -0.4343 -0.1690
 6478SOL    HW120012   9.835   9.505   2.336 -0.5678  0.0850  0.9728
 6478SOL    HW220013   9.744   9.395   2.286  0.7010 -0.2476 -0.6791
 6479SOL     OW20014   0.130   9.259   2.288 -0.2211  0.1754 -0.8654
 6479SOL    HW120015   0.159   9.337   2.241 -0.0978 -0.2913 -1.5760
 6479SOL    HW220016   0.101   9.199   2.220 -1.8591  0.2148 -0.2274
 6480SOL     OW20017   0.590   3.523   0.143 -0.0749 -0.0553 -0.0897
 6480SOL    HW120018   0.569   3.567   0.225  2.8321  0.2092  0.6288
 6480SOL    HW220019   0.532   3.563   0.078 -1.6833  0.4826  1.6200
 6481SOL     OW20020   9.931   7.847   4.082  0.0243  0.2070 -0.3973
 6481SOL    HW120021   9.837   7.861   4.084 -0.0672 -0.2028 -1.5914
 6481SOL    HW220022   9.965   7.909   4.148 -1.0724  0.2323  0.1678
 6482SOL     OW20023   8.159   5.706   2.490  0.0908 -0.8658 -0.4595
 6482SOL    HW120024   8.203   5.690   2.573 -0.3380  0.0262 -0.0400
 6482SOL    HW220025   8.067   5.718   2.514  0.3041  1.9134 -0.6868
 6483SOL     OW20026   7.426   1.625   0.909  0.4542 -0.0859 -0.1862
 6483SOL    HW120027   7.496   1.565   0.935 -1.3253 -2.0189  0.4124
 6483SOL    HW220028   7.366   1.625   0.983 -0.1863  1.5738 -0.6663
 6484SOL     OW20029   0.690   3.730   7.867 -0.1606  0.1871  0.2568
 6484SOL    HW120030   0.655   3.650   7.907 -0.1611  0.5482  0.9823
 6484SOL    HW220031   0.626   3.798   7.888 -0.4079  0.2973 -0.7698
 6485SOL     OW20032   2.502   6.663   9.738 -0.2732  0.1998  0.3952
 6485SOL    HW120033   2.577   6.644   9.681 -0.3770 -0.2698  0.4121
 6485SOL    HW220034   2.542   6.696   9.819 -0.0664 -0.3434  0.5210
 6486SOL     OW20035   7.741   7.896   9.732 -0.1627  0.7232  0.3755
 6486SOL    HW120036   7.663   7.951   9.728  0.1204  1.1231  0.2737
 6486SOL    HW220037   7.737   7.843   9.653 -0.4882  0.5289  0.5223
 6487SOL     OW20038   0.631   8.482   3.912  0.0130  0.3178  0.2050
 6487SOL    HW120039   0.663   8.535   3.838  0.1835  1.7494  1.2481
 6487SOL    HW220040   0.638   8.392   3.882 -0.5273  0.8735 -1.7608
 6488SOL     OW20041   6.809   9.771   6.175 -0.2412 -0.3754  0.1874
 6488SOL    HW120042   6.805   9.825   6.254 -2.1307  0.8870 -0.6871
 6488SOL    HW220043   6.793   9.682   6.205 -0.1074 -0.0233  1.3229
 6489SOL     OW20044   5.395   6.546   7.635  0.3791 -0.1945 -0.2703
 6489SOL    HW120045   5.337   6.481   7.674  0.5494 -0.0713  0.2077
 6489SOL    HW220046   5.461   6.561   7.703 -0.5674  1.6867  0.3010
 6490SOL     OW20047   2.319   5.562   5.047  0.2155 -0.3824  0.3669
 6490SOL    HW120048   2.394   5.586   5.101 -0.6600  0.3340  1.3134
 6490SOL    HW220049   2.351   5.492   4.991  1.7746  0.3538  0.2804
 6491SOL     OW20050   9.467   0.896   2.428  0.1574 -0.1055  0.0565
 6491SOL    HW120051   9.505   0.845   2.501 -1.1338 -0.5976  0.4203
 6491SOL    HW220052   9.402   0.837   2.390  0.2802  0.4402 -1.0161
 6492SOL     OW20053   0.230   4.688   8.598 -0.7543 -0.3030 -0.1180
 6492SOL    HW120054   0.145   4.680   8.555 -1.5558 -0.7628  1.4679
 6492SOL    HW220055   0.217   4.755   8.665 -0.4021 -1.5467  1.2608
 6493SOL     OW20056   9.191   9.300   4.006  0.2177 -0.4049  0.0015
 6493SOL    HW120057   9.101   9.273   4.021  0.7658 -2.9480 -0.7582
 6493SOL    HW220058   9.191   9.332   3.915  0.0701 -0.1810  0.0766
 6494SOL     OW20059   9.723   8.983   5.396  0.4306  0.4114  0.1927
 6494SOL    HW120060   9.789   9.051   5.413 -0.4559  1.0511  1.1482
 6494SOL    HW220061   9.755   8.906   5.445  1.3438  0.1682 -0.7493
 6495SOL     OW20062   1.685   6.811   5.915  0.4036 -0.2635 -0.1066
 6495SOL    HW120063   1.738   6.863   5.855  0.6848  2.9535  2.6362
 6495SOL    HW220064   1.600   6.856   5.916  0.7922  0.5396  2.6965
 6496SOL     OW20065   6.574   7.912   8.366 -0.0727  0.2777  0.4358
 6496SOL    HW120066   6.577   7.927   8.460 -1.5203  1.1345  0.3777
 6496SOL    HW220067   6.566   8.000   8.328  1.8296  0.0685 -0.5881
 6497SOL     OW20068   3.601   6.998   7.189  0.0106 -0.1889  0.6761
 6497SOL    HW120069   3.629   6.965   7.275  1.7115  0.6101  0.4715
 6497SOL    HW220070   3.669   6.967   7.129 -0.0034  1.0738 -0.0198
 6498SOL     OW20071   1.651   0.663   6.494 -0.8205 -0.3467 -0.6151
 6498SOL    HW120072   1.591   0.729   6.461  0.6623  0.7173 -1.3233
 6498SOL    HW220073   1.713   0.711   6.549  0.3271 -1.1091 -1.1852
 6499SOL     OW20074   5.573   0.660   3.155  0.0655  0.3090  1.0239
 6499SOL    HW120075   5.509   0.642   3.224 -0.6742 -1.3771 -0.0342
 6499SOL    HW220076   5.544   0.744   3.117  0.3543  1.1351  2.5622
 6500SOL     OW20077   2.810   9.896   5.873 -0.2813 -0.2611  0.5170
 6500SOL    HW120078   2.787   9.830   5.808 -0.4652 -0.6435  0.9640
 6500SOL    HW220079   2.900   9.875   5.898  0.0864  0.3895 -0.2081
 6501SOL     OW20080   1.608   2.068   9.525 -0.1590 -0.4264  0.7851
 6501SOL    HW120081   1.581   2.019   9.603 -0.9419 -1.1897  0.0655
 6501SOL    HW220082   1.532   2.122   9.504  0.3282  0.3440  0.9760
 6502SOL     OW20083   1.409   5.019   9.023  0.8122 -0.0957  0.2637
 6502SOL    HW120084   1.409   5.072   9.102 -0.7797  1.4764 -0.7157
 6502SOL    HW220085   1.377   5.078   8.954 -0.2126 -2.0804 -1.0641
 6503SOL     OW20086   0.317   9.781   4.779 -0.0304  0.2459 -0.0482
 6503SOL    HW120087   0.369   9.818   4.850  2.0862 -1.2919 -0.6697
 6503SOL    HW220088   0.365   9.804   4.699  0.7275 -2.5748 -0.5343
 6504SOL     OW20089   6.545   3.002   3.331  0.4249 -0.3462  0.4891
 6504SOL    HW120090   6.601   3.053   3.389  2.8146 -2.2153 -0.0364
 6504SOL    HW220091   6.544   3.051   3.249  2.1567 -0.7591  0.1934
 6505SOL     OW20092   1.965   4.773   0.436  0.0725 -0.2899  0.3861
 6505SOL    HW120093   2.008   4.779   0.350 -0.7604 -0.4411 -0.0484
 6505SOL    HW220094   1.889   4.717   0.421 -1.3731  1.4720  0.6891
 6506SOL     OW20095   9.037   5.386   0.934  0.3375  0.1844  0.1026
 6506SOL    HW120096   9.108   5.328   0.907  0.6503  0.3489  0.5669
 6506SOL    HW220097   9.012   5.432   0.854  0.6790  0.0514 -0.0821
 6507SOL     OW20098   7.252   2.554   7.048  0.2426 -0.1673  0.6067
 6507SOL    HW120099   7.241   2.549   7.143  0.9071 -1.5938  0.6486
 6507SOL    HW220100   7.295   2.638   7.033 -0.2302  0.2514  1.5204
 6508SOL     OW20101   0.863   2.759   4.891 -0.5780  0.2202 -0.2737
 6508SOL    HW120102   0.900   2.791   4.808 -0.5482  0.1154 -0.3009
 6508SOL    HW220103   0.937   2.756   4.951 -0.4973 -0.2029 -0.3918
 6509SOL     OW20104   2.713   9.761   5.662 -0.5328  0.4383 -0.4421
 6509SOL    HW120105   2.741   9.822   5.594  1.6144  0.9915  0.8199
 6509SOL    HW220106   2.742   9.675   5.631 -1.5799  0.3466 -1.2142
 6510SOL     OW20107   1.442   7.475   0.880  0.2197 -0.2041 -0.5748
 6510SOL    HW120108   1.373   7.523   0.925 -1.0232 -0.2022 -2.4073
 6510SOL    HW220109   1.422   7.483   0.787  1.6261 -1.8062 -1.0856
 6511SOL     OW20110   0.348   2.467   9.156 -0.6322  0.2778 -0.1308
 6511SOL    HW120111   0.281   2.486   9.090 -0.5903 -2.2444 -1.0370
 6511SOL    HW220112   0.413   2.415   9.109  1.0414  1.0884  1.1843
 6512SOL     OW20113   1.883   4.130   0.589 -0.2046  0.0670 -0.3925
 6512SOL    HW120114   1.796   4.163   0.567  0.7026  1.7588 -1.5910
 6512SOL    HW220115   1.920   4.195   0.648  0.2072 -0.7414  0.2740
 6513SOL     OW20116   4.074   4.244   9.034  0.8210 -0.3297  0.5380
 6513SOL    HW120117   4.087   4.334   9.065  1.0506  0.5693 -1.9445
 6513SOL    HW220118   3.989   4.246   8.990  1.4694 -0.9527 -0.7718
 6514SOL     OW20119   6.093   6.090   5.728 -0.3069  0.3423  0.2155
 6514SOL    HW120120   6.098   6.181   5.759  1.2318  0.1048  0.7683
 6514SOL    HW220121   6.132   6.039   5.799 -2.1072 -0.8986  0.3667
 6515SOL     OW20122   8.363   4.445   5.400 -0.1338  0.5907 -0.1171
 6515SOL    HW120123   8.409   4.419   5.320 -0.2708  2.2129 -0.7516
 6515SOL    HW220124   8.328   4.363   5.435  1.0499 -0.3261 -0.9956
 6516SOL     OW20125   3.983   1.020   6.061  0.3606 -0.4680  0.0598
 6516SOL    HW120126   4.065   0.972   6.070  1.0526  0.2382 -1.8720
 6516SOL    HW220127   3.950   1.029   6.150  2.9259  0.1558  1.0388
 6517SOL     OW20128   6.085   9.514   9.535  0.0969 -0.1895  0.6189
 6517SOL    HW120129   6.162   9.551   9.491  0.2082 -0.4299  0.6132
 6517SOL    HW220130   6.105   9.521   9.628  1.7461 -3.5722  0.6570
 6518SOL     OW20131   6.214   1.004   6.586  0.6117 -0.7961 -0.0363
 6518SOL    HW120132   6.149   0.986   6.518 -1.0808  2.1575  0.5912
 6518SOL    HW220133   6.165   0.997   6.668  0.8435  1.9338  0.4311
 6519SOL     OW20134   5.854   8.703   2.341 -0.3032 -0.3784  0.5486
 6519SOL    HW120135   5.946   8.715   2.317 -1.3137  2.2651 -2.7331
 6519SOL    HW220136   5.822   8.635   2.281 -1.0534  0.6579 -0.2639
 6520SOL     OW20137   4.287   9.388   4.374  0.2973 -0.2133 -0.1779
 6520SOL    HW120138   4.370   9.411   4.415 -0.4361  0.7826  0.8130
 6520SOL    HW220139   4.247   9.472   4.353 -0.9796 -0.6307  0.4846
 6521SOL     OW20140   4.581   6.822   7.617 -0.0640 -0.2535 -0.0818
 6521SOL    HW120141   4.663   6.774   7.603 -0.9035 -2.7113  2.5265
 6521SOL    HW220142   4.594   6.869   7.699 -0.3077  1.8044 -1.1509
 6522SOL     OW20143   6.512   9.750   0.965  0.6708  0.8527  0.1213
 6522SOL    HW120144   6.603   9.758   0.938 -0.0527 -1.2848 -3.6256
 6522SOL    HW220145   6.505   9.662   1.001 -0.1412  0.4356 -0.9938
 6523SOL     OW20146   8.132   7.593   7.053 -0.4507  0.3479  0.1658
 6523SOL    HW120147   8.055   7.539   7.073 -1.7608  1.7690 -0.7434
 6523SOL    HW220148   8.157   7.630   7.137 -2.1815  1.5851  0.2011
 6524SOL     OW20149   8.045   5.561   5.457 -0.6564  0.1286  0.1820
 6524SOL    HW120150   8.048   5.491   5.392  0.8513 -0.8101  1.1893
 6524SOL    HW220151   8.119   5.618   5.435 -0.1559 -0.1788  1.0380
 6525SOL     OW20152   7.646   6.502   3.567 -0.5048 -0.1416  0.5237
 6525SOL    HW120153   7.558   6.468   3.582 -0.4260  0.4009  2.4787
 6525SOL    HW220154   7.690   6.491   3.651  1.0350  0.3776 -0.1898
 6526SOL     OW20155   0.870   4.084   3.850  0.3492 -0.0981 -0.1368
 6526SOL    HW120156   0.892   4.019   3.783  1.5470 -1.5914  1.5910
 6526SOL    HW220157   0.953   4.130   3.866 -0.2351  1.1405 -0.5650
 6527SOL     OW20158   8.924   8.717   8.027  0.1309  0.2769  0.0851
 6527SOL    HW120159   9.013   8.697   8.057  0.1294  0.9010  0.5094
 6527SOL    HW220160   8.876   8.741   8.107 -0.5968 -0.6684 -0.0422
 6528SOL     OW20161   8.821   5.863   4.339  0.1306  0.7056 -0.0772
 6528SOL    HW120162   8.810   5.934   4.401  1.3800  1.3204 -0.5322
 6528SOL    HW220163   8.828   5.784   4.394 -1.4920  0.8700  0.4141
 6529SOL     OW20164   4.671   4.569   6.185  0.1145  0.0887  0.2991
 6529SOL    HW120165   4.621   4.603   6.110  0.5328 -0.3997 -0.2076
 6529SOL    HW220166   4.646   4.626   6.258 -0.4102  0.4817 -0.1778
 6530SOL     OW20167   6.272   8.057   5.637 -0.0831 -0.5067 -0.3808
 6530SOL    HW120168   6.349   8.010   5.605  0.9572  1.6091 -1.1559
 6530SOL    HW220169   6.261   8.129   5.575 -2.0474 -0.1195  0.3542
 6531SOL     OW20170   0.624   0.738   3.667  0.4248 -0.6766  0.2735
 6531SOL    HW120171   0.616   0.743   3.762  1.7780 -1.2835  0.4438
 6531SOL    HW220172   0.604   0.647   3.646  0.2961 -0.5857 -0.0008
 6532SOL     OW20173   3.169   3.676   6.966  0.0583 -0.1005  0.4738
 6532SOL    HW120174   3.162   3.722   7.049 -0.4418  0.6610  0.0247
 6532SOL    HW220175   3.099   3.610   6.969 -0.9703  0.9262  0.0632
 6533SOL     OW20176   6.817   1.922   8.172  0.6534 -0.7229 -0.0985
 6533SOL    HW120177   6.894   1.941   8.225 -0.7760 -0.0334  1.8443
 6533SOL    HW220178   6.818   1.990   8.104  1.8035 -0.7923 -0.1716
 6534SOL     OW20179   6.481   2.465   8.076 -0.1042 -0.2207  0.4622
 6534SOL    HW120180   6.410   2.493   8.134  0.6433  2.3491  0.2372
 6534SOL    HW220181   6.458   2.501   7.991 -0.2579 -2.4071 -0.4821
 6535SOL     OW20182   6.958   1.611   0.360 -0.4889 -0.2835 -0.8324
 6535SOL    HW120183   6.920   1.554   0.427 -2.3221  0.1441 -1.4247
 6535SOL    HW220184   6.928   1.699   0.385  1.1507  0.2552 -0.6845
 6536SOL     OW20185   6.304   8.952   1.888  0.0811 -0.1291  0.6175
 6536SOL    HW120186   6.305   8.857   1.900 -0.6773 -0.5037 -1.7612
 6536SOL    HW220187   6.212   8.976   1.892 -0.1383 -0.1076 -2.2186
 6537SOL     OW20188   0.992   1.405   2.743 -0.0771  0.4298  0.0624
 6537SOL    HW120189   1.020   1.313   2.743  0.4025  0.5744  0.0991
 6537SOL    HW220190   1.072   1.455   2.732 -0.4347  0.8278 -0.8076
 6538SOL     OW20191   0.811   1.548   1.155 -0.2064  0.0026 -0.2021
 6538SOL    HW120192   0.841   1.626   1.203 -0.7474 -0.6322  1.2473
 6538SOL    HW220193   0.876   1.481   1.175 -0.0684 -0.0949 -0.9505
 6539SOL     OW20194   8.798   2.484   7.086 -0.2739 -0.0809  0.2028
 6539SOL    HW120195   8.817   2.513   6.997 -1.7753  1.6255  0.3816
 6539SOL    HW220196   8.735   2.413   7.076 -1.3697  0.9067 -0.0914
 6540SOL     OW20197   8.231   4.367   2.975  0.1206 -0.0751 -0.9995
 6540SOL    HW120198   8.305   4.372   2.914 -0.7642  0.4175 -2.0685
 6540SOL    HW220199   8.258   4.422   3.049  1.4205 -1.0842 -0.6932
 6541SOL     OW20200   1.857   4.235   3.540  0.7203 -0.1290 -0.2678
 6541SOL    HW120201   1.887   4.152   3.577 -0.7372 -0.6752 -0.2486
 6541SOL    HW220202   1.853   4.220   3.446  2.5695  0.6518 -0.5132
 6542SOL     OW20203   0.018   5.238   0.554  0.2679 -0.4173 -0.3067
 6542SOL    HW120204  -0.066   5.206   0.586 -0.2574  0.0978 -1.1302
 6542SOL    HW220205   0.069   5.158   0.536  0.0656 -0.7233  0.4631
 6543SOL     OW20206   0.578   1.406   0.369  0.3082  0.0825  0.1741
 6543SOL    HW120207   0.509   1.363   0.319  0.1488  0.0863  0.3925
 6543SOL    HW220208   0.551   1.498   0.374  0.0171 -0.0304  0.7894
 6544SOL     OW20209   4.857   2.148   1.912  0.5472  0.2998  0.1822
 6544SOL    HW120210   4.909   2.225   1.934 -2.1595  1.8584  1.7897
 6544SOL    HW220211   4.778   2.157   1.966 -2.7673 -0.2656 -4.0346
 6545SOL     OW20212   3.833   0.107   1.271 -0.2798 -0.6494  0.4304
 6545SOL    HW120213   3.921   0.140   1.251 -0.0343 -1.4456  0.1645
 6545SOL    HW220214   3.811   0.051   1.196 -0.8878 -0.7017  0.6451
 6546SOL     OW20215   6.937   8.155   2.342  0.4672  0.2223 -0.7440
 6546SOL    HW120216   6.879   8.184   2.412  0.3049 -1.8689  0.0369
 6546SOL    HW220217   6.998   8.228   2.330 -2.6937  2.9141 -2.1810
 6547SOL     OW20218   2.233   4.048   1.785 -0.1688  0.4863  0.1475
 6547SOL    HW120219   2.278   4.132   1.779  0.4348  0.1641  0.0839
 6547SOL    HW220220   2.288   3.995   1.842 -0.0700 -0.1559 -0.5257
 6548SOL     OW20221   3.862   5.708   5.394 -0.2327 -0.1461  0.3202
 6548SOL    HW120222   3.936   5.767   5.393  0.3034 -0.8069  0.2649
 6548SOL    HW220223   3.869   5.659   5.312 -0.8335 -0.0830  0.2251
 6549SOL     OW20224   7.004   2.523   1.365 -0.2913 -0.4648  0.1625
 6549SOL    HW120225   7.016   2.438   1.322 -0.2233 -0.4553  0.1631
 6549SOL    HW220226   7.065   2.522   1.438  0.6373  0.0875 -0.5817
 6550SOL     OW20227   8.109   8.573   3.969  0.1184  0.2689  0.3546
 6550SOL    HW120228   8.090   8.654   3.922  1.1719 -0.0759 -0.6917
 6550SOL    HW220229   8.176   8.598   4.033  0.6651  0.1677 -0.1731
 6551SOL     OW20230   6.045   3.381   1.014 -0.6969  0.1622  0.0431
 6551SOL    HW120231   5.996   3.378   1.095  1.6182 -1.2511  1.4978
 6551SOL    HW220232   6.136   3.395   1.041  0.4550 -2.3183 -2.1100
 6552SOL     OW20233   0.968   3.172   9.466  0.1754 -0.3243  0.0123
 6552SOL    HW120234   1.041   3.232   9.451  0.3377 -0.3301  0.7229
 6552SOL    HW220235   1.003   3.108   9.528 -0.6046  0.0317  0.8482
 6553SOL     OW20236   6.915   6.129   7.143 -0.4574 -0.3354 -0.1914
 6553SOL    HW120237   6.903   6.066   7.072 -1.0651  0.0383 -0.4210
 6553SOL    HW220238   6.915   6.075   7.222 -0.2325 -0.7031 -0.4357
 6554SOL     OW20239   9.468   8.603   2.297  0.6063 -0.5844  0.0519
 6554SOL    HW120240   9.517   8.526   2.268  1.3000 -0.9512  2.0260
 6554SOL    HW220241   9.391   8.568   2.341  0.7472 -0.1545  0.6625
 6555SOL     OW20242   6.557   6.148   4.532  0.1679  0.2665  0.6246
 6555SOL    HW120243   6.543   6.230   4.581  1.3950  0.1217  1.2711
 6555SOL    HW220244   6.582   6.176   4.444  2.2794  0.6819  1.2982
 6556SOL     OW20245   6.241   5.672   3.804 -0.3419  0.3192  0.4452
 6556SOL    HW120246   6.182   5.745   3.783  0.6347  0.9866 -0.0431
 6556SOL    HW220247   6.313   5.712   3.853  0.5618 -0.1846 -0.4311
 6557SOL     OW20248   5.906   4.710   4.686 -0.3223 -0.2373  0.1060
 6557SOL    HW120249   5.884   4.635   4.741 -1.3020 -1.3541 -1.7121
 6557SOL    HW220250   5.978   4.678   4.631 -0.2665  0.3964 -0.1901
 6558SOL     OW20251   0.202   8.319   5.608 -0.3186 -0.5192 -0.6834
 6558SOL    HW120252   0.107   8.323   5.619 -0.4345 -2.6583 -0.6304
 6558SOL    HW220253   0.237   8.366   5.684 -1.3241 -0.0884 -0.4771
 6559SOL     OW20254   6.514   0.094   6.576 -0.2017 -0.0709  0.9048
 6559SOL    HW120255   6.454   0.025   6.605  0.5272 -1.1398 -0.0652
 6559SOL    HW220256   6.524   0.151   6.653  0.2588 -1.8070  2.1833
 6560SOL     OW20257   8.291   1.115   7.083 -0.2065  0.2919 -0.2242
 6560SOL    HW120258   8.376   1.141   7.119 -0.7186  0.4504  0.8778
 6560SOL    HW220259   8.251   1.197   7.054 -0.9409  0.5151  1.3548
 6561SOL     OW20260   3.645   2.934   1.411 -0.1698 -0.3213  0.3408
 6561SOL    HW120261   3.608   3.001   1.354 -0.8418 -0.6788  0.3512
 6561SOL    HW220262   3.651   2.975   1.497 -2.4027 -0.8564  0.8063
 6562SOL     OW20263   3.743   0.318   3.868  0.0965 -0.0382 -0.3444
 6562SOL    HW120264   3.793   0.345   3.791 -0.2856 -0.8381 -0.8852
 6562SOL    HW220265   3.658   0.292   3.833  0.3374 -1.6201  0.1794
 6563SOL     OW20266   0.957   2.419   9.891 -0.0007 -0.1575 -0.4878
 6563SOL    HW120267   1.040   2.437   9.846  0.0029 -0.2609 -0.5226
 6563SOL    HW220268   0.893   2.474   9.847  0.1644  0.3761 -0.0689
 6564SOL     OW20269   7.326   7.960   8.677  0.4495 -0.4399  0.4039
 6564SOL    HW120270   7.274   7.927   8.751  0.0253 -1.5603 -0.3630
 6564SOL    HW220271   7.289   7.916   8.601  0.1993  1.4587 -0.6415
 6565SOL     OW20272   6.809   2.756   1.788 -0.2039 -0.1319 -0.5298
 6565SOL    HW120273   6.891   2.792   1.824 -0.1504 -0.7074 -0.0678
 6565SOL    HW220274   6.815   2.773   1.694 -0.1060  0.9289 -0.3504
 6566SOL     OW20275   6.340   9.734   7.506 -0.0372 -0.0364 -0.3668
 6566SOL    HW120276   6.293   9.691   7.577 -1.1599 -0.4856 -1.3504
 6566SOL    HW220277   6.367   9.662   7.448 -1.5477  0.4941 -1.8079
 6567SOL     OW20278   5.678   4.723   1.693 -0.0073  0.0880 -0.6107
 6567SOL    HW120279   5.667   4.815   1.671  1.0676  0.3254 -0.1882
 6567SOL    HW220280   5.680   4.721   1.789 -0.0237 -0.3700 -0.6176
 6568SOL     OW20281   4.744   9.579   1.036  0.3564  0.4815 -0.1205
 6568SOL    HW120282   4.731   9.507   1.099 -0.3593  1.7346  1.2105
 6568SOL    HW220283   4.716   9.657   1.083 -0.7296  1.4205 -2.1993
 6569SOL     OW20284   0.653   0.113   2.050 -0.1090  0.3994 -0.3888
 6569SOL    HW120285   0.674   0.122   2.142  1.3790  2.8424 -0.8776
 6569SOL    HW220286   0.715   0.049   2.016 -0.1368  0.0937  0.1426
 6570SOL     OW20287   9.530   0.189   1.822  0.2709  0.3526 -0.1695
 6570SOL    HW120288   9.461   0.157   1.763  1.0091  2.1320 -2.1102
 6570SOL    HW220289   9.543   0.280   1.797  0.4169  1.3488  3.0288
 6571SOL     OW20290   4.924   1.646   2.798  0.1488 -0.1453 -0.0138
 6571SOL    HW120291   4.936   1.553   2.815 -2.4011 -0.2098  2.2384
 6571SOL    HW220292   4.968   1.690   2.871  1.0150  0.4208 -0.8569
 6572SOL     OW20293   5.325   1.582   9.095  0.0814  0.4278 -0.0683
 6572SOL    HW120294   5.253   1.631   9.136 -0.5713  0.3790 -1.1271
 6572SOL    HW220295   5.285   1.540   9.019  1.0030 -0.4451 -0.0900
 6573SOL     OW20296   4.586   9.531   2.086  0.1549  0.6792 -0.1986
 6573SOL    HW120297   4.556   9.447   2.119  0.8324 -0.0626 -1.4259
 6573SOL    HW220298   4.677   9.516   2.060 -0.2652  1.2850 -2.1307
 6574SOL     OW20299   9.057   7.036   2.978 -0.0566 -0.1631  0.4084
 6574SOL    HW120300   9.116   7.029   3.053 -1.3214 -0.3996  1.4189
 6574SOL    HW220301   9.114   7.054   2.904  1.2008  0.4426  1.4887
 6575SOL     OW20302   4.313   1.352   0.891  0.5473 -0.3226 -0.1253
 6575SOL    HW120303   4.294   1.267   0.932  0.5187 -1.3061 -2.0265
 6575SOL    HW220304   4.374   1.395   0.950 -0.2581 -1.2087  1.4051
 6576SOL     OW20305   9.059   3.819   5.165  0.7511 -0.3613 -0.8698
 6576SOL    HW120306   8.997   3.880   5.124  0.5684 -0.2402 -0.4151
 6576SOL    HW220307   9.035   3.734   5.129  0.6778 -0.2365 -1.1210
 6577SOL     OW20308   8.679   3.554   9.742  0.1189  0.5242 -0.3589
 6577SOL    HW120309   8.698   3.647   9.734  1.4969  0.2818 -0.1048
 6577SOL    HW220310   8.757   3.510   9.709  1.1276 -0.5469  3.0750
 6578SOL     OW20311   7.564   4.820   9.380  0.3574 -0.1023  0.0196
 6578SOL    HW120312   7.587   4.764   9.306  0.1360  0.5383 -0.5470
 6578SOL    HW220313   7.476   4.852   9.361  0.2039 -0.1091  0.6746
 6579SOL     OW20314   6.090   3.401   3.045 -0.2726  0.1011 -0.1241
 6579SOL    HW120315   6.012   3.389   3.099  0.3310 -1.7234  0.4075
 6579SOL    HW220316   6.107   3.495   3.048 -0.8947  0.2017  1.9573
 6580SOL     OW20317   1.638   5.968   0.809 -0.3645 -0.3041  0.0714
 6580SOL    HW120318   1.659   5.876   0.794 -0.2554 -0.3776  0.6731
 6580SOL    HW220319   1.722   6.011   0.823 -0.5221 -0.4136  1.4451
 6581SOL     OW20320   4.731   2.759   9.075 -0.2153 -0.2325  0.6412
 6581SOL    HW120321   4.783   2.680   9.084 -0.8915 -0.6910  0.5976
 6581SOL    HW220322   4.653   2.731   9.027  0.6829  0.9702 -1.6431
 6582SOL     OW20323   3.485   7.099   2.879  0.0644  0.6360  0.8356
 6582SOL    HW120324   3.419   7.035   2.904 -0.1759  1.1061  1.4139
 6582SOL    HW220325   3.438   7.161   2.824  1.0283 -1.5933 -2.8654
 6583SOL     OW20326   9.910   4.115   3.208 -0.1459  0.0561 -0.0531
 6583SOL    HW120327   9.845   4.161   3.261 -0.0703  0.3532 -0.2136
 6583SOL    HW220328   9.994   4.136   3.250 -0.1082  0.0865 -0.1436
 6584SOL     OW20329   2.682   3.670   3.993  0.2025  0.0613  0.4660
 6584SOL    HW120330   2.776   3.673   3.972  0.3748  0.1757  1.2113
 6584SOL    HW220331   2.675   3.601   4.059 -0.1940  0.2524  0.6238
 6585SOL     OW20332   6.357   3.031   3.642 -0.1920  0.1300 -0.7165
 6585SOL    HW120333   6.324   3.027   3.552  0.9590 -1.1231 -1.1197
 6585SOL    HW220334   6.313   2.959   3.687 -1.3026  1.1890 -0.0512
 6586SOL     OW20335   9.967   7.784   7.587 -0.0739 -0.6172 -0.6338
 6586SOL    HW120336   9.973   7.865   7.536  0.5704 -0.2960 -0.0533
 6586SOL    HW220337   9.880   7.788   7.627 -0.5787 -0.8607 -1.6650
 6587SOL     OW20338   3.874   1.248   9.476  0.0437  0.0816  0.7093
 6587SOL    HW120339   3.875   1.339   9.448 -0.4142 -0.6886 -2.1202
 6587SOL    HW220340   3.785   1.218   9.459  0.2993 -1.0296  1.2176
 6588SOL     OW20341   8.357   6.200   7.239 -0.2468 -0.1483  0.3404
 6588SOL    HW120342   8.284   6.154   7.279 -1.6075  1.2906 -0.3832
 6588SOL    HW220343   8.339   6.197   7.145 -0.9277  2.6326  0.3085
 6589SOL     OW20344   8.039   9.383   5.980  0.3692  0.0278  0.0464
 6589SOL    HW120345   8.084   9.427   6.052  0.6711  1.2302 -0.8339
 6589SOL    HW220346   8.109   9.350   5.923  0.1357 -0.5464  0.0811
 6590SOL     OW20347   1.173   4.152   1.253 -0.1698  0.1549 -0.3999
 6590SOL    HW120348   1.211   4.239   1.245 -0.5723  0.4111  0.4317
 6590SOL    HW220349   1.216   4.101   1.184  0.2675  0.9343 -0.7125
 6591SOL     OW20350   0.843   4.657   3.628 -0.5612  0.5902 -0.2179
 6591SOL    HW120351   0.769   4.609   3.590 -1.2462  1.3104  0.1631
 6591SOL    HW220352   0.815   4.749   3.627  0.0825  0.8070  0.4836
 6592SOL     OW20353   5.531   1.504   3.947 -0.5026  0.6590 -0.1194
 6592SOL    HW120354   5.504   1.516   3.856  0.1204  0.8676 -0.2825
 6592SOL    HW220355   5.458   1.539   3.998 -1.1246 -0.0145 -0.5192
 6593SOL     OW20356   2.186   5.406   2.788  0.0399 -0.3553 -0.0475
 6593SOL    HW120357   2.118   5.345   2.815 -0.5662  0.6717  0.7874
 6593SOL    HW220358   2.191   5.395   2.693 -1.8184  0.0525 -0.2348
 6594SOL     OW20359   5.846   1.386   2.667  0.0816 -0.2312 -0.0590
 6594SOL    HW120360   5.909   1.336   2.616  0.9996 -0.5624  1.3241
 6594SOL    HW220361   5.848   1.346   2.754  0.3130  1.7411  0.9106
 6595SOL     OW20362   2.995   1.059   2.550  0.2056  0.1409 -0.0628
 6595SOL    HW120363   2.913   1.063   2.600  0.5005 -0.2360  0.4586
 6595SOL    HW220364   3.034   0.975   2.575  1.9275  1.3513  1.5834
 6596SOL     OW20365   3.753   1.989   3.095  0.3268 -0.2916 -0.2474
 6596SOL    HW120366   3.778   2.056   3.032  0.5237 -1.1299 -1.0801
 6596SOL    HW220367   3.792   2.018   3.178  0.7480  0.4090 -0.6843
 6597SOL     OW20368   8.717   6.820   6.552  0.4388 -0.2679 -0.5186
 6597SOL    HW120369   8.768   6.803   6.631  0.4667  0.3887 -0.3872
 6597SOL    HW220370   8.642   6.761   6.558 -1.0458  1.6504  1.4062
 6598SOL     OW20371   9.092   6.169   1.963 -0.0410 -0.7912  0.2454
 6598SOL    HW120372   9.150   6.168   2.039 -0.6033  0.8833  0.7549
 6598SOL    HW220373   9.136   6.115   1.898  1.4136 -0.6767  1.0922
 6599SOL     OW20374   3.452   3.995   8.016  0.7802  0.4216  0.2392
 6599SOL    HW120375   3.483   3.912   7.979 -1.3388 -0.3655  0.0916
 6599SOL    HW220376   3.397   3.969   8.090  0.3329  1.6986  0.3738
 6600SOL     OW20377   7.979   6.398   7.769  0.9044 -0.3603 -0.8267
 6600SOL    HW120378   7.884   6.398   7.780  0.9325 -1.1897 -0.5252
 6600SOL    HW220379   8.007   6.480   7.811  0.2234  0.5417 -2.0491
 6601SOL     OW20380   3.712   3.245   1.973  0.3913  0.1741 -0.1707
 6601SOL    HW120381   3.761   3.250   2.055 -2.2415  1.4049  1.4504
 6601SOL    HW220382   3.658   3.166   1.983 -0.1884  0.5171 -0.5659
 6602SOL     OW20383   5.211   1.280   8.848  0.0970 -0.3884 -0.2312
 6602SOL    HW120384   5.281   1.219   8.869  2.0485  1.7178 -0.2765
 6602SOL    HW220385   5.170   1.244   8.769  0.7498 -1.9526  0.1181
 6603SOL     OW20386   9.525   8.906   5.710 -0.1813 -0.6058 -0.2034
 6603SOL    HW120387   9.444   8.896   5.659 -0.4556  4.1217 -1.1591
 6603SOL    HW220388   9.502   8.970   5.778  2.0188 -1.5785  1.5833
 6604SOL     OW20389   0.266   6.719   3.616  0.6282 -0.2544  0.2537
 6604SOL    HW120390   0.254   6.786   3.684 -0.6813 -0.9674  0.7690
 6604SOL    HW220391   0.233   6.759   3.536 -1.3281 -0.6510  0.8004
 6605SOL     OW20392   4.213   8.073   4.445 -0.1608  0.0592  0.7527
 6605SOL    HW120393   4.201   7.986   4.407 -1.3532  0.1534  0.8486
 6605SOL    HW220394   4.300   8.101   4.417  0.2680 -1.1993  0.8039
 6606SOL     OW20395   0.852   6.109   4.930  0.8745 -0.2817  0.1960
 6606SOL    HW120396   0.945   6.099   4.945  1.2321  0.3405 -1.3392
 6606SOL    HW220397   0.845   6.181   4.867 -0.5452 -1.0312 -0.5814
 6607SOL     OW20398   0.301   0.741   6.245  0.5161  0.1792 -0.2401
 6607SOL    HW120399   0.274   0.747   6.153  2.3838  0.4814 -0.8153
 6607SOL    HW220400   0.234   0.789   6.293 -2.2001 -2.4956 -1.0251
 6608SOL     OW20401   5.525   9.552   4.483 -0.1201 -0.1576 -0.2730
 6608SOL    HW120402   5.500   9.497   4.557  1.8017 -1.5012 -0.5573
 6608SOL    HW220403   5.490   9.506   4.406  0.0498 -0.1047 -0.3840
 6609SOL     OW20404   2.157   9.756   6.208  0.3235 -0.4338  0.2905
 6609SOL    HW120405   2.239   9.715   6.234  1.0738  0.5375 -0.4397
 6609SOL    HW220406   2.108   9.686   6.164  2.0924 -0.3554 -2.0478
 6610SOL     OW20407   4.126   8.785   2.424 -0.3435  0.4604 -0.0148
 6610SOL    HW120408   4.210   8.816   2.459 -0.6968  1.8120 -0.3244
 6610SOL    HW220409   4.151   8.722   2.356  0.3719 -0.6416  1.2094
 6611SOL     OW20410   0.259   8.245   3.901  0.0648  0.0127  0.0579
 6611SOL    HW120411   0.308   8.195   3.836  0.0333 -0.2240  0.2126
 6611SOL    HW220412   0.327   8.289   3.953  0.1870 -1.3464  1.0988
 6612SOL     OW20413   8.741   1.141   1.246 -0.5932 -0.6210  0.6066
 6612SOL    HW120414   8.731   1.091   1.327 -1.0869 -2.0163 -0.2709
 6612SOL    HW220415   8.835   1.136   1.226  0.0925  2.2088  2.5443
 6613SOL     OW20416   6.461   4.810   7.396 -0.3597 -0.3183  0.9402
 6613SOL    HW120417   6.500   4.897   7.388 -1.6680  0.4486  2.2767
 6613SOL    HW220418   6.451   4.797   7.490 -1.9014 -1.0982  0.7057
 6614SOL     OW20419   9.158   1.935   4.288  0.9439  0.1477 -0.5403
 6614SOL    HW120420   9.190   1.860   4.338  0.1115 -0.2018 -0.5259
 6614SOL    HW220421   9.238   1.976   4.254  1.3634 -1.5027 -1.6566
 6615SOL     OW20422   5.388   3.904   2.618 -0.4099 -0.1139 -0.1789
 6615SOL    HW120423   5.303   3.935   2.650 -0.0391  1.0561 -0.3056
 6615SOL    HW220424   5.403   3.953   2.538  0.4562 -0.2169 -0.0883
 6616SOL     OW20425   2.218   5.287   6.404 -0.1272 -0.8133  0.6701
 6616SOL    HW120426   2.124   5.271   6.390 -0.1673 -0.9146  1.0403
 6616SOL    HW220427   2.257   5.273   6.318 -0.7106  1.2672  0.0058
 6617SOL     OW20428   8.659   3.434   5.745 -0.6508  0.2754  0.5367
 6617SOL    HW120429   8.635   3.465   5.832  0.0718 -1.1356  1.2686
 6617SOL    HW220430   8.748   3.400   5.755 -1.0640 -1.1847 -0.4151
 6618SOL     OW20431   1.841   5.677   7.282 -0.4553  0.1342 -0.1988
 6618SOL    HW120432   1.890   5.611   7.332  0.4475 -0.2572 -1.5294
 6618SOL    HW220433   1.893   5.757   7.292  0.5168 -0.2801 -1.6075
 6619SOL     OW20434   2.551   8.570   3.341  0.4484  0.1167 -0.1787
 6619SOL    HW120435   2.597   8.579   3.424  1.1161 -1.0795 -0.3933
 6619SOL    HW220436   2.564   8.654   3.297  0.7266  0.4948  0.5985
 6620SOL     OW20437   5.197   9.901   6.330 -0.3803  0.3266 -0.3372
 6620SOL    HW120438   5.235   9.953   6.259 -0.2392  1.3844  0.4982
 6620SOL    HW220439   5.260   9.830   6.344  0.5200  1.1794 -0.0130
 6621SOL     OW20440   9.106   7.783   1.493 -0.3038 -0.3646  0.0347
 6621SOL    HW120441   9.055   7.703   1.491 -0.9308  0.0250  0.2881
 6621SOL    HW220442   9.085   7.823   1.577  0.0979  0.0051 -0.0383
 6622SOL     OW20443   4.093   4.803   5.971  0.2420  0.0689  0.2751
 6622SOL    HW120444   4.186   4.825   5.971  0.7035 -1.7492  0.4914
 6622SOL    HW220445   4.079   4.759   5.887 -0.3918  0.1857  0.3164
 6623SOL     OW20446   4.904   8.531   2.885  0.4654 -0.5642  0.4887
 6623SOL    HW120447   4.835   8.523   2.951  1.5603  0.5143  1.8342
 6623SOL    HW220448   4.962   8.599   2.919  1.5514 -0.5812 -1.1895
 6624SOL     OW20449   4.798   9.236   8.898 -0.1655 -0.2215 -0.6180
 6624SOL    HW120450   4.822   9.214   8.807 -1.2734 -2.7298 -0.3825
 6624SOL    HW220451   4.710   9.200   8.909  0.5042 -1.2774  1.8870
 6625SOL     OW20452   9.681   5.370   3.665 -0.3450  0.3898 -0.3079
 6625SOL    HW120453   9.693   5.417   3.748  0.6495  1.3388 -0.9485
 6625SOL    HW220454   9.606   5.312   3.680 -1.5058  2.0381  0.6064
 6626SOL     OW20455   1.275   4.407   1.709  0.6692  0.4805 -0.0818
 6626SOL    HW120456   1.248   4.498   1.719 -0.0379  0.3431 -0.6819
 6626SOL    HW220457   1.297   4.379   1.798 -1.8617  0.3913  0.6007
 6627SOL     OW20458   1.257   1.393   9.527 -0.5204 -0.2985 -0.8340
 6627SOL    HW120459   1.188   1.381   9.593 -0.1155 -0.0092 -0.3480
 6627SOL    HW220460   1.270   1.488   9.525 -1.0771 -0.2301 -1.9074
 6628SOL     OW20461   4.204   8.443   6.268  0.1633  0.1692  0.7184
 6628SOL    HW120462   4.116   8.457   6.304 -0.6381 -2.5736  0.0061
 6628SOL    HW220463   4.250   8.394   6.336  0.5771  0.0545  0.3567
 6629SOL     OW20464   7.945   1.668   9.455 -0.3581  0.8418  0.2808
 6629SOL    HW120465   7.907   1.721   9.384 -0.2317  2.0745  1.1064
 6629SOL    HW220466   7.943   1.579   9.421  0.4327  1.4794 -1.6169
 6630SOL     OW20467   6.645   5.173   1.644  0.7639 -0.3110 -0.3133
 6630SOL    HW120468   6.560   5.203   1.613  1.0996  2.1727  0.9577
 6630SOL    HW220469   6.697   5.161   1.564  0.1294  1.1092 -0.9804
 6631SOL     OW20470   2.516   8.061   1.696 -0.6020 -0.2443  0.7251
 6631SOL    HW120471   2.423   8.075   1.713 -0.9564  1.6447 -1.9709
 6631SOL    HW220472   2.520   7.983   1.641 -0.6069 -0.2169  0.6858
 6632SOL     OW20473   7.708   5.521   7.779 -0.5961 -0.1603  0.8161
 6632SOL    HW120474   7.722   5.612   7.752 -0.9740 -0.1303  0.7136
 6632SOL    HW220475   7.796   5.483   7.783 -0.4392  0.2005  0.8304
 6633SOL     OW20476   9.057   7.836   4.870 -0.8972 -0.4249 -0.1943
 6633SOL    HW120477   8.964   7.852   4.885 -0.5652  2.4781 -0.6940
 6633SOL    HW220478   9.063   7.810   4.779 -1.2216 -0.7352 -0.1296
 6634SOL     OW20479   1.416   2.832   0.605 -0.2587  0.3581 -0.2673
 6634SOL    HW120480   1.366   2.760   0.567 -0.4445  0.6385 -0.5501
 6634SOL    HW220481   1.435   2.890   0.532 -2.8834  2.2636  0.4530
 6635SOL     OW20482   8.078   3.695   3.804 -0.5790 -0.3420 -0.2239
 6635SOL    HW120483   8.029   3.752   3.864 -0.1972  0.9082 -1.0451
 6635SOL    HW220484   8.157   3.672   3.852 -1.4959 -1.5649  0.7409
 6636SOL     OW20485   0.958   6.983   2.985 -0.1029 -0.2280  0.5984
 6636SOL    HW120486   0.926   6.933   2.909 -0.3041 -0.7950  1.0430
 6636SOL    HW220487   0.976   7.070   2.951 -0.4807 -0.3913 -0.0406
 6637SOL     OW20488   3.127   6.230   0.680  0.0309  0.2075 -0.2601
 6637SOL    HW120489   3.197   6.295   0.670 -1.3712  1.7456 -0.5149
 6637SOL    HW220490   3.047   6.282   0.684 -1.1150 -1.5089 -0.0146
 6638SOL     OW20491   2.643   5.498   7.147  0.4628 -0.0304 -0.5069
 6638SOL    HW120492   2.630   5.576   7.094  1.4236 -0.0059 -0.7233
 6638SOL    HW220493   2.598   5.429   7.100 -1.3664  0.5782  0.2452
 6639SOL     OW20494   3.532   8.414   0.289 -0.0477 -0.1566  0.1415
 6639SOL    HW120495   3.525   8.328   0.247  1.5634 -0.7426  0.9771
 6639SOL    HW220496   3.477   8.407   0.366 -0.8764 -0.0089 -0.4269
 6640SOL     OW20497   5.785   1.737   9.266 -0.5302  0.2699  0.7402
 6640SOL    HW120498   5.824   1.652   9.286 -1.3479 -0.4470 -0.5526
 6640SOL    HW220499   5.701   1.736   9.310 -0.6052  0.3472  0.5987
 6641SOL     OW20500   5.488   5.818   2.413 -0.1759  0.2432 -0.4851
 6641SOL    HW120501   5.579   5.808   2.441 -0.1087 -1.5109 -1.2016
 6641SOL    HW220502   5.491   5.804   2.319 -1.3750 -1.6512 -0.3016
 6642SOL     OW20503   3.082   0.910   2.324  0.0865 -0.1280  0.2735
 6642SOL    HW120504   3.101   0.816   2.325  1.4211  0.0929 -1.0928
 6642SOL    HW220505   2.987   0.915   2.327 -0.1093 -1.6088 -1.4882
 6643SOL     OW20506   2.970   2.059   1.757  0.3691  0.1977 -0.3464
 6643SOL    HW120507   2.953   2.123   1.688  1.9530  0.7522 -0.2633
 6643SOL    HW220508   2.977   1.975   1.711  0.1206  0.3657 -0.6908
 6644SOL     OW20509   9.601   5.789   4.564  0.0244 -0.0070  0.4586
 6644SOL    HW120510   9.618   5.702   4.529 -1.2206  0.0617 -0.3960
 6644SOL    HW220511   9.547   5.773   4.641 -1.7890  0.0348 -0.7358
 6645SOL     OW20512   0.124   9.098   8.287  0.1873  0.2672 -0.3216
 6645SOL    HW120513   0.188   9.070   8.351  2.4309 -0.5010 -2.7221
 6645SOL    HW220514   0.167   9.168   8.238 -3.1710  4.2947  1.8086
 6646SOL     OW20515   4.644   2.311   1.573  0.4572  0.6200 -0.2766
 6646SOL    HW120516   4.590   2.298   1.650 -0.4432  1.5360 -0.7396
 6646SOL    HW220517   4.718   2.363   1.604 -0.0355  1.2117 -0.0782
 6647SOL     OW20518   7.717   5.219   7.798  0.0469 -0.3448  0.0223
 6647SOL    HW120519   7.794   5.163   7.802  1.3680  1.3287 -0.6334
 6647SOL    HW220520   7.728   5.282   7.869  0.1193  0.8538 -0.9930
 6648SOL     OW20521   8.965   4.345   7.409  0.0003  0.3133  0.3525
 6648SOL    HW120522   8.945   4.300   7.327  2.0092 -0.1260  0.0455
 6648SOL    HW220523   8.997   4.276   7.467  1.8495  1.0927  0.3265
 6649SOL     OW20524   0.263   4.821   0.296  0.0406 -0.0848 -0.1140
 6649SOL    HW120525   0.345   4.834   0.248 -0.5317 -0.0532 -1.1307
 6649SOL    HW220526   0.266   4.730   0.325  0.2241 -0.2307 -0.5759
 6650SOL     OW20527   6.950   9.922   2.591  0.3765 -0.3106  0.0414
 6650SOL    HW120528   6.947   9.990   2.659 -0.1374 -1.6878  1.4668
 6650SOL    HW220529   7.042   9.893   2.591  0.9114  1.2211 -1.5014
 6651SOL     OW20530   9.344   4.221   0.517 -0.1032  0.1680 -0.1858
 6651SOL    HW120531   9.259   4.214   0.560 -0.0944  0.8172 -0.0513
 6651SOL    HW220532   9.408   4.202   0.586 -0.1186  0.2720 -0.1440
 6652SOL     OW20533   0.532   3.439   2.808 -0.1674  0.5368  0.6535
 6652SOL    HW120534   0.460   3.407   2.754  1.7740  0.4281 -2.0345
 6652SOL    HW220535   0.495   3.515   2.853 -1.8980  0.6116 -0.7690
 6653SOL     OW20536   3.483   6.127   5.700 -0.3254 -0.1036  0.2041
 6653SOL    HW120537   3.427   6.067   5.748 -0.5549 -0.3370 -0.3381
 6653SOL    HW220538   3.534   6.173   5.767 -0.8762 -0.1771  0.6777
 6654SOL     OW20539   3.226   8.250   7.386  0.0247  0.7754 -0.9806
 6654SOL    HW120540   3.240   8.171   7.438 -0.2637  1.0113 -0.5295
 6654SOL    HW220541   3.302   8.256   7.330  1.3179  1.5508  0.7557
 6655SOL     OW20542   9.820   4.113   0.391 -0.1635  0.0702  0.0700
 6655SOL    HW120543   9.819   4.071   0.478  0.9575 -0.2984 -0.0795
 6655SOL    HW220544   9.741   4.167   0.390 -1.4908 -1.7759  0.3954
 6656SOL     OW20545   4.943   7.018   9.078 -0.2065  0.5877  0.2802
 6656SOL    HW120546   4.982   7.081   9.018  2.2698 -0.4659  0.6791
 6656SOL    HW220547   4.917   6.944   9.022 -4.3607  2.2903 -0.4026
 6657SOL     OW20548   2.233   4.172   1.149 -0.5061 -0.2447 -0.0598
 6657SOL    HW120549   2.201   4.178   1.239  1.2058  1.1922  0.4942
 6657SOL    HW220550   2.310   4.117   1.154 -0.4092 -0.1743 -0.6545
 6658SOL     OW20551   7.525   3.669   8.727 -0.0658  0.4628 -0.1625
 6658SOL    HW120552   7.508   3.749   8.776  1.4913  1.0450 -0.5250
 6658SOL    HW220553   7.606   3.635   8.765 -0.7672 -1.0273  0.0739
 6659SOL     OW20554   4.544   4.276   5.560 -0.2330 -0.4604 -0.1286
 6659SOL    HW120555   4.526   4.236   5.475 -1.2700 -0.2550 -0.0114
 6659SOL    HW220556   4.458   4.288   5.600  0.1926  0.1597  0.6259
 6660SOL     OW20557   3.998   7.534   8.380 -0.0335 -0.7980 -0.4056
 6660SOL    HW120558   3.957   7.455   8.346 -1.5671 -0.2431  0.0664
 6660SOL    HW220559   3.953   7.551   8.462  1.9580 -0.7821  0.7521
 6661SOL     OW20560   2.697   5.440   5.025 -0.7209 -0.8127 -0.6973
 6661SOL    HW120561   2.650   5.360   5.050 -1.4681 -0.2688 -0.3021
 6661SOL    HW220562   2.658   5.464   4.940 -3.3291  1.2178  0.9144
 6662SOL     OW20563   0.012   3.586   6.722 -0.1529 -0.0976 -0.5446
 6662SOL    HW120564  -0.050   3.636   6.775 -1.1464 -2.5243  0.7623
 6662SOL    HW220565   0.074   3.550   6.786 -0.0429 -1.2872 -1.2969
 6663SOL     OW20566   7.646   1.528   8.921 -0.0740 -0.2433 -0.2315
 6663SOL    HW120567   7.672   1.577   9.000  2.8033 -2.3650  0.2897
 6663SOL    HW220568   7.680   1.580   8.849  1.0468 -0.3418  0.2002
 6664SOL     OW20569   1.661   3.931   2.165 -0.1265  0.1139  0.0089
 6664SOL    HW120570   1.601   3.893   2.230 -1.2395  1.8564  0.0895
 6664SOL    HW220571   1.729   3.973   2.217 -1.3901  2.1048  0.1525
 6665SOL     OW20572   4.272   9.585   0.940  0.4679  0.2117  0.1998
 6665SOL    HW120573   4.307   9.664   0.897  0.8972 -0.3535 -0.5076
 6665SOL    HW220574   4.218   9.543   0.873 -1.7835  1.1620  1.3257
 6666SOL     OW20575   6.138   8.082   3.310 -0.3519  0.2316 -0.8731
 6666SOL    HW120576   6.073   8.111   3.374  0.5298 -0.6093  0.4582
 6666SOL    HW220577   6.185   8.162   3.286  0.9240  0.2565  1.4419
 6667SOL     OW20578   1.609   5.755   1.283 -0.3484 -0.4881 -0.0892
 6667SOL    HW120579   1.525   5.717   1.255 -0.5396  1.6098 -2.7652
 6667SOL    HW220580   1.611   5.841   1.241  1.0435  1.6180  3.7781
 6668SOL     OW20581   7.287   0.693   3.609 -0.0612 -0.4204  0.0114
 6668SOL    HW120582   7.321   0.622   3.555  0.0920  0.4719 -1.0936
 6668SOL    HW220583   7.353   0.704   3.678  1.4268  0.5710 -1.4830
 6669SOL     OW20584   3.768   5.654   7.968  0.1810 -0.2047 -0.0790
 6669SOL    HW120585   3.688   5.602   7.969 -0.6413  1.0289  0.5978
 6669SOL    HW220586   3.808   5.639   8.053  0.8327 -1.0384 -0.5214
 6670SOL     OW20587   4.174   6.460   1.839 -0.1793  0.1461 -0.4255
 6670SOL    HW120588   4.192   6.553   1.824 -0.1995  0.5884  1.9576
 6670SOL    HW220589   4.087   6.446   1.801  0.0902  0.9247 -1.3737
 6671SOL     OW20590   7.034   6.042   2.188 -0.0043 -0.0299  0.3691
 6671SOL    HW120591   6.991   6.120   2.153  0.2176  0.8433  1.9173
 6671SOL    HW220592   7.118   6.038   2.142  0.8169  1.8049  1.5613
 6672SOL     OW20593   7.156   0.234   1.740  0.1488 -0.2445 -0.7247
 6672SOL    HW120594   7.117   0.159   1.785  0.7419 -0.9961 -1.4423
 6672SOL    HW220595   7.085   0.270   1.687  0.1686 -1.0496 -1.3160
 6673SOL     OW20596   7.442   6.150   3.149 -0.0832 -0.2565  0.3774
 6673SOL    HW120597   7.508   6.091   3.113  1.0793  0.8866  0.5910
 6673SOL    HW220598   7.476   6.176   3.234 -1.4879 -0.7370  1.1260
 6674SOL     OW20599   7.619   1.526   1.084  0.0180  0.3828  0.5825
 6674SOL    HW120600   7.586   1.533   1.174  0.3986 -0.5317  0.8049
 6674SOL    HW220601   7.679   1.451   1.086  1.1342  1.2179 -0.1108
 6675SOL     OW20602   7.977   9.519   6.465  0.2512 -0.3001  0.0739
 6675SOL    HW120603   8.002   9.604   6.429 -1.2167 -0.2526 -0.8991
 6675SOL    HW220604   7.883   9.514   6.453  0.0540 -1.3646  1.6959
 6676SOL     OW20605   6.368   1.418   0.829  0.1502  0.2141  0.5166
 6676SOL    HW120606   6.457   1.449   0.815  0.4638 -0.5154  0.8579
 6676SOL    HW220607   6.333   1.473   0.899  0.0142  1.0878 -0.2095
 6677SOL     OW20608   8.777   2.175   6.468  1.3922  0.2352 -0.8899
 6677SOL    HW120609   8.781   2.244   6.534 -0.5107 -0.6358  0.2169
 6677SOL    HW220610   8.798   2.095   6.516 -1.5496 -0.6277 -0.8890
 6678SOL     OW20611   3.441   6.396   4.255 -0.2749 -0.0097 -0.2721
 6678SOL    HW120612   3.470   6.306   4.242 -0.5382 -0.1611  0.1803
 6678SOL    HW220613   3.369   6.390   4.317 -0.4775  0.4877 -0.4532
 6679SOL     OW20614   4.750   6.996   4.718  0.4390 -0.3645  0.5469
 6679SOL    HW120615   4.742   6.948   4.801 -0.6413  0.3180  0.8690
 6679SOL    HW220616   4.843   7.015   4.710  0.4546  0.4128  2.1268
 6680SOL     OW20617   5.002   4.906   3.962  0.2738  0.3964  0.1605
 6680SOL    HW120618   5.034   4.913   4.052  0.6501  0.6523  0.0067
 6680SOL    HW220619   4.917   4.950   3.963 -0.0276 -0.1772  0.5417
 6681SOL     OW20620   3.664   9.740   7.012 -0.1725  0.3526  0.7205
 6681SOL    HW120621   3.710   9.747   7.095  0.2522  0.4139  0.4860
 6681SOL    HW220622   3.588   9.798   7.021  0.1402  0.7466  0.8915
 6682SOL     OW20623   9.972   7.624   8.671 -0.3970  0.5309  0.2068
 6682SOL    HW120624   9.965   7.677   8.591 -1.7710  0.6845  0.4019
 6682SOL    HW220625   9.985   7.535   8.639  0.4534  0.7681 -0.1493
 6683SOL     OW20626   7.980   1.388   9.002 -0.1931  0.3238  0.1964
 6683SOL    HW120627   8.004   1.442   8.926  0.6087  0.8340  0.7918
 6683SOL    HW220628   8.047   1.319   9.005  0.1909  0.7090  0.8257
 6684SOL     OW20629   2.560   3.191   5.230 -0.0375 -0.2970  0.2147
 6684SOL    HW120630   2.486   3.196   5.290 -1.1941 -1.6445 -1.0137
 6684SOL    HW220631   2.527   3.227   5.147  1.0701  0.2005 -0.0290
 6685SOL     OW20632   8.691   1.946   6.071 -0.1783 -0.1321  0.0273
 6685SOL    HW120633   8.647   1.893   6.138 -0.8224  1.6308  1.0670
 6685SOL    HW220634   8.715   2.026   6.116 -1.6745  1.6300 -2.1105
 6686SOL     OW20635   7.680   0.447   1.446 -0.0366  0.3237 -0.1270
 6686SOL    HW120636   7.719   0.477   1.528  0.9687 -0.3630 -0.3451
 6686SOL    HW220637   7.684   0.352   1.450  1.1480  0.2758 -1.4753
 6687SOL     OW20638   5.947   3.386   3.642 -0.0674 -0.7545 -0.2384
 6687SOL    HW120639   5.951   3.419   3.731 -1.1864  1.5408 -0.9528
 6687SOL    HW220640   5.862   3.417   3.609  0.8333 -0.4551 -2.4731
 6688SOL     OW20641   6.593   8.477   0.666  0.5225 -0.0279  0.5667
 6688SOL    HW120642   6.585   8.553   0.724 -0.3672  0.2356  0.1255
 6688SOL    HW220643   6.532   8.413   0.703 -1.7109  0.9182 -1.2197
 6689SOL     OW20644   9.729   5.409   6.904  0.1028 -0.0631 -0.0127
 6689SOL    HW120645   9.694   5.350   6.970  1.3640  1.4719  2.1539
 6689SOL    HW220646   9.668   5.401   6.830 -2.1955 -0.8265  1.8417
 6690SOL     OW20647   7.466   4.352   5.550 -0.6628 -0.1941 -0.1450
 6690SOL    HW120648   7.418   4.357   5.467  0.0935  4.3535 -0.5587
 6690SOL    HW220649   7.406   4.389   5.614 -0.2903 -1.2469  0.8304
 6691SOL     OW20650   2.451   2.551   8.719 -0.6029 -0.0655  0.1258
 6691SOL    HW120651   2.433   2.460   8.694  2.3102 -1.1764  1.5190
 6691SOL    HW220652   2.380   2.575   8.778 -2.5224 -0.6496 -1.8383
 6692SOL     OW20653   7.193   4.089   3.754 -0.2723 -0.6126  0.1829
 6692SOL    HW120654   7.285   4.114   3.744  0.2628 -2.2118  0.7198
 6692SOL    HW220655   7.144   4.166   3.725  1.2227  0.1866 -0.3586
 6693SOL     OW20656   2.961   3.465   7.090 -0.0601 -0.0666  0.1493
 6693SOL    HW120657   2.885   3.449   7.033 -0.5991 -0.4192  0.9428
 6693SOL    HW220658   2.928   3.525   7.157  0.7678  0.9255 -0.3067
 6694SOL     OW20659   9.223   0.612   0.002 -0.4721  0.1527  0.3920
 6694SOL    HW120660   9.175   0.530   0.014 -0.1861 -0.1338 -0.3504
 6694SOL    HW220661   9.292   0.609   0.069  0.1297 -0.6713 -0.2507
 6695SOL     OW20662   7.888   2.249   5.776 -0.6373  0.0819 -0.7738
 6695SOL    HW120663   7.901   2.165   5.733  0.3172 -0.4764  0.5328
 6695SOL    HW220664   7.932   2.312   5.720  0.7770 -0.6638 -0.5375
 6696SOL     OW20665   8.622   5.457   7.261 -0.6329 -0.3799  0.6161
 6696SOL    HW120666   8.625   5.484   7.169  1.4120 -0.7309  0.5405
 6696SOL    HW220667   8.550   5.507   7.298 -0.0888  1.4443 -0.6660
 6697SOL     OW20668   1.524   0.949   3.343  0.2640  0.3833 -0.4416
 6697SOL    HW120669   1.442   0.933   3.391 -0.3390  2.0502 -0.8449
 6697SOL    HW220670   1.589   0.894   3.387 -1.5540 -3.1402 -1.7472
 6698SOL     OW20671   7.814   1.157   7.543  0.4864 -0.5865  0.1743
 6698SOL    HW120672   7.768   1.176   7.461  0.3619 -1.3349  0.0675
 6698SOL    HW220673   7.862   1.076   7.525  0.0133 -1.0608  1.0167
 6699SOL     OW20674   7.362   7.011   8.521 -0.1681  0.4683 -0.3012
 6699SOL    HW120675   7.404   7.006   8.606 -0.6387 -2.7713 -0.1405
 6699SOL    HW220676   7.275   7.048   8.538 -0.0297  0.4167  0.5225
 6700SOL     OW20677   3.083   0.200   2.099 -0.1104  0.5111 -0.1252
 6700SOL    HW120678   3.000   0.247   2.108 -0.4605 -0.2197  0.7113
 6700SOL    HW220679   3.136   0.254   2.041 -1.0306  1.1890 -0.3519
 6701SOL     OW20680   5.186   8.428   8.689 -0.1816  0.0394 -0.2555
 6701SOL    HW120681   5.161   8.347   8.733  0.8915 -0.1078  0.1146
 6701SOL    HW220682   5.159   8.414   8.598 -1.0878 -0.2408  0.0425
 6702SOL     OW20683   4.661   7.125   2.495  0.0457  0.4461  0.1037
 6702SOL    HW120684   4.682   7.159   2.582  0.8120  1.8035 -0.5846
 6702SOL    HW220685   4.643   7.032   2.509  0.0890  0.6626  1.7160
 6703SOL     OW20686   4.860   2.426   1.629 -0.1163 -0.3903 -0.6964
 6703SOL    HW120687   4.854   2.515   1.596  0.2040  0.0791  0.4713
 6703SOL    HW220688   4.955   2.409   1.633 -0.1352 -0.3353  0.2063
 6704SOL     OW20689   5.857   4.507   6.588  0.5572 -0.5634 -0.0452
 6704SOL    HW120690   5.858   4.557   6.670  0.3768 -0.8089  0.1073
 6704SOL    HW220691   5.839   4.417   6.615  0.8219 -0.7040 -0.3238
 6705SOL     OW20692   3.672   5.866   4.138  0.2937 -0.2593 -0.5832
 6705SOL    HW120693   3.687   5.872   4.044 -0.1192  2.2394 -0.5536
 6705SOL    HW220694   3.626   5.783   4.150  1.2036 -1.0775 -2.4493
 6706SOL     OW20695   3.680   3.839   8.959  0.3363 -0.0093  0.1959
 6706SOL    HW120696   3.672   3.899   8.885 -0.0994 -2.5403 -1.9237
 6706SOL    HW220697   3.719   3.760   8.923 -0.8996 -1.7600  2.4244
 6707SOL     OW20698   8.034   3.384   5.963 -0.2750  0.4035 -0.1560
 6707SOL    HW120699   8.043   3.289   5.953 -1.3096  0.4181 -1.5812
 6707SOL    HW220700   7.968   3.408   5.898  0.1634  2.1453  0.0060
 6708SOL     OW20701   6.108   9.055   9.134  0.0028  0.0648 -0.1546
 6708SOL    HW120702   6.190   9.055   9.084  0.6274  2.5735  0.7197
 6708SOL    HW220703   6.075   9.144   9.126 -3.1099 -1.0395 -1.0966
 6709SOL     OW20704   8.728   7.599   7.012  0.2158  0.0742 -0.4323
 6709SOL    HW120705   8.759   7.530   7.070 -0.6579 -0.7265 -0.9013
 6709SOL    HW220706   8.648   7.632   7.053  0.4401  0.5797 -0.3909
 6710SOL     OW20707   2.526   8.638   0.907 -0.1156  0.3303 -0.1267
 6710SOL    HW120708   2.515   8.654   1.001  1.4050 -3.1280  0.7885
 6710SOL    HW220709   2.620   8.645   0.893 -0.0493 -1.6278 -0.8240
 6711SOL     OW20710   6.142   9.716   8.964  0.1767  0.0459  0.5204
 6711SOL    HW120711   6.128   9.641   9.022 -0.1171  0.4836  1.0308
 6711SOL    HW220712   6.172   9.678   8.882  0.5161 -0.5973  0.9344
 6712SOL     OW20713   9.433   8.149   5.054  0.1974 -0.5321 -0.1499
 6712SOL    HW120714   9.459   8.091   4.982 -2.9121 -0.7593 -1.2313
 6712SOL    HW220715   9.515   8.188   5.083  1.8899 -2.2536 -2.2107
 6713SOL     OW20716   8.020   9.066   1.893  0.4543  0.2588 -0.1020
 6713SOL    HW120717   8.072   8.988   1.875  0.5474  0.4029 -0.4686
 6713SOL    HW220718   8.034   9.083   1.986 -0.5172 -0.8515  0.2726
 6714SOL     OW20719   3.975   8.493   5.305 -0.1149 -0.4940  0.4825
 6714SOL    HW120720   3.955   8.457   5.391 -1.2201  0.2319  0.5534
 6714SOL    HW220721   3.926   8.576   5.302 -0.3119 -0.6398 -0.9394
 6715SOL     OW20722   5.492   9.546   8.935 -0.8747 -0.0905  0.3617
 6715SOL    HW120723   5.478   9.587   8.850  2.0508  0.7753  0.1996
 6715SOL    HW220724   5.496   9.620   8.997 -0.9940 -0.5650  0.9470
 6716SOL     OW20725   6.303   9.306   9.850 -0.1205  0.1678 -0.1575
 6716SOL    HW120726   6.261   9.232   9.807 -0.9317 -0.3632  1.4666
 6716SOL    HW220727   6.332   9.271   9.935 -1.7650  1.9857  1.2627
 6717SOL     OW20728   1.516   8.948   6.944 -0.1440  0.4189 -0.0239
 6717SOL    HW120729   1.548   9.034   6.974 -0.1491 -0.1880  1.8212
 6717SOL    HW220730   1.450   8.923   7.008 -1.5007 -0.1540 -1.5877
 6718SOL     OW20731   5.812   8.438   7.468 -0.1606 -0.4982 -0.0316
 6718SOL    HW120732   5.740   8.419   7.408  0.2813  0.8486 -1.0236
 6718SOL    HW220733   5.887   8.393   7.431  0.1070  0.3122 -0.4893
 6719SOL     OW20734   3.160   8.660   8.573  0.0552 -0.2762  0.1929
 6719SOL    HW120735   3.171   8.578   8.621 -0.3651  0.7403  2.1367
 6719SOL    HW220736   3.198   8.726   8.630  0.1665  0.9324 -1.2274
 6720SOL     OW20737   4.144   4.282   0.101  0.2631  0.0846 -0.2885
 6720SOL    HW120738   4.150   4.217   0.031 -1.6860 -1.1965  0.6425
 6720SOL    HW220739   4.118   4.363   0.057  0.4157 -0.3452 -1.1895
 6721SOL     OW20740   3.194   0.237   1.349 -0.2225 -0.1052 -0.5692
 6721SOL    HW120741   3.158   0.326   1.359  0.2550 -0.0297  0.6258
 6721SOL    HW220742   3.282   0.251   1.312  0.4858  0.0531  1.0970
 6722SOL     OW20743   0.232   9.465   4.334 -0.3040  0.4535 -0.4631
 6722SOL    HW120744   0.157   9.480   4.391 -0.4136 -0.9868 -0.1896
 6722SOL    HW220745   0.203   9.396   4.274  1.2687 -1.2172  0.6176
 6723SOL     OW20746   8.818   0.574   4.658  0.0553  0.1866  0.2840
 6723SOL    HW120747   8.875   0.504   4.626 -0.9474 -0.4756 -0.0869
 6723SOL    HW220748   8.738   0.530   4.684 -2.0145  1.4614 -3.1748
 6724SOL     OW20749   1.137   1.171   5.493 -0.1613  0.3503 -0.2327
 6724SOL    HW120750   1.227   1.149   5.472 -0.7369 -0.7974 -1.7312
 6724SOL    HW220751   1.085   1.104   5.448 -1.7287  0.3454  1.4581
 6725SOL     OW20752   3.620   9.109   4.938 -0.1127  0.3464  0.6324
 6725SOL    HW120753   3.536   9.103   4.892 -0.1612  1.1038  0.6053
 6725SOL    HW220754   3.616   9.040   5.004 -0.1691 -0.5600 -0.2911
 6726SOL     OW20755   1.812   7.192   6.508  0.7498  0.6537 -0.9504
 6726SOL    HW120756   1.907   7.180   6.514  0.8638  0.9591 -1.9988
 6726SOL    HW220757   1.788   7.158   6.422 -0.1904  0.0295 -0.4591
 6727SOL     OW20758   1.103   7.891   1.881 -0.2805  0.2296  0.0157
 6727SOL    HW120759   1.148   7.939   1.951  0.0381 -1.0842  0.7459
 6727SOL    HW220760   1.027   7.945   1.860  0.6412  1.5775  0.0514
 6728SOL     OW20761   8.391   5.989   9.764  0.0063  0.0287  0.0134
 6728SOL    HW120762   8.471   6.007   9.716  0.1646  0.9614  0.5991
 6728SOL    HW220763   8.420   5.970   9.853 -0.2859 -1.6369 -0.2093
 6729SOL     OW20764   4.560   1.131   7.816 -0.7294  0.0416 -0.0278
 6729SOL    HW120765   4.564   1.208   7.759 -2.3924  0.0903 -0.1323
 6729SOL    HW220766   4.515   1.162   7.894 -0.7445 -0.6510  0.2369
 6730SOL     OW20767   5.598   9.334   5.885  0.2940  0.2235 -0.3662
 6730SOL    HW120768   5.547   9.254   5.870  1.8672 -0.9810  0.4616
 6730SOL    HW220769   5.542   9.404   5.851 -1.9382 -1.0045  0.5053
 6731SOL     OW20770   9.666   2.775   1.633  0.5959  0.0308 -0.3343
 6731SOL    HW120771   9.634   2.863   1.648  0.2942 -0.1750  0.2544
 6731SOL    HW220772   9.590   2.727   1.599  1.2000  0.4302 -2.4027
 6732SOL     OW20773   7.584   3.607   2.605 -0.7647 -0.3728 -0.3030
 6732SOL    HW120774   7.592   3.610   2.701 -0.0693  0.1337 -0.3701
 6732SOL    HW220775   7.666   3.570   2.575 -0.5622  0.4184 -0.7549
 6733SOL     OW20776   9.171   1.862   5.238  0.1810  0.2192  0.5158
 6733SOL    HW120777   9.225   1.803   5.186  0.1703  1.8182 -1.4616
 6733SOL    HW220778   9.082   1.850   5.204 -0.3578 -0.7698  2.1935
 6734SOL     OW20779   6.014   9.566   3.359  0.1891  0.1742 -0.4627
 6734SOL    HW120780   6.106   9.558   3.385  0.0222  1.1049  0.4718
 6734SOL    HW220781   6.017   9.582   3.264  1.0713  1.3387 -0.2669
 6735SOL     OW20782   3.383   3.442   8.291 -0.2922  0.0969 -0.2382
 6735SOL    HW120783   3.413   3.364   8.338 -0.7221  0.4280  0.6042
 6735SOL    HW220784   3.460   3.472   8.243 -0.6128 -2.0603 -2.3377
 6736SOL     OW20785   8.095   8.408   9.358 -0.0001 -0.3932 -0.1899
 6736SOL    HW120786   8.133   8.492   9.332  0.9719 -0.5267  0.7116
 6736SOL    HW220787   8.170   8.357   9.390 -0.7699 -1.0973  0.5398
 6737SOL     OW20788   0.138   9.233   4.211 -0.5425  0.1078  0.0049
 6737SOL    HW120789   0.185   9.167   4.261 -0.1937  0.5179  0.2319
 6737SOL    HW220790   0.046   9.207   4.216 -0.9206  1.4988  3.0960
 6738SOL     OW20791   6.843   6.964   0.454  0.0556  0.2918 -0.3692
 6738SOL    HW120792   6.748   6.967   0.469 -0.4213  3.4344 -2.7958
 6738SOL    HW220793   6.881   6.987   0.539 -1.3655 -0.2301  0.4542
 6739SOL     OW20794   8.351   7.485   4.272 -0.2028  0.1828 -0.3785
 6739SOL    HW120795   8.281   7.452   4.328 -0.5014  1.4123  0.0212
 6739SOL    HW220796   8.388   7.407   4.231 -0.5573 -0.6738  0.8584
 6740SOL     OW20797   1.371   3.554   9.032  0.1137 -0.0331 -0.0416
 6740SOL    HW120798   1.422   3.634   9.020  2.1816 -1.5231 -2.4524
 6740SOL    HW220799   1.412   3.491   8.972 -2.5034 -2.3947  0.4414
 6741SOL     OW20800   5.672   1.005   7.868 -0.4960 -0.1976  0.3451
 6741SOL    HW120801   5.606   1.049   7.813 -0.4992  1.0051  1.2792
 6741SOL    HW220802   5.736   0.972   7.806 -1.2207 -0.1031 -0.4831
 6742SOL     OW20803   8.006   6.930   4.531  0.3993  0.4143  0.4699
 6742SOL    HW120804   7.974   6.918   4.442  3.3754 -0.6166 -0.5919
 6742SOL    HW220805   8.012   6.841   4.566  1.1301  0.6536  0.9688
 6743SOL     OW20806   8.068   1.923   0.130  0.1904 -0.3832  0.1539
 6743SOL    HW120807   8.106   1.911   0.043 -0.6132 -0.9651 -0.1331
 6743SOL    HW220808   8.112   1.859   0.185 -1.1168 -1.8683 -0.4320
 6744SOL     OW20809   0.414   4.139   9.873  1.0042  0.3636 -0.3523
 6744SOL    HW120810   0.476   4.152   9.800  2.4586 -1.7856  0.3919
 6744SOL    HW220811   0.331   4.121   9.830  1.8260 -0.8148 -1.5405
 6745SOL     OW20812   5.530   3.917   7.902  0.0171  0.1379 -0.0780
 6745SOL    HW120813   5.603   3.882   7.954  0.7659  0.0560 -1.1602
 6745SOL    HW220814   5.537   4.012   7.912 -1.2316  0.0874  1.7995
 6746SOL     OW20815   1.418   3.047   7.677 -0.0222 -0.0755 -0.2795
 6746SOL    HW120816   1.458   2.963   7.652 -0.0364 -0.5705  1.2548
 6746SOL    HW220817   1.354   3.064   7.608 -1.3492 -2.2984  0.3021
 6747SOL     OW20818   2.200   7.204   5.998 -0.5532  0.0225  0.0882
 6747SOL    HW120819   2.266   7.145   6.033 -0.2252  0.6386  0.5181
 6747SOL    HW220820   2.150   7.232   6.075 -2.8952 -2.2649 -0.4156
 6748SOL     OW20821   7.976   8.613   1.378  0.6384 -0.0095  0.1238
 6748SOL    HW120822   7.887   8.646   1.391  0.7640  0.1794  0.5079
 6748SOL    HW220823   7.964   8.532   1.329  0.1879 -0.5126  1.0360
 6749SOL     OW20824   0.067   3.725   4.543 -0.3339 -0.0931  0.3584
 6749SOL    HW120825   0.141   3.764   4.589  0.9874 -0.0966 -1.6537
 6749SOL    HW220826   0.034   3.658   4.603  0.5914  0.6353  1.7339
 6750SOL     OW20827   8.382   0.799   4.457 -0.5708 -0.1123 -0.7993
 6750SOL    HW120828   8.323   0.873   4.440 -0.0064  0.1079 -1.8745
 6750SOL    HW220829   8.435   0.792   4.378  1.7054  0.4848  0.5803
 6751SOL     OW20830   8.178   2.965   5.123 -0.2065  0.6474  0.4069
 6751SOL    HW120831   8.132   3.031   5.176 -0.0739  1.9259 -1.0124
 6751SOL    HW220832   8.240   3.015   5.070  0.7328 -0.7517  0.1190
 6752SOL     OW20833   0.310   7.556   5.684 -0.3324 -0.5987 -0.3449
 6752SOL    HW120834   0.355   7.472   5.678 -0.8414 -0.8208 -1.2741
 6752SOL    HW220835   0.381   7.621   5.687  0.0602 -1.0027 -0.7324
 6753SOL     OW20836   1.179   1.403   4.893 -0.0739 -0.5516  0.4654
 6753SOL    HW120837   1.188   1.350   4.972  0.3405 -1.2469 -0.0368
 6753SOL    HW220838   1.232   1.481   4.910  0.5779 -1.0172  0.6074
 6754SOL     OW20839   8.068   3.405   7.821  0.1389  0.2429 -0.6706
 6754SOL    HW120840   7.989   3.440   7.861  0.2399  1.8531 -1.7976
 6754SOL    HW220841   8.098   3.474   7.762  2.0945 -0.5379 -0.6700
 6755SOL     OW20842   4.806   5.532   8.237  0.1179 -0.4629 -0.6149
 6755SOL    HW120843   4.712   5.538   8.251  0.0806 -0.7980 -0.7137
 6755SOL    HW220844   4.819   5.570   8.150  0.4024  2.0195  0.4280
 6756SOL     OW20845   9.935   8.641   6.507  0.2486 -0.0210 -0.4727
 6756SOL    HW120846   9.882   8.624   6.429  1.2197 -1.3902 -0.8774
 6756SOL    HW220847   9.966   8.555   6.535  0.0139  0.4514  1.3870
 6757SOL     OW20848   2.167   1.045   8.778 -0.1141  0.1606 -0.5521
 6757SOL    HW120849   2.177   1.008   8.866 -1.4307  0.6240 -0.1784
 6757SOL    HW220850   2.219   0.988   8.722 -0.6595 -1.1867  0.2718
 6758SOL     OW20851   2.083   7.813   1.165 -0.2532  0.1210  0.0490
 6758SOL    HW120852   2.100   7.907   1.156 -1.0033  0.3539  0.8749
 6758SOL    HW220853   2.109   7.776   1.081  0.9642  0.9254  0.0388
 6759SOL     OW20854   5.051   8.884   2.439 -0.5156  0.1007  0.6802
 6759SOL    HW120855   5.035   8.953   2.503 -1.3830  1.1167 -0.5964
 6759SOL    HW220856   4.968   8.837   2.433 -0.0499 -0.8361  1.2384
 6760SOL     OW20857   5.977   8.711   6.790 -0.2430  0.5370  0.0027
 6760SOL    HW120858   6.019   8.779   6.738 -1.4414  0.9880 -0.3930
 6760SOL    HW220859   5.934   8.654   6.725  1.6037 -1.2455  0.2313
 6761SOL     OW20860   8.084   8.102   8.930  0.2471 -0.2328 -0.3093
 6761SOL    HW120861   8.108   8.092   9.022  0.8166  2.1081 -0.1437
 6761SOL    HW220862   8.157   8.149   8.891 -0.9545  0.7979 -1.4268
 6762SOL     OW20863   4.583   8.552   3.352 -0.1241 -0.3561  0.0828
 6762SOL    HW120864   4.557   8.462   3.333  0.0014 -0.1035 -1.4086
 6762SOL    HW220865   4.519   8.605   3.305  1.4940  0.2971 -1.4809
 6763SOL     OW20866   7.278   8.579   0.760  0.5810 -0.2082 -0.4042
 6763SOL    HW120867   7.347   8.635   0.724  0.4590  0.0918 -0.1742
 6763SOL    HW220868   7.199   8.633   0.758  0.5588 -0.2138  0.2553
 6764SOL     OW20869   8.716   2.796   5.365 -0.1596 -0.3706 -0.4159
 6764SOL    HW120870   8.802   2.821   5.399  0.9628 -1.7647 -2.0363
 6764SOL    HW220871   8.721   2.815   5.271 -1.1594 -1.6104 -0.7483
 6765SOL     OW20872   1.257   3.178   0.799  0.4524 -0.3140 -0.4530
 6765SOL    HW120873   1.321   3.177   0.728  1.0902 -0.6424  0.1200
 6765SOL    HW220874   1.253   3.087   0.829 -2.1817 -0.8609 -2.1491
 6766SOL     OW20875   8.697   0.167   2.298  0.1259  0.5342 -0.3926
 6766SOL    HW120876   8.788   0.155   2.272  0.1123  2.0206 -1.2472
 6766SOL    HW220877   8.648   0.111   2.238  0.4557 -0.1185 -0.0593
 6767SOL     OW20878   8.229   9.418   6.412  0.8937 -0.3827 -0.6392
 6767SOL    HW120879   8.284   9.462   6.476 -0.5609 -0.2084  0.5362
 6767SOL    HW220880   8.142   9.457   6.424  0.0847 -1.9626 -1.1284
 6768SOL     OW20881   4.557   5.606   7.805 -0.2810  0.9368 -0.3082
 6768SOL    HW120882   4.592   5.677   7.860 -1.6618  1.4076 -0.0108
 6768SOL    HW220883   4.632   5.549   7.790  0.6666  2.0175  0.1486
 6769SOL     OW20884   8.570   6.888   1.415  0.4723  0.4093 -0.3737
 6769SOL    HW120885   8.557   6.983   1.412 -2.0738  0.0935 -1.0291
 6769SOL    HW220886   8.510   6.858   1.482  3.1211 -0.5608  1.7435
 6770SOL     OW20887   5.160   5.512   0.642  0.1347  0.6946 -0.0832
 6770SOL    HW120888   5.139   5.465   0.723  1.1008 -0.4433 -0.4534
 6770SOL    HW220889   5.186   5.599   0.670  1.8671 -0.1009  1.0131
 6771SOL     OW20890   9.466   1.505   3.610  0.2094  0.7042  0.0944
 6771SOL    HW120891   9.543   1.467   3.652  0.4522  1.4937  0.3767
 6771SOL    HW220892   9.391   1.466   3.655  0.4453  0.3031  0.1437
 6772SOL     OW20893   9.853   3.005   0.136  0.7395  0.0657  1.0385
 6772SOL    HW120894   9.830   3.088   0.096  1.2856  0.1743  0.9386
 6772SOL    HW220895   9.838   2.940   0.067  1.6557  0.2498  0.6533
 6773SOL     OW20896   8.853   6.648   1.880 -0.1174  0.1981  0.5140
 6773SOL    HW120897   8.904   6.624   1.803  1.3398  0.6016  1.3158
 6773SOL    HW220898   8.902   6.610   1.954 -0.8247  0.8329  1.3345
 6774SOL     OW20899   9.062   5.222   6.886  0.2920 -0.0787  0.5404
 6774SOL    HW120900   9.083   5.288   6.953  0.9472 -0.0112  0.2757
 6774SOL    HW220901   8.994   5.168   6.927  0.8172 -0.1570  1.3386
 6775SOL     OW20902   1.326   2.232   8.987 -0.0226 -0.4548  0.4660
 6775SOL    HW120903   1.294   2.145   8.961  1.8005 -0.9695 -0.2006
 6775SOL    HW220904   1.419   2.219   9.004 -0.0837  1.0015  2.2274
 6776SOL     OW20905   6.673   5.647   7.124 -0.3212  0.5818  0.5529
 6776SOL    HW120906   6.709   5.624   7.209  0.2149 -0.9736 -0.0617
 6776SOL    HW220907   6.593   5.697   7.144  0.4591  1.3294  1.9349
 6777SOL     OW20908   3.264   6.892   8.190 -0.3611  0.1104  0.1570
 6777SOL    HW120909   3.208   6.935   8.255 -0.0312 -0.3120  0.7299
 6777SOL    HW220910   3.341   6.863   8.240 -0.8824 -1.7509 -0.0514
 6778SOL     OW20911   1.313   8.816   8.863  0.4995 -0.4734  0.2989
 6778SOL    HW120912   1.287   8.824   8.771  1.2930  0.0587  0.1143
 6778SOL    HW220913   1.343   8.725   8.871 -2.7447 -1.6489  0.8997
 6779SOL     OW20914   9.580   0.068   8.725 -0.0279 -0.1068 -0.1735
 6779SOL    HW120915   9.673   0.048   8.737  0.4766  1.2392 -1.5903
 6779SOL    HW220916   9.573   0.095   8.634 -1.5054  1.4436  0.3622
 6780SOL     OW20917   2.424   6.875   0.966  0.1362 -0.5049 -0.0804
 6780SOL    HW120918   2.405   6.798   1.019  2.0268  0.2950  1.9160
 6780SOL    HW220919   2.517   6.870   0.948  0.0670  0.7331 -0.9019
 6781SOL     OW20920   2.580   4.348   4.251 -0.3002  0.1144 -0.5125
 6781SOL    HW120921   2.640   4.323   4.321 -0.9851 -0.1602 -0.0111
 6781SOL    HW220922   2.540   4.266   4.222 -0.1920  0.2530 -1.0764
 6782SOL     OW20923   8.995   6.651   9.695 -0.2995  0.3947  0.3377
 6782SOL    HW120924   8.968   6.630   9.606  0.1670 -2.7065  0.7996
 6782SOL    HW220925   9.088   6.671   9.688 -0.2064 -0.0855  0.1223
 6783SOL     OW20926   8.350   5.892   1.821 -0.0178  0.1770 -0.0315
 6783SOL    HW120927   8.411   5.948   1.773  1.1202 -0.8424  0.1640
 6783SOL    HW220928   8.401   5.813   1.840 -0.5812  0.3330  2.4067
 6784SOL     OW20929   2.575   4.075   5.658 -0.5246  0.2284 -0.1526
 6784SOL    HW120930   2.552   4.088   5.566 -0.0250 -1.5347 -0.5645
 6784SOL    HW220931   2.521   4.000   5.685  1.5552 -1.2553  0.0769
 6785SOL     OW20932   9.116   2.448   3.659  0.3169 -0.5193  0.2652
 6785SOL    HW120933   9.036   2.421   3.704  0.9787 -0.4082  1.5597
 6785SOL    HW220934   9.116   2.544   3.665  0.6730 -0.5314  0.5099
 6786SOL     OW20935   9.801   1.348   7.689 -0.1175  0.3746  0.0002
 6786SOL    HW120936   9.828   1.295   7.614 -0.9672  0.3955 -0.3270
 6786SOL    HW220937   9.743   1.414   7.652  2.2662  2.7016  0.1121
 6787SOL     OW20938   8.588   6.087   8.144  0.7957 -0.0967 -0.0000
 6787SOL    HW120939   8.656   6.089   8.077  0.6051 -0.8125 -0.2302
 6787SOL    HW220940   8.517   6.142   8.109  0.4933 -0.8575 -0.6274
 6788SOL     OW20941   1.883   0.855   8.900  0.1928 -0.2557 -0.6538
 6788SOL    HW120942   1.804   0.810   8.869 -0.7278  0.3805  0.6682
 6788SOL    HW220943   1.930   0.789   8.950 -0.1215 -0.3130 -0.4298
 6789SOL     OW20944   7.425   5.909   2.444 -0.7025 -0.3548 -0.4759
 6789SOL    HW120945   7.504   5.904   2.497 -0.7516 -1.5644 -0.4994
 6789SOL    HW220946   7.357   5.939   2.505 -0.2322  0.7745 -0.4763
 6790SOL     OW20947   5.949   0.742   7.335 -0.1360  0.3449  0.0616
 6790SOL    HW120948   5.982   0.659   7.370  0.6076  0.4899 -0.2925
 6790SOL    HW220949   5.910   0.718   7.251 -0.4353  0.2664  0.2200
 6791SOL     OW20950   2.435   3.193   2.685 -0.0586 -0.4899  0.5106
 6791SOL    HW120951   2.414   3.265   2.627 -0.0130 -0.4777  0.5091
 6791SOL    HW220952   2.528   3.203   2.703 -0.2069 -0.1140  1.1045
 6792SOL     OW20953   3.541   4.205   7.325  0.0910  0.0607 -0.3590
 6792SOL    HW120954   3.565   4.246   7.408 -1.5211  0.1394  0.1081
 6792SOL    HW220955   3.593   4.251   7.260  0.8416  0.5024  0.5212
 6793SOL     OW20956   8.396   3.363   0.806  0.1572 -0.1724 -0.2217
 6793SOL    HW120957   8.336   3.436   0.794 -0.4716 -0.8601 -1.4771
 6793SOL    HW220958   8.398   3.320   0.721  3.3668  0.5024 -0.6195
 6794SOL     OW20959   0.117   7.760   7.960  0.2954 -0.2845  0.0385
 6794SOL    HW120960   0.161   7.744   7.877  1.1704 -0.7000  0.5744
 6794SOL    HW220961   0.025   7.776   7.936  0.8483  1.3653 -1.1668
 6795SOL     OW20962   9.499   7.428   9.604 -0.0753 -0.3558  0.0992
 6795SOL    HW120963   9.478   7.501   9.546 -0.4773  0.0916  0.8138
 6795SOL    HW220964   9.415   7.399   9.639  0.2626  0.0008  1.2207
 6796SOL     OW20965   1.332   0.257   9.060  0.1167  0.0442  0.8455
 6796SOL    HW120966   1.294   0.323   9.119 -2.0359 -1.1180  0.8738
 6796SOL    HW220967   1.397   0.212   9.114 -0.2044  0.4844  1.6326
 6797SOL     OW20968   0.338   5.034   5.601  0.0630  0.3842 -0.2632
 6797SOL    HW120969   0.393   5.103   5.640 -0.4890  1.2507 -0.9745
 6797SOL    HW220970   0.383   5.012   5.520  2.1721 -2.6663  1.5465
 6798SOL     OW20971   1.374   3.618   3.416  0.5650  0.3121 -0.3295
 6798SOL    HW120972   1.449   3.563   3.397  0.0727 -1.5533  2.5489
 6798SOL    HW220973   1.317   3.609   3.339  1.0033 -2.3600 -0.4053
 6799SOL     OW20974   2.671   3.413   3.839  0.3620 -0.5602  0.0823
 6799SOL    HW120975   2.597   3.405   3.900 -0.1659 -2.0290 -0.6883
 6799SOL    HW220976   2.749   3.401   3.893 -0.1099 -2.1243  0.4711
 6800SOL     OW20977   7.556   0.966   6.350 -0.1491 -0.1488 -0.8607
 6800SOL    HW120978   7.575   1.037   6.411 -1.4171 -0.7570  0.3162
 6800SOL    HW220979   7.570   1.003   6.263  0.1435  1.2394 -0.2397
 6801SOL     OW20980   0.825   0.521   9.956 -0.3484  0.1057  0.4544
 6801SOL    HW120981   0.898   0.500  10.014 -1.2812 -1.3543  1.1641
 6801SOL    HW220982   0.852   0.485   9.871  0.4993  1.1742  0.2448
 6802SOL     OW20983   5.978   8.075   3.002  0.0039  0.0997  0.0853
 6802SOL    HW120984   5.987   8.166   3.031 -1.8287  0.3117  0.1243
 6802SOL    HW220985   5.886   8.066   2.980 -0.3670 -2.3121  2.0953
 6803SOL     OW20986   2.248   0.345   3.537 -0.4489  0.3576  0.1588
 6803SOL    HW120987   2.177   0.285   3.558 -1.0382  1.2515  0.8266
 6803SOL    HW220988   2.262   0.334   3.443 -0.7579 -0.5812  0.2177
 6804SOL     OW20989   2.481   6.824   0.266  0.1114  0.3231 -0.5338
 6804SOL    HW120990   2.570   6.798   0.292 -0.4505 -0.3659  0.7878
 6804SOL    HW220991   2.474   6.916   0.292  0.8927  0.8066 -1.9344
 6805SOL     OW20992   2.384   0.519   3.148  0.3711  0.1984 -0.2779
 6805SOL    HW120993   2.338   0.461   3.208  0.0392  0.3236 -0.4067
 6805SOL    HW220994   2.374   0.477   3.062 -0.2184  0.6470 -0.4352
 6806SOL     OW20995   2.193   5.091   4.646 -0.2707 -0.2561  0.0242
 6806SOL    HW120996   2.274   5.142   4.654 -0.2960 -0.2453  0.2099
 6806SOL    HW220997   2.131   5.151   4.605 -0.6612  0.2670  1.3387
 6807SOL     OW20998   7.335   2.216   3.493  0.0084 -0.7219  0.4916
 6807SOL    HW120999   7.271   2.151   3.465  0.1666 -0.1642 -1.3469
 6807SOL    HW221000   7.284   2.282   3.539 -1.1927  0.6675 -2.5257
 6808SOL     OW21001   4.246   6.585   5.041 -0.4202  0.1302  0.0281
 6808SOL    HW121002   4.280   6.548   5.122 -0.8613  0.6919  0.4820
 6808SOL    HW221003   4.175   6.527   5.016  0.0789 -0.3624 -0.2674
 6809SOL     OW21004   0.766   2.497   2.849  0.0131  0.7540  0.2033
 6809SOL    HW121005   0.750   2.576   2.798 -0.9638  0.4123 -0.0481
 6809SOL    HW221006   0.781   2.528   2.938  1.3946  1.3367 -0.2094
 6810SOL     OW21007   6.852   5.718   4.286  0.2149 -0.4895 -0.6212
 6810SOL    HW121008   6.901   5.771   4.349  0.1297 -0.4361 -0.6005
 6810SOL    HW221009   6.761   5.742   4.299 -0.0914 -2.2465  0.9646
 6811SOL     OW21010   6.832   9.680   1.629  0.2979 -0.6016  0.6664
 6811SOL    HW121011   6.862   9.727   1.551 -2.4997 -0.6393 -0.5394
 6811SOL    HW221012   6.913   9.649   1.671  1.9965  1.3413 -0.9611
 6812SOL     OW21013   7.420   4.434   5.143 -0.4086  0.7615  0.1504
 6812SOL    HW121014   7.438   4.362   5.203 -1.6994  0.2923  0.0105
 6812SOL    HW221015   7.460   4.407   5.060 -2.5170 -0.7491 -0.4555
 6813SOL     OW21016   3.828   6.096   8.898  0.2424  0.3409 -0.2841
 6813SOL    HW121017   3.907   6.122   8.851  1.6816 -1.1127  1.1679
 6813SOL    HW221018   3.795   6.020   8.851 -0.0260  0.6483 -0.6007
 6814SOL     OW21019   6.987   3.627   0.682 -0.2451 -0.5938 -0.2125
 6814SOL    HW121020   6.929   3.703   0.691  0.1115 -0.3091 -0.2643
 6814SOL    HW221021   6.997   3.593   0.771  0.2876 -0.0508 -0.0588
 6815SOL     OW21022   8.124   8.412   3.653 -0.4211 -0.2429 -0.3444
 6815SOL    HW121023   8.135   8.484   3.715 -0.8880  0.9772 -1.6217
 6815SOL    HW221024   8.168   8.338   3.694  2.1155  1.3372  0.0447
 6816SOL     OW21025   8.619   2.439   2.429  0.1063  0.4545  0.1204
 6816SOL    HW121026   8.642   2.362   2.377 -1.7872 -0.2996  0.2962
 6816SOL    HW221027   8.614   2.408   2.519 -0.1338  0.9018  0.2706
 6817SOL     OW21028   1.273   8.486   7.710  0.1231 -0.0610  0.6725
 6817SOL    HW121029   1.301   8.547   7.642  0.8138 -0.5370  0.5159
 6817SOL    HW221030   1.178   8.477   7.698  0.1686  0.2290  0.0807
 6818SOL     OW21031   8.772   3.575   6.777  0.0107  0.6910 -0.0377
 6818SOL    HW121032   8.861   3.610   6.786  0.5415 -0.4742 -0.5316
 6818SOL    HW221033   8.752   3.538   6.863  0.0413  0.8634  0.0438
 6819SOL     OW21034   4.724   3.355   4.011  0.6686 -0.2623 -0.0098
 6819SOL    HW121035   4.749   3.438   3.970  1.2012  0.0134  0.8647
 6819SOL    HW221036   4.728   3.291   3.939  0.5543  0.4025 -0.6223
 6820SOL     OW21037   6.367   6.713   5.422 -0.1316  0.5474 -0.5449
 6820SOL    HW121038   6.280   6.681   5.401 -1.4852  4.1157 -0.9813
 6820SOL    HW221039   6.425   6.667   5.362 -1.6376 -1.8719 -0.2796
 6821SOL     OW21040   0.054   0.187   9.225 -0.4846 -0.3539 -0.3304
 6821SOL    HW121041  -0.010   0.200   9.295 -0.0672 -0.0777 -0.0011
 6821SOL    HW221042   0.139   0.204   9.265 -0.2625  0.0894 -0.9681
 6822SOL     OW21043   4.158   9.831   1.437 -0.3815 -0.8518  0.2764
 6822SOL    HW121044   4.164   9.790   1.351 -2.7982  1.2542 -1.0725
 6822SOL    HW221045   4.066   9.859   1.443  0.8239  3.6821  1.2008
 6823SOL     OW21046   8.979   2.493   4.446  0.6516 -0.5037  0.0209
 6823SOL    HW121047   8.902   2.464   4.398  0.9082 -2.7169  0.8340
 6823SOL    HW221048   8.952   2.573   4.490 -0.4203  0.0458 -1.5836
 6824SOL     OW21049   9.795   3.655   6.206  1.0654 -0.0237 -0.0531
 6824SOL    HW121050   9.812   3.712   6.280  0.1394  0.5083 -0.2358
 6824SOL    HW221051   9.868   3.670   6.146  2.9631 -1.9580  1.5690
 6825SOL     OW21052   2.871   9.638   2.613 -0.0583  0.0750  0.0010
 6825SOL    HW121053   2.877   9.711   2.551  1.5370 -0.3129 -0.3524
 6825SOL    HW221054   2.960   9.603   2.618 -0.5493 -1.1235  1.0515
 6826SOL     OW21055   3.602   3.412   4.078  0.2950 -0.0313  0.2002
 6826SOL    HW121056   3.695   3.392   4.088  0.4418 -0.6037 -1.8598
 6826SOL    HW221057   3.559   3.364   4.149  1.5730  0.5017  1.3746
 6827SOL     OW21058   1.529   2.706   7.268  0.3128 -0.3021 -0.4167
 6827SOL    HW121059   1.577   2.783   7.236  1.0475 -0.5481  0.0503
 6827SOL    HW221060   1.573   2.631   7.226  0.4348 -0.5411  0.1295
 6828SOL     OW21061   6.143   3.623   1.582  0.0063  0.1598 -0.1459
 6828SOL    HW121062   6.123   3.530   1.565  1.0447  0.1882 -1.7822
 6828SOL    HW221063   6.194   3.622   1.662  2.8002 -1.1101 -1.7905
 6829SOL     OW21064   4.748   7.067   4.009  0.0572 -0.2992  0.3811
 6829SOL    HW121065   4.760   7.072   3.914  0.6093 -1.8724  0.3398
 6829SOL    HW221066   4.706   7.150   4.032 -1.0342 -0.3005 -1.3820
 6830SOL     OW21067   1.274   4.246   4.215 -0.0403 -0.4283  0.1474
 6830SOL    HW121068   1.263   4.166   4.266  0.3310 -0.7589 -0.2888
 6830SOL    HW221069   1.254   4.317   4.277  1.0258 -0.7924  0.9277
 6831SOL     OW21070   8.145   8.685   1.599  0.7605  0.0079 -0.0642
 6831SOL    HW121071   8.099   8.691   1.516 -0.5693 -2.3249  0.4262
 6831SOL    HW221072   8.229   8.643   1.578 -0.1435 -1.8649 -0.0974
 6832SOL     OW21073   9.527   2.378   8.694  0.5434 -0.5398  0.3018
 6832SOL    HW121074   9.540   2.472   8.682  2.1104 -0.8727 -0.9222
 6832SOL    HW221075   9.614   2.340   8.680 -0.2447 -2.2644 -0.1414
 6833SOL     OW21076   5.819   1.355   3.577  0.0753 -0.0455  0.2398
 6833SOL    HW121077   5.808   1.450   3.573  3.0472  0.5148  2.2825
 6833SOL    HW221078   5.864   1.333   3.496 -0.1794  0.3356 -0.0100
 6834SOL     OW21079   9.705   7.331   1.668  0.0033  0.0211 -0.1187
 6834SOL    HW121080   9.673   7.394   1.603  0.2266  0.0445 -0.2084
 6834SOL    HW221081   9.786   7.298   1.630 -0.3694 -0.7030 -0.3185
 6835SOL     OW21082   9.137   8.070   1.310  0.4428 -0.7618  0.5635
 6835SOL    HW121083   9.064   8.132   1.311  0.3495 -0.6957 -2.1495
 6835SOL    HW221084   9.165   8.064   1.401 -1.6014  0.8025  1.3729
 6836SOL     OW21085   9.141   7.089   5.497 -0.1564 -0.5929  0.1628
 6836SOL    HW121086   9.148   6.996   5.476 -0.0866 -0.3006 -1.2002
 6836SOL    HW221087   9.231   7.116   5.517  0.0863 -0.4795 -1.0212
 6837SOL     OW21088   6.396   7.527   1.699 -0.5253  0.0985  0.1717
 6837SOL    HW121089   6.349   7.452   1.735 -0.4243  0.4854  1.1303
 6837SOL    HW221090   6.336   7.563   1.634 -0.2828 -1.2241 -0.8425
 6838SOL     OW21091   4.951   3.833   9.761 -0.0245 -0.2769 -0.2361
 6838SOL    HW121092   4.893   3.831   9.685  0.5598  3.0717 -0.9357
 6838SOL    HW221093   4.895   3.858   9.834  0.2480  2.0395 -0.7366
 6839SOL     OW21094   9.407   3.697   5.652 -0.1663 -0.0980 -0.8156
 6839SOL    HW121095   9.495   3.658   5.652  0.2211  0.6989 -2.1569
 6839SOL    HW221096   9.363   3.657   5.578 -0.8466 -0.2687 -0.3283
 6840SOL     OW21097   4.474   3.310   6.331  0.2142 -0.3188 -0.0955
 6840SOL    HW121098   4.408   3.266   6.276 -0.2290 -2.0374  1.6962
 6840SOL    HW221099   4.426   3.382   6.372 -0.2357 -0.8075  0.2521
 6841SOL     OW21100   6.922   6.323   4.419  0.5358  0.1333  0.2177
 6841SOL    HW121101   7.017   6.334   4.427  0.7287  2.5358 -3.2701
 6841SOL    HW221102   6.887   6.412   4.423 -1.4026 -0.5579 -0.3796
 6842SOL     OW21103   1.159   5.765   1.715  0.1948  0.1410 -0.5075
 6842SOL    HW121104   1.146   5.712   1.637 -1.3378 -1.6721  0.8887
 6842SOL    HW221105   1.094   5.733   1.777  0.4893  2.3872  1.1009
 6843SOL     OW21106   8.221   9.282   5.802 -0.2328  0.2248 -0.3966
 6843SOL    HW121107   8.289   9.297   5.736  0.1079  0.2675 -0.0435
 6843SOL    HW221108   8.187   9.195   5.782 -0.0044  0.1618 -0.5146
 6844SOL     OW21109   0.913   3.853   9.854 -0.0680 -0.5991 -0.4298
 6844SOL    HW121110   0.882   3.924   9.911  0.8053 -0.1695 -0.4667
 6844SOL    HW221111   0.874   3.774   9.891 -0.1611 -0.2281  0.2825
 6845SOL     OW21112   4.503   5.801   4.492  0.0624  0.1740  0.1400
 6845SOL    HW121113   4.426   5.758   4.529 -0.4218  1.3614  0.5561
 6845SOL    HW221114   4.507   5.770   4.401 -1.1692  0.4351 -0.0175
 6846SOL     OW21115   6.516   9.868   7.898  0.2611 -0.1277  0.3181
 6846SOL    HW121116   6.548   9.819   7.822 -2.1492 -0.0468 -0.8607
 6846SOL    HW221117   6.502   9.956   7.865  0.4392  0.2442  1.2246
 6847SOL     OW21118   8.242   6.267   7.779 -0.2041 -0.2036 -0.3232
 6847SOL    HW121119   8.166   6.325   7.769 -0.4120 -0.4731 -0.3265
 6847SOL    HW221120   8.317   6.326   7.778 -0.4296  0.0918 -0.0687
 6848SOL     OW21121   0.603   0.897   9.418 -0.2571 -0.6710  0.1904
 6848SOL    HW121122   0.563   0.964   9.472 -0.6473 -2.3229  2.0729
 6848SOL    HW221123   0.695   0.895   9.445  0.0118 -0.1814 -0.6474
 6849SOL     OW21124   6.379   1.422   5.356  0.4283 -0.0614  0.4803
 6849SOL    HW121125   6.448   1.477   5.319 -0.6222  1.2488  0.4209
 6849SOL    HW221126   6.413   1.395   5.442  1.2453  0.0934  0.2116
 6850SOL     OW21127   7.482   4.433   9.458 -0.6159 -0.2720 -0.2848
 6850SOL    HW121128   7.555   4.378   9.429 -0.8887 -1.0579  0.4549
 6850SOL    HW221129   7.433   4.452   9.378  1.3571  1.8091 -1.1094
 6851SOL     OW21130   7.375   2.332   7.529 -0.4084 -0.3840  0.0625
 6851SOL    HW121131   7.452   2.340   7.471  0.2711 -0.3176  0.9456
 6851SOL    HW221132   7.376   2.241   7.558 -1.3552 -0.6947 -0.8280
 6852SOL     OW21133   3.774   3.655   8.382 -1.0751 -0.6220 -0.3446
 6852SOL    HW121134   3.730   3.643   8.298 -0.7601 -1.0859 -0.4497
 6852SOL    HW221135   3.760   3.747   8.405 -1.5242 -0.6029 -0.6976
 6853SOL     OW21136   6.379   3.850   7.191  0.3813  0.3685 -0.6351
 6853SOL    HW121137   6.426   3.874   7.270  0.2958  1.6190 -0.9484
 6853SOL    HW221138   6.316   3.784   7.219 -0.3505  1.5391  0.5462
 6854SOL     OW21139   0.107   6.070   1.694  0.0540  0.2062  0.0250
 6854SOL    HW121140   0.027   6.054   1.644  0.1515 -1.4061  0.3230
 6854SOL    HW221141   0.130   5.984   1.730  1.6445  0.7407  0.3531
 6855SOL     OW21142   5.526   4.670   0.089  0.2914 -0.0525  0.4255
 6855SOL    HW121143   5.479   4.750   0.112 -0.8771 -1.2521  2.5284
 6855SOL    HW221144   5.474   4.599   0.128  0.5551 -2.0145 -2.4105
 6856SOL     OW21145   2.875   6.372   4.689  0.5018  0.2476 -0.1138
 6856SOL    HW121146   2.847   6.436   4.754  0.1714  0.9487 -0.9311
 6856SOL    HW221147   2.924   6.423   4.624  1.4794 -0.5575 -0.0392
 6857SOL     OW21148   9.702   8.461   4.277 -0.5559 -0.2750 -0.4306
 6857SOL    HW121149   9.702   8.454   4.372  0.8022 -0.6599 -0.4409
 6857SOL    HW221150   9.725   8.373   4.246  0.8279  0.2638 -1.0385
 6858SOL     OW21151   5.167   4.475   9.113 -0.6893  0.5618 -0.0750
 6858SOL    HW121152   5.257   4.465   9.082 -0.3474 -1.4596  1.3525
 6858SOL    HW221153   5.176   4.502   9.204 -1.4624 -0.8644  0.4536
 6859SOL     OW21154   3.765   9.338   9.175  0.0734 -0.0755 -0.1660
 6859SOL    HW121155   3.774   9.386   9.257 -0.7385 -0.6900  0.2962
 6859SOL    HW221156   3.846   9.288   9.168  0.3674  0.3746  0.0032
 6860SOL     OW21157   6.820   6.808   8.830  0.1718  0.5041  0.1188
 6860SOL    HW121158   6.830   6.726   8.781  1.7536  0.5419  0.3104
 6860SOL    HW221159   6.831   6.783   8.921  0.1385  0.8489  0.2182
 6861SOL     OW21160   7.843   5.295   8.965 -0.0601  0.6003 -0.1399
 6861SOL    HW121161   7.898   5.262   8.894 -0.0473 -0.2449  0.2474
 6861SOL    HW221162   7.902   5.346   9.020  0.2835 -0.0741  0.1240
 6862SOL     OW21163   4.101   2.742   8.198 -0.4087 -0.5372 -0.3243
 6862SOL    HW121164   4.065   2.799   8.130  0.4049  1.0272  0.5260
 6862SOL    HW221165   4.195   2.737   8.178  0.4057  2.2122  2.1498
 6863SOL     OW21166   0.329   5.185   0.159 -0.7809  0.9326  0.1248
 6863SOL    HW121167   0.418   5.171   0.126 -0.6233  3.1868 -0.5470
 6863SOL    HW221168   0.338   5.181   0.254 -0.2659 -0.3794  0.0404
 6864SOL     OW21169   0.892   6.273   7.561  0.2866  0.2283  0.4476
 6864SOL    HW121170   0.814   6.312   7.522  1.6125  0.3754 -2.3034
 6864SOL    HW221171   0.900   6.187   7.518  2.5741  0.9658 -0.7503
 6865SOL     OW21172   3.229   1.230   3.960  0.4573  0.2243 -0.0159
 6865SOL    HW121173   3.196   1.247   4.049  0.1035 -0.6316  0.0292
 6865SOL    HW221174   3.322   1.252   3.964  0.4317  0.2457  0.5591
 6866SOL     OW21175   0.123   9.750   9.092 -0.1339  0.4431 -0.2067
 6866SOL    HW121176   0.201   9.777   9.044  0.4952 -0.8805  0.0327
 6866SOL    HW221177   0.119   9.655   9.081  0.1724  0.0376  2.4915
 6867SOL     OW21178   3.934   3.417   3.507 -0.7633  0.1517  0.2282
 6867SOL    HW121179   3.933   3.321   3.508 -3.2391  0.0257 -1.9739
 6867SOL    HW221180   3.967   3.440   3.420 -2.5045  1.1618 -0.2185
 6868SOL     OW21181   1.793   8.328   0.839 -0.0421  0.0107 -0.3982
 6868SOL    HW121182   1.762   8.404   0.790 -1.3273  0.2078  0.6988
 6868SOL    HW221183   1.750   8.334   0.924  1.9495 -0.4748  0.6998
 6869SOL     OW21184   4.839   0.888   4.394  0.7872  0.2809  0.3998
 6869SOL    HW121185   4.873   0.831   4.463 -0.8604  1.9396  2.7254
 6869SOL    HW221186   4.836   0.975   4.433 -2.6109  0.8589 -0.7869
 6870SOL     OW21187   4.544   2.624   7.185  0.1112  0.0566 -0.1176
 6870SOL    HW121188   4.534   2.588   7.097  0.3052 -1.1990  0.3524
 6870SOL    HW221189   4.459   2.662   7.207 -0.4182 -1.0199 -0.2542
 6871SOL     OW21190   1.067   9.091   6.335 -0.3562  0.3160 -0.4918
 6871SOL    HW121191   1.015   9.106   6.414  0.9185  0.3144  0.3647
 6871SOL    HW221192   1.050   8.999   6.312 -0.9242  0.3871 -0.3883
 6872SOL     OW21193   3.889   0.737   8.117 -0.0815  0.7628  0.3298
 6872SOL    HW121194   3.937   0.765   8.039 -0.3876  1.8975  0.5294
 6872SOL    HW221195   3.814   0.797   8.122 -0.4741  0.2258  1.0765
 6873SOL     OW21196   6.831   0.320   6.411  0.5266  0.1008 -0.0810
 6873SOL    HW121197   6.770   0.256   6.373  1.1559 -0.2226 -0.5698
 6873SOL    HW221198   6.795   0.340   6.497  0.0652 -0.5578 -0.1146
 6874SOL     OW21199   7.534   2.393   6.186  0.1391 -0.3532  0.5008
 6874SOL    HW121200   7.456   2.376   6.133  0.9548 -1.2808 -0.4579
 6874SOL    HW221201   7.501   2.411   6.274 -1.2371  0.8911 -0.2286
 6875SOL     OW21202   6.198   5.582   6.118  0.0116 -0.3819 -0.0734
 6875SOL    HW121203   6.137   5.645   6.156  1.4023  0.5980  0.6499
 6875SOL    HW221204   6.185   5.589   6.023 -0.0655  0.7867  0.0143
 6876SOL     OW21205   0.997   4.027   1.891  0.4093  0.2532 -0.2135
 6876SOL    HW121206   1.061   3.978   1.942 -0.4310 -0.2154  0.4221
 6876SOL    HW221207   1.047   4.063   1.817  1.2960 -0.4857  0.0080
 6877SOL     OW21208   4.659   5.811   6.355  0.7905  0.0174  0.0112
 6877SOL    HW121209   4.693   5.722   6.366 -0.1707 -0.1297  2.7275
 6877SOL    HW221210   4.591   5.803   6.289  2.4760 -0.6682 -1.7616
 6878SOL     OW21211   7.861   1.864   8.777 -0.0548  0.1980 -0.4782
 6878SOL    HW121212   7.779   1.816   8.761  0.7371 -1.2693 -0.2900
 6878SOL    HW221213   7.838   1.929   8.843 -1.1490  0.0216 -0.6622
 6879SOL     OW21214   3.445   0.250   6.346 -0.0482  0.0875 -0.2125
 6879SOL    HW121215   3.383   0.316   6.379  0.9082  0.3925  1.0843
 6879SOL    HW221216   3.443   0.260   6.251 -1.1251  0.8790 -0.1259
 6880SOL     OW21217   9.225   3.689   5.897 -0.7278 -0.1795  0.3757
 6880SOL    HW121218   9.167   3.626   5.855 -0.1070  0.3102 -1.2972
 6880SOL    HW221219   9.312   3.667   5.864 -0.2021  0.2477  1.4204
 6881SOL     OW21220   3.808   3.882   3.946  0.5273  0.3441 -0.2197
 6881SOL    HW121221   3.717   3.854   3.940  0.6931 -1.0740  2.5041
 6881SOL    HW221222   3.804   3.965   3.995  0.7518 -0.2704  0.8548
 6882SOL     OW21223   7.117   4.046   3.419  0.1240  0.3461 -0.1483
 6882SOL    HW121224   7.065   3.976   3.378  1.2730 -2.1130  2.2505
 6882SOL    HW221225   7.058   4.085   3.483 -0.2886  1.1150 -0.9757
 6883SOL     OW21226   8.057   1.982   4.455  0.1499  0.2585 -0.3230
 6883SOL    HW121227   8.058   2.077   4.463  0.0342  0.3859 -1.6794
 6883SOL    HW221228   8.145   1.959   4.425  0.0702 -0.0285 -0.3430
 6884SOL     OW21229   8.774   8.207   5.258 -0.0857 -0.0556  0.0466
 6884SOL    HW121230   8.830   8.241   5.188 -2.7206  0.7288 -1.8288
 6884SOL    HW221231   8.785   8.112   5.254 -0.4558 -0.0504 -1.7066
 6885SOL     OW21232   6.306   8.969   5.906 -0.5224  0.1240 -0.0371
 6885SOL    HW121233   6.400   8.981   5.917 -0.9490  2.3951  2.1395
 6885SOL    HW221234   6.292   8.875   5.915  1.5421 -0.2960 -0.6867
 6886SOL     OW21235   9.579   8.638   9.260  0.9210  0.0509  0.6319
 6886SOL    HW121236   9.545   8.701   9.324 -0.5073  0.4380 -0.4522
 6886SOL    HW221237   9.522   8.562   9.269 -0.8769  0.9820 -1.7213
 6887SOL     OW21238   9.435   0.351   2.849  0.1045 -0.3900 -0.0353
 6887SOL    HW121239   9.499   0.342   2.920  0.9835  2.2372 -0.3764
 6887SOL    HW221240   9.361   0.396   2.890  0.5084  0.9029 -0.6967
 6888SOL     OW21241   8.643   8.677   5.112 -0.0869  0.5752 -0.2415
 6888SOL    HW121242   8.567   8.626   5.140  1.4271 -1.0574  1.1994
 6888SOL    HW221243   8.685   8.705   5.194  0.7132  1.7019 -0.9995
 6889SOL     OW21244   5.493   0.891   1.141 -0.2964  0.2529 -0.2705
 6889SOL    HW121245   5.433   0.906   1.068 -0.7642 -0.1873  0.0190
 6889SOL    HW221246   5.459   0.945   1.212 -0.3957 -0.0542 -0.0823
 6890SOL     OW21247   4.255   5.495   0.841  0.5883 -0.5710 -0.0595
 6890SOL    HW121248   4.184   5.553   0.813  1.0067 -0.1772 -0.3129
 6890SOL    HW221249   4.289   5.457   0.759  0.2942 -1.2092  0.1049
 6891SOL     OW21250   1.322   6.198   3.078  0.2340  0.1761 -0.3508
 6891SOL    HW121251   1.314   6.219   2.985  0.1160 -0.2701 -0.4417
 6891SOL    HW221252   1.278   6.114   3.088  3.9326 -2.0325 -0.7437
 6892SOL     OW21253   4.124   3.286   2.230 -0.2154 -0.5191 -0.2981
 6892SOL    HW121254   4.039   3.324   2.256  0.3783  0.6147  0.0585
 6892SOL    HW221255   4.187   3.355   2.249  0.9366 -1.7542  0.5089
 6893SOL     OW21256   1.101   2.492   1.660  0.2512  0.3800  0.0734
 6893SOL    HW121257   1.190   2.521   1.638  0.7781 -1.2590 -0.0862
 6893SOL    HW221258   1.063   2.567   1.706  2.8488  0.0232  3.1540
 6894SOL     OW21259   5.267   9.532   5.227 -0.1857 -0.2260 -0.1495
 6894SOL    HW121260   5.303   9.584   5.155 -0.1860 -0.1324 -0.0811
 6894SOL    HW221261   5.321   9.555   5.303  1.1245 -1.8048 -0.5425
 6895SOL     OW21262   9.371   9.080   9.259  0.4139 -0.1432 -0.7394
 6895SOL    HW121263   9.456   9.083   9.303  0.3868 -0.0951 -0.6898
 6895SOL    HW221264   9.375   9.001   9.205  1.3470  1.0247 -2.4773
 6896SOL     OW21265   6.381   9.384   8.413 -0.5838 -0.4804 -0.4436
 6896SOL    HW121266   6.401   9.464   8.462 -1.5862  0.8067 -2.0817
 6896SOL    HW221267   6.457   9.328   8.428  0.3011  0.9030  0.4565
 6897SOL     OW21268   4.639   0.340   8.492 -0.0182 -0.1779  0.3157
 6897SOL    HW121269   4.598   0.426   8.480 -0.3555 -0.1358  1.6260
 6897SOL    HW221270   4.572   0.278   8.463  0.0967 -0.0181 -0.3081
 6898SOL     OW21271   3.905   9.557   7.718  0.4206  0.3417 -0.1229
 6898SOL    HW121272   3.879   9.630   7.774  0.4408 -0.8572  1.5643
 6898SOL    HW221273   3.840   9.555   7.648 -0.1199  1.3924  0.3271
 6899SOL     OW21274   9.878   8.933   5.131  0.9188 -0.7693  0.3375
 6899SOL    HW121275   9.804   8.992   5.124  0.4739 -1.1062  1.8924
 6899SOL    HW221276   9.846   8.850   5.096  0.9512 -0.6014 -0.0984
 6900SOL     OW21277   3.870   7.280   3.733  0.0412  0.1149 -0.0555
 6900SOL    HW121278   3.914   7.202   3.766  1.5733  1.4320  1.1842
 6900SOL    HW221279   3.867   7.339   3.809 -0.7241  1.4253 -1.0607
 6901SOL     OW21280   7.610   3.443   9.996 -0.3382 -0.6173  0.6746
 6901SOL    HW121281   7.560   3.407   9.922 -0.7904  2.4931 -0.6949
 6901SOL    HW221282   7.699   3.411   9.983 -0.1879  0.5816 -1.8789
 6902SOL     OW21283   7.771   2.897   3.969 -0.6225 -0.3842  0.5398
 6902SOL    HW121284   7.776   2.877   4.062  1.9851 -0.9877  0.3592
 6902SOL    HW221285   7.779   2.992   3.964 -0.3698 -0.3796  0.9448
 6903SOL     OW21286   7.304   5.053   3.103  0.5649  0.3650 -0.6032
 6903SOL    HW121287   7.245   5.121   3.070  2.6351  1.9513 -1.2132
 6903SOL    HW221288   7.350   5.094   3.176  1.6606 -0.4556 -0.8068
 6904SOL     OW21289   6.436   6.767   0.653  0.2968  0.1809 -0.0910
 6904SOL    HW121290   6.385   6.806   0.582  1.1966  1.4658 -0.0733
 6904SOL    HW221291   6.509   6.724   0.610 -0.1985 -0.7157 -0.0505
 6905SOL     OW21292   1.115   4.856   7.653  0.2278 -0.2162 -0.3450
 6905SOL    HW121293   1.196   4.880   7.608  0.5928 -1.2767 -0.2804
 6905SOL    HW221294   1.121   4.761   7.664 -1.8028 -0.5621 -1.8382
 6906SOL     OW21295   4.369   0.683   4.261 -0.0351  0.2025  0.1420
 6906SOL    HW121296   4.438   0.748   4.247  0.5296 -0.3347  0.4280
 6906SOL    HW221297   4.415   0.600   4.271 -0.7239 -0.1684  0.3073
 6907SOL     OW21298   2.797   1.262   5.974  1.3040  0.6743 -0.0345
 6907SOL    HW121299   2.884   1.223   5.961  1.2469 -0.0426  1.4480
 6907SOL    HW221300   2.802   1.300   6.062  0.0303  0.3372  0.2028
 6908SOL     OW21301   5.815   6.255   6.625  0.0425  0.0131 -0.0650
 6908SOL    HW121302   5.779   6.292   6.706  0.1347 -0.3852  0.1628
 6908SOL    HW221303   5.909   6.256   6.638  0.0834  0.4470 -0.3906
 6909SOL     OW21304   5.970   9.148   3.480 -0.6775  0.1843 -0.0529
 6909SOL    HW121305   5.960   9.090   3.405  0.2325  2.5125 -2.0984
 6909SOL    HW221306   6.057   9.128   3.515 -0.5569  0.0044 -0.4519
 6910SOL     OW21307   9.225   0.507   2.977 -0.4129  0.0853 -0.2953
 6910SOL    HW121308   9.147   0.491   2.923 -1.4201  0.4848  0.9994
 6910SOL    HW221309   9.201   0.475   3.064  0.8199  0.3754  0.1740
 6911SOL     OW21310   6.503   6.615   6.857 -0.2631 -0.4834 -1.0406
 6911SOL    HW121311   6.512   6.647   6.767 -0.0429 -1.1500 -1.2622
 6911SOL    HW221312   6.559   6.674   6.908 -1.8631  1.1013 -1.0206
 6912SOL     OW21313   2.602   2.162   0.111  0.0685  0.3410  0.5797
 6912SOL    HW121314   2.611   2.105   0.188  0.4807  0.6894  0.8009
 6912SOL    HW221315   2.513   2.196   0.117 -0.3025 -0.5475  0.2482
 6913SOL     OW21316   4.338   3.930   2.520 -0.1839 -0.2119 -0.3349
 6913SOL    HW121317   4.272   3.870   2.486  1.0162 -0.7951 -1.7824
 6913SOL    HW221318   4.357   3.897   2.609 -2.2101  0.3354  0.3384
 6914SOL     OW21319   4.095   4.513   4.767 -0.2092 -0.5237  0.5163
 6914SOL    HW121320   4.104   4.521   4.672  0.5662  1.3540  0.7071
 6914SOL    HW221321   4.135   4.429   4.788 -0.5008 -1.0169 -0.8182
 6915SOL     OW21322   6.842   3.483   2.877 -0.0221 -0.6142  0.3792
 6915SOL    HW121323   6.753   3.453   2.862  0.5147 -0.7705 -3.2757
 6915SOL    HW221324   6.896   3.404   2.873  0.5897 -0.1590 -1.2147
 6916SOL     OW21325   9.044   0.938   8.875  0.1208 -0.9476  0.1114
 6916SOL    HW121326   9.098   0.860   8.864  1.3030  0.1085 -2.4004
 6916SOL    HW221327   8.980   0.933   8.804 -0.3399 -0.0304  0.4406
 6917SOL     OW21328   3.830   9.905   3.208 -0.0206  0.2653  0.1076
 6917SOL    HW121329   3.783   9.939   3.132  3.7010  2.6464 -1.4126
 6917SOL    HW221330   3.827   9.976   3.272 -1.5072 -1.0043  1.5326
 6918SOL     OW21331   1.819   8.129   3.462 -0.6254  0.0618 -0.1306
 6918SOL    HW121332   1.782   8.102   3.378  0.0177 -1.4461  0.0445
 6918SOL    HW221333   1.753   8.107   3.527 -0.8348  0.5873 -0.1588
 6919SOL     OW21334   0.068   6.345   2.403  0.3370 -0.1644  0.5896
 6919SOL    HW121335   0.134   6.373   2.339  0.0603  0.9087  0.7575
 6919SOL    HW221336   0.091   6.254   2.423  1.9364  0.2545  0.8302
 6920SOL     OW21337   2.524   5.201   3.325  0.2021  0.2353  0.4635
 6920SOL    HW121338   2.566   5.265   3.383  1.9505 -0.7589  0.3731
 6920SOL    HW221339   2.588   5.131   3.317 -0.3304 -0.0646 -1.9961
 6921SOL     OW21340   6.155   0.897   6.311 -0.0947 -0.3294 -0.3177
 6921SOL    HW121341   6.203   0.976   6.285 -0.6627  0.6756  1.4837
 6921SOL    HW221342   6.077   0.897   6.256  0.2942 -0.0825 -0.8817
 6922SOL     OW21343   2.515   0.881   4.154 -0.1477 -0.1072 -0.4058
 6922SOL    HW121344   2.515   0.824   4.231 -1.0964 -0.6458 -0.7816
 6922SOL    HW221345   2.431   0.862   4.111  0.6018 -0.2284 -1.8714
 6923SOL     OW21346   4.360   4.067   4.931 -0.3458  0.4754 -0.0011
 6923SOL    HW121347   4.425   4.016   4.883  0.9217  3.0937 -1.2517
 6923SOL    HW221348   4.285   4.008   4.940  0.7587 -1.3605 -1.9442
 6924SOL     OW21349   7.320   6.436   3.913 -0.0804 -0.3187 -0.4088
 6924SOL    HW121350   7.285   6.491   3.983  0.5491 -0.2538 -0.1385
 6924SOL    HW221351   7.348   6.355   3.958 -1.0931 -0.9106 -0.8155
 6925SOL     OW21352   8.108   1.749   8.861  0.6435 -0.2982  0.5179
 6925SOL    HW121353   8.035   1.793   8.818  1.5234 -0.8784 -1.7136
 6925SOL    HW221354   8.084   1.657   8.863  1.4998 -0.5767 -0.7485
 6926SOL     OW21355   2.984   2.202   6.532  0.2316  0.6621  0.0565
 6926SOL    HW121356   3.053   2.217   6.467 -1.5403  2.1351 -1.6052
 6926SOL    HW221357   2.992   2.274   6.594 -0.7057  1.6938 -0.9922
 6927SOL     OW21358   9.280   9.468   3.456 -0.3688  0.2364  0.4132
 6927SOL    HW121359   9.274   9.502   3.367  0.2224  1.7518  0.9269
 6927SOL    HW221360   9.195   9.426   3.472 -0.5485  0.1159 -0.7786
 6928SOL     OW21361   3.638   8.512   6.302 -0.0850  0.0883  0.4539
 6928SOL    HW121362   3.614   8.583   6.361 -1.6948  0.1879 -0.2802
 6928SOL    HW221363   3.682   8.449   6.359  0.1947  1.0777  1.3673
 6929SOL     OW21364   9.587   2.649   4.630  0.4506 -0.3644 -0.5502
 6929SOL    HW121365   9.630   2.618   4.551  0.3808  0.7662 -1.0491
 6929SOL    HW221366   9.650   2.709   4.671  0.3476 -0.6662  0.0652
 6930SOL     OW21367   0.491   0.361   8.865 -0.2753  0.6009 -0.1999
 6930SOL    HW121368   0.507   0.326   8.778  1.5706 -2.0373  1.0715
 6930SOL    HW221369   0.411   0.318   8.895 -0.2949  0.6535 -0.1761
 6931SOL     OW21370   7.220   8.745   6.153 -0.2471 -0.0572  0.3389
 6931SOL    HW121371   7.223   8.747   6.057  0.8768  0.9027  0.3688
 6931SOL    HW221372   7.129   8.726   6.174 -0.6835  0.5261 -0.9162
 6932SOL     OW21373   8.672   1.002   7.383  0.4631  0.1402  0.1594
 6932SOL    HW121374   8.609   0.934   7.409  1.3177  0.1023  2.2883
 6932SOL    HW221375   8.745   0.953   7.345 -0.5705  0.1659 -2.0114
 6933SOL     OW21376   0.495   9.349   1.993 -0.1513  0.0276  0.9746
 6933SOL    HW121377   0.429   9.309   1.936 -0.3136  2.2729 -0.5131
 6933SOL    HW221378   0.450   9.422   2.035  0.9195  0.5053  1.3246
 6934SOL     OW21379   1.333   4.904   8.201 -0.1935 -0.0770  0.1143
 6934SOL    HW121380   1.312   4.879   8.111  0.4325  0.0846 -0.0885
 6934SOL    HW221381   1.262   4.868   8.254 -0.0974 -0.9630 -0.3438
 6935SOL     OW21382   8.328   5.806   6.293 -0.3949  0.2485  0.3695
 6935SOL    HW121383   8.255   5.864   6.314 -0.3215  0.5111 -0.0841
 6935SOL    HW221384   8.289   5.737   6.239 -0.4425 -0.0106  0.7310
 6936SOL     OW21385   7.701   3.875   5.768 -0.1829  0.3298 -0.0057
 6936SOL    HW121386   7.696   3.837   5.681  1.8008 -0.0113 -0.0357
 6936SOL    HW221387   7.713   3.969   5.753 -0.5908  0.3719 -0.0722
 6937SOL     OW21388   7.955   4.799   4.696  0.2756  0.1932  0.0341
 6937SOL    HW121389   7.932   4.735   4.630 -0.8526 -1.1972  1.6780
 6937SOL    HW221390   8.050   4.809   4.689  0.1436  0.3234 -1.9386
 6938SOL     OW21391   2.900   9.018   6.839  0.8131 -0.5236 -0.7247
 6938SOL    HW121392   2.856   9.077   6.900  1.9263 -0.0138 -0.3876
 6938SOL    HW221393   2.852   8.936   6.845 -1.9017  0.7936 -2.5096
 6939SOL     OW21394   9.425   5.960   7.193  0.1827 -0.3491  0.3228
 6939SOL    HW121395   9.419   5.971   7.098 -0.0556  1.7149  0.5273
 6939SOL    HW221396   9.335   5.948   7.222  0.3439 -1.9983  0.2211
 6940SOL     OW21397   0.222   8.449   4.750  0.4152 -0.1532  0.4384
 6940SOL    HW121398   0.200   8.542   4.755  0.5751 -0.1205  0.5266
 6940SOL    HW221399   0.294   8.438   4.812 -0.7692 -0.6790  1.7689
 6941SOL     OW21400   8.045   5.101   6.623  0.0738 -0.6186  0.2773
 6941SOL    HW121401   8.071   5.193   6.626 -1.3692 -0.1015 -1.3990
 6941SOL    HW221402   8.077   5.065   6.705  0.3680  1.4660  1.1528
 6942SOL     OW21403   1.559   8.347   5.736 -0.2066  0.9361  0.0839
 6942SOL    HW121404   1.487   8.380   5.683 -0.1736 -0.7507 -1.0904
 6942SOL    HW221405   1.521   8.331   5.822 -0.6974  2.0195  0.0829
 6943SOL     OW21406   4.037   7.948   5.074  0.6235 -0.4996 -0.3197
 6943SOL    HW121407   4.117   7.999   5.059  0.5294 -0.7803 -1.9479
 6943SOL    HW221408   3.967   7.999   5.034  0.1066 -0.6419  0.3849
 6944SOL     OW21409   0.585   1.184   6.997  0.1561 -0.7709 -0.0544
 6944SOL    HW121410   0.589   1.111   6.935  0.1332 -0.0992 -0.8626
 6944SOL    HW221411   0.607   1.261   6.944 -1.5508  0.0463  0.3812
 6945SOL     OW21412   0.151   7.285   1.658 -0.2981  0.0083  0.0484
 6945SOL    HW121413   0.140   7.190   1.657 -1.2144  0.0688  1.2666
 6945SOL    HW221414   0.082   7.318   1.600 -0.5176 -0.0323  0.2873
 6946SOL     OW21415   9.814   5.651   9.763  0.3588 -0.1889  0.2655
 6946SOL    HW121416   9.775   5.669   9.678  1.8253 -0.7751 -0.5612
 6946SOL    HW221417   9.908   5.658   9.749  0.6236  0.1067  1.9433
 6947SOL     OW21418   0.474   4.929   2.887  0.2162 -0.1840  0.1730
 6947SOL    HW121419   0.460   4.857   2.949  0.2675 -0.2224  0.1400
 6947SOL    HW221420   0.482   5.007   2.942 -0.6022 -0.0897  0.1717
 6948SOL     OW21421   2.697   4.334   7.984  0.0029 -0.5560 -0.3479
 6948SOL    HW121422   2.657   4.369   8.063  0.7762 -0.9585  0.2366
 6948SOL    HW221423   2.626   4.331   7.920 -0.6810 -0.4342  0.3939
 6949SOL     OW21424   1.923   5.796   4.679  0.1763 -0.1522 -0.1980
 6949SOL    HW121425   1.957   5.834   4.598 -1.6149 -2.3217 -2.1103
 6949SOL    HW221426   1.980   5.721   4.696 -0.6378 -0.8976 -0.6548
 6950SOL     OW21427   5.624   2.016   7.975  0.7879 -0.0667  0.2033
 6950SOL    HW121428   5.619   2.050   8.064  2.0100  2.5354 -0.6038
 6950SOL    HW221429   5.692   1.948   7.979  2.5483  1.6331  0.8866
 6951SOL     OW21430   5.047   9.652   2.626  0.7069  0.1059  0.4814
 6951SOL    HW121431   5.007   9.579   2.578 -0.6659  0.1769  1.4424
 6951SOL    HW221432   5.130   9.668   2.581 -0.7839  0.6205 -2.3104
 6952SOL     OW21433   0.828   0.216   3.872  0.4023 -0.1602 -0.6948
 6952SOL    HW121434   0.795   0.231   3.783 -1.0093  1.8388  0.1065
 6952SOL    HW221435   0.754   0.178   3.919 -0.1233  2.1964  0.5220
 6953SOL     OW21436   4.044   8.751   1.270 -0.4227 -0.4706  0.1420
 6953SOL    HW121437   4.068   8.663   1.300 -0.5891 -0.0726  1.5512
 6953SOL    HW221438   3.958   8.739   1.231 -1.8052 -0.5549  2.9131
 6954SOL     OW21439   1.074   9.028   2.200  0.4775 -0.2390  0.3045
 6954SOL    HW121440   1.045   8.987   2.119 -0.0627 -0.9170  0.8218
 6954SOL    HW221441   0.993   9.054   2.244  0.6905 -0.9113  1.1366
 6955SOL     OW21442   2.509   8.083   0.943 -0.1618 -0.6252  0.6159
 6955SOL    HW121443   2.497   8.098   1.036  0.0959 -1.3157  0.7678
 6955SOL    HW221444   2.490   7.990   0.931 -0.9629 -0.3740 -0.1544
 6956SOL     OW21445   7.402   1.394   5.277 -0.0753 -0.4092 -0.8842
 6956SOL    HW121446   7.417   1.453   5.351 -0.5438 -0.7928 -0.4686
 6956SOL    HW221447   7.455   1.430   5.206  0.6759 -0.2292 -0.2600
 6957SOL     OW21448   5.288   0.658   9.518 -0.3115  0.4929  0.5116
 6957SOL    HW121449   5.357   0.691   9.575 -0.9177  2.0119  0.4223
 6957SOL    HW221450   5.311   0.692   9.431  0.6135 -1.7979 -0.2263
 6958SOL     OW21451   5.974   2.510   9.961 -0.0044  0.6047  0.3992
 6958SOL    HW121452   6.000   2.474   9.877  2.2419 -0.5358  1.5160
 6958SOL    HW221453   5.878   2.519   9.955  0.0210 -0.1868 -1.9388
 6959SOL     OW21454   9.325   9.443   7.530  0.2731 -0.0758  0.3009
 6959SOL    HW121455   9.346   9.464   7.439 -0.4372  3.3087  0.7803
 6959SOL    HW221456   9.410   9.442   7.575  0.5309 -0.6867 -0.1940
 6960SOL     OW21457   3.896   9.554   8.090 -0.7372 -0.2397 -0.1174
 6960SOL    HW121458   3.952   9.478   8.103 -0.0178  0.0836 -1.1506
 6960SOL    HW221459   3.836   9.553   8.164  1.3995  0.0829  1.7155
 6961SOL     OW21460   4.262   4.294   1.012 -0.4257 -0.4670  0.4210
 6961SOL    HW121461   4.233   4.364   1.071  0.7250 -1.2633  2.0168
 6961SOL    HW221462   4.358   4.300   1.014 -0.3331 -1.7125  0.1279
 6962SOL     OW21463   2.156   8.351   1.136 -0.5241  0.0805 -0.5244
 6962SOL    HW121464   2.103   8.275   1.112  0.0864 -0.0878 -1.4368
 6962SOL    HW221465   2.166   8.399   1.054 -0.2263  0.7142 -0.1225
 6963SOL     OW21466   0.909   2.632   0.095  0.4471  0.2306 -0.3078
 6963SOL    HW121467   0.927   2.551   0.046  1.7234 -0.0172  0.5107
 6963SOL    HW221468   0.881   2.694   0.028 -0.3910 -0.8219 -0.9816
 6964SOL     OW21469   6.439   3.629   9.505 -0.3551  0.2180 -0.0691
 6964SOL    HW121470   6.495   3.705   9.522 -0.0013 -0.0400 -0.0659
 6964SOL    HW221471   6.500   3.555   9.500 -0.7575 -0.1668  0.5512
 6965SOL     OW21472   1.144   7.252   8.621 -0.0214  0.1129  0.1606
 6965SOL    HW121473   1.187   7.194   8.558 -1.0078  0.3851 -0.7771
 6965SOL    HW221474   1.126   7.332   8.573 -0.2331  0.5669  0.9698
 6966SOL     OW21475   0.256   3.127   6.119 -0.2118 -0.3037 -0.2560
 6966SOL    HW121476   0.221   3.212   6.145 -1.3780 -0.3250 -1.6428
 6966SOL    HW221477   0.200   3.064   6.163  1.0618 -0.4012  1.3073
 6967SOL     OW21478   0.016   4.512   7.443  0.3197  0.5047  0.5262
 6967SOL    HW121479  -0.029   4.487   7.363 -1.8618  2.9593  0.8527
 6967SOL    HW221480   0.106   4.482   7.431 -0.6283 -1.7629 -1.5482
 6968SOL     OW21481   5.183   2.890   4.433 -0.1788  0.2553  0.2882
 6968SOL    HW121482   5.232   2.920   4.356  0.0429 -1.3171 -0.2072
 6968SOL    HW221483   5.248   2.886   4.503 -0.4645  2.1054  0.7206
 6969SOL     OW21484   8.180   7.811   0.206 -0.3910 -0.5158 -0.9710
 6969SOL    HW121485   8.196   7.856   0.123 -1.9225  0.5118 -0.7575
 6969SOL    HW221486   8.086   7.818   0.219 -0.3317 -1.6928  0.2886
 6970SOL     OW21487   2.754   5.325   4.589  0.0244 -0.1492 -0.0399
 6970SOL    HW121488   2.780   5.233   4.586  0.4230 -0.0045 -2.4652
 6970SOL    HW221489   2.831   5.370   4.623 -0.4257 -0.7305  1.9052
 6971SOL     OW21490   8.592   9.419   9.958  0.4068  1.3885  0.1507
 6971SOL    HW121491   8.554   9.484   9.899 -0.7585  0.8450  0.2703
 6971SOL    HW221492   8.645   9.362   9.902 -1.5046  0.2542 -0.5981
 6972SOL     OW21493   5.638   2.395   4.398  0.8500 -0.2164  0.1215
 6972SOL    HW121494   5.709   2.454   4.371  0.9963 -0.4879 -0.0983
 6972SOL    HW221495   5.615   2.424   4.487  0.1031  0.9340 -0.4248
 6973SOL     OW21496   9.864   5.093   7.538  0.4795  0.3928 -0.0748
 6973SOL    HW121497   9.785   5.132   7.499  0.3149  1.0289  0.8833
 6973SOL    HW221498   9.854   5.106   7.632  0.1226 -2.5242  0.3663
 6974SOL     OW21499   0.117   9.605   3.481  0.1590 -0.0490 -0.5410
 6974SOL    HW121500   0.104   9.552   3.402  2.1861  0.3239 -1.1694
 6974SOL    HW221501   0.078   9.689   3.460 -1.0916 -0.5665 -0.3705
 6975SOL     OW21502   2.135   2.724   6.862 -0.6007  0.3063 -0.3998
 6975SOL    HW121503   2.162   2.681   6.782  1.0635 -1.2305  0.9049
 6975SOL    HW221504   2.213   2.771   6.892 -1.4240  1.5198 -0.0669
 6976SOL     OW21505   2.488   8.117   9.565 -0.0016  0.5482 -0.2552
 6976SOL    HW121506   2.418   8.181   9.576  0.0407  0.5081  0.3013
 6976SOL    HW221507   2.446   8.033   9.585  0.0253  0.4367 -0.6531
 6977SOL     OW21508   1.330   5.767   9.183  0.2948 -0.0834  0.3768
 6977SOL    HW121509   1.393   5.745   9.251 -0.7139 -0.2719  1.2749
 6977SOL    HW221510   1.245   5.744   9.220 -0.2835 -0.2491 -0.9720
 6978SOL     OW21511   6.712   6.169   3.620 -0.2027  0.7450 -0.3291
 6978SOL    HW121512   6.691   6.105   3.688  0.3572  0.7484 -0.1524
 6978SOL    HW221513   6.688   6.125   3.538  0.0317  0.3695 -0.1961
 6979SOL     OW21514   3.770   6.655   9.861  0.2661  0.3072  0.1948
 6979SOL    HW121515   3.712   6.580   9.874  1.7492 -0.8695  0.2559
 6979SOL    HW221516   3.837   6.623   9.800 -0.2770  2.2619 -1.5514
 6980SOL     OW21517   0.633   2.684   9.049 -0.6467  0.0149  0.9792
 6980SOL    HW121518   0.690   2.759   9.066  0.6417 -0.7025  0.0089
 6980SOL    HW221519   0.549   2.709   9.087 -0.4562  2.2329  0.1024
 6981SOL     OW21520   0.928   4.989   6.524 -0.0030  0.2627  0.7964
 6981SOL    HW121521   0.930   4.903   6.482 -1.4705 -0.1054  1.4226
 6981SOL    HW221522   0.950   5.051   6.454 -1.3720 -0.4196 -0.2698
 6982SOL     OW21523   2.603   7.650   3.087 -0.7256  0.0151 -0.8939
 6982SOL    HW121524   2.661   7.699   3.144  0.4333 -0.5943 -1.5190
 6982SOL    HW221525   2.581   7.571   3.137 -0.0618 -0.3100 -1.1038
 6983SOL     OW21526   5.569   5.113   6.156  0.3198  0.2607  0.1285
 6983SOL    HW121527   5.593   5.071   6.239 -0.6609  1.7185  1.2062
 6983SOL    HW221528   5.612   5.199   6.159  1.0958 -0.0474 -1.3567
 6984SOL     OW21529   2.297   7.398   4.132  0.1750  0.1759 -0.5007
 6984SOL    HW121530   2.266   7.366   4.048 -1.3593 -1.4021  0.5937
 6984SOL    HW221531   2.220   7.434   4.175  0.8206  0.4981  0.4383
 6985SOL     OW21532   8.376   5.473   9.206  0.3032 -0.3557  0.6874
 6985SOL    HW121533   8.443   5.494   9.271  0.3422  2.2033 -0.0892
 6985SOL    HW221534   8.340   5.558   9.180 -1.9529 -1.5279 -0.2915
 6986SOL     OW21535   6.702   3.000   8.332  0.0996 -0.0846  0.6388
 6986SOL    HW121536   6.661   3.085   8.348  0.3761 -0.2176  2.3077
 6986SOL    HW221537   6.793   3.012   8.359  0.2339 -0.8061  0.5383
 6987SOL     OW21538   9.876   6.838   8.715 -0.0054  0.0015 -0.2736
 6987SOL    HW121539   9.842   6.926   8.701 -1.5973 -0.7833 -1.6369
 6987SOL    HW221540   9.807   6.793   8.764  0.1934 -0.8562 -0.7541
 6988SOL     OW21541   2.917   7.571   6.718 -0.3187  0.0432 -0.0901
 6988SOL    HW121542   2.970   7.583   6.639 -1.0283 -2.4120 -1.0525
 6988SOL    HW221543   2.859   7.647   6.719 -1.0370 -0.3563 -2.6237
 6989SOL     OW21544   1.251   1.863   8.596  0.5430 -0.2913  0.1816
 6989SOL    HW121545   1.329   1.832   8.550  0.6802  0.5566 -0.1762
 6989SOL    HW221546   1.178   1.845   8.537  0.6785  0.4747 -0.2373
 6990SOL     OW21547   8.444   3.647   2.618  0.5640 -0.0135  0.0279
 6990SOL    HW121548   8.414   3.570   2.667 -1.0918  0.3656 -0.3114
 6990SOL    HW221549   8.401   3.721   2.660 -0.1418  0.4182 -1.3672
 6991SOL     OW21550   3.511   4.702   9.713  0.3840  0.0451  0.1719
 6991SOL    HW121551   3.521   4.609   9.694 -0.9831 -0.3050  1.0385
 6991SOL    HW221552   3.544   4.712   9.802  1.0238  0.5019 -0.1092
 6992SOL     OW21553   5.589   2.749   8.187  0.5453 -0.0425  0.3345
 6992SOL    HW121554   5.684   2.754   8.175  0.4202 -0.1184 -0.8391
 6992SOL    HW221555   5.577   2.750   8.281  1.8221 -1.7711  0.5747
 6993SOL     OW21556   2.006   9.442   3.155  0.2588 -0.6234 -0.2271
 6993SOL    HW121557   2.057   9.364   3.133 -1.1431 -1.4016 -0.7802
 6993SOL    HW221558   1.971   9.424   3.243  1.2033  0.0730  0.3174
 6994SOL     OW21559   3.479   9.522   2.978 -0.2633 -0.0762 -0.4897
 6994SOL    HW121560   3.444   9.467   3.048  1.3696 -0.7809 -0.1749
 6994SOL    HW221561   3.566   9.486   2.961 -0.3128  0.5755 -2.3461
 6995SOL     OW21562   7.604   8.564   2.294  0.5501  0.2282 -0.0022
 6995SOL    HW121563   7.628   8.528   2.209 -0.1395  1.7506 -0.8824
 6995SOL    HW221564   7.688   8.585   2.336  0.9024 -0.8035 -0.1444
 6996SOL     OW21565   3.013   3.482   9.627  0.2143  0.2979 -0.1395
 6996SOL    HW121566   2.932   3.466   9.578  0.8975 -0.8646 -0.9337
 6996SOL    HW221567   3.061   3.399   9.622  1.1752  0.7757  0.8568
 6997SOL     OW21568   0.450   3.702   8.493  0.2461  0.5654 -0.1271
 6997SOL    HW121569   0.470   3.623   8.443  0.3090  0.3417  0.2513
 6997SOL    HW221570   0.453   3.772   8.428 -1.0627  0.1076 -0.7310
 6998SOL     OW21571   6.773   0.945   3.982 -0.0487 -0.3356 -0.3374
 6998SOL    HW121572   6.770   0.894   4.062 -2.9738 -0.2049 -0.2325
 6998SOL    HW221573   6.776   0.880   3.912 -0.6895 -0.5963 -0.1373
 6999SOL     OW21574   6.635   0.900   2.790 -0.4300  0.1077  0.8017
 6999SOL    HW121575   6.610   0.955   2.715 -0.6293 -1.2685 -0.1704
 6999SOL    HW221576   6.570   0.921   2.857 -1.5167 -0.1696 -0.1454
 7000SOL     OW21577   0.984   2.470   2.513  0.1946 -0.3641  0.0803
 7000SOL    HW121578   0.970   2.455   2.419  1.8608  1.6618 -0.5705
 7000SOL    HW221579   1.035   2.550   2.517 -0.3596 -0.0489  2.7916
 7001SOL     OW21580   0.922   1.989   0.827  0.4623  0.7368  0.5693
 7001SOL    HW121581   0.922   1.961   0.918 -0.1056  2.5108  1.1615
 7001SOL    HW221582   0.845   1.948   0.789  0.4504  0.3499  1.0000
 7002SOL     OW21583   1.282   5.084   0.922  1.1222  0.2699 -0.0275
 7002SOL    HW121584   1.371   5.054   0.903  0.9023  0.7387 -1.9768
 7002SOL    HW221585   1.226   5.024   0.874  0.1567 -1.5807  3.1361
 7003SOL     OW21586   1.275   3.033   9.801  0.0469  0.6879  0.0334
 7003SOL    HW121587   1.291   3.127   9.805  1.6509  0.4225  3.5649
 7003SOL    HW221588   1.362   2.993   9.803 -0.5381 -0.7704  3.6687
 7004SOL     OW21589   2.906   2.992   1.368 -0.1681 -0.3663  0.2875
 7004SOL    HW121590   2.863   3.046   1.434 -0.9168 -1.0463  0.3766
 7004SOL    HW221591   2.852   2.912   1.364  2.1013 -2.1133  1.8097
 7005SOL     OW21592   5.635   4.993   0.643  0.3018  0.2006  0.1520
 7005SOL    HW121593   5.657   5.005   0.550 -1.9709 -0.5586 -0.5394
 7005SOL    HW221594   5.545   5.024   0.651  0.5066  0.3993  2.1659
 7006SOL     OW21595   7.467   4.661   3.920 -0.5373 -0.2553  0.0688
 7006SOL    HW121596   7.434   4.744   3.953  0.8067 -0.0504  0.9739
 7006SOL    HW221597   7.406   4.595   3.953 -1.3312  0.3115 -0.2440
 7007SOL     OW21598   2.932   3.021   9.132  0.1100 -0.5074  0.3239
 7007SOL    HW121599   2.860   3.076   9.160  1.5953  0.8560  1.6564
 7007SOL    HW221600   2.913   2.935   9.169  0.1961  0.3728  2.5055
 7008SOL     OW21601   5.925   0.742   1.836 -0.4215 -0.1687 -0.0497
 7008SOL    HW121602   6.012   0.723   1.801 -0.8378 -0.8832 -0.7262
 7008SOL    HW221603   5.919   0.689   1.916 -0.4965 -0.6803 -0.3893
 7009SOL     OW21604   6.145   0.490   4.781 -0.3543  0.2513 -0.0579
 7009SOL    HW121605   6.106   0.440   4.710 -0.8478  0.6678 -0.0894
 7009SOL    HW221606   6.196   0.426   4.831  1.3822  0.2600 -1.7297
 7010SOL     OW21607   8.510   5.414   5.543  0.4419 -0.3018  0.4601
 7010SOL    HW121608   8.478   5.502   5.522  1.8145  0.2561  0.6483
 7010SOL    HW221609   8.486   5.362   5.467 -1.4584 -0.0698  0.8460
 7011SOL     OW21610   4.844   0.945   0.890 -0.5994  0.3745  0.0753
 7011SOL    HW121611   4.877   1.035   0.894 -1.0626  0.5162  0.9657
 7011SOL    HW221612   4.796   0.941   0.808  0.0426  0.7129 -0.3335
 7012SOL     OW21613   5.070   2.135   5.964  0.0219  0.0372  0.3450
 7012SOL    HW121614   5.044   2.185   6.042  0.2182 -1.3424  1.3234
 7012SOL    HW221615   4.991   2.134   5.909 -0.8010 -0.7266  1.4821
 7013SOL     OW21616   8.099   7.211   1.470  0.3025 -0.0983 -0.6935
 7013SOL    HW121617   8.077   7.131   1.422 -2.7579 -0.4545  1.0378
 7013SOL    HW221618   8.015   7.257   1.479  1.2173  1.2383  1.9606
 7014SOL     OW21619   5.797   6.070   3.488  0.4108  0.4504 -0.4894
 7014SOL    HW121620   5.799   6.164   3.469 -0.1023  0.4320 -0.6683
 7014SOL    HW221621   5.776   6.064   3.581 -0.7743  0.5113 -0.7339
 7015SOL     OW21622   9.410   1.269   4.904  0.4068  0.5845  0.0303
 7015SOL    HW121623   9.318   1.296   4.915  0.3866  1.2014 -1.4227
 7015SOL    HW221624   9.415   1.182   4.945 -0.2765  1.4412  2.0821
 7016SOL     OW21625   3.324   0.601   7.716 -0.7055  0.1152 -0.4215
 7016SOL    HW121626   3.415   0.624   7.734 -0.7419  0.4637 -0.6789
 7016SOL    HW221627   3.317   0.606   7.621 -0.9803  0.0389 -0.4040
 7017SOL     OW21628   3.140   7.364   8.895  0.3604  0.7695 -0.8465
 7017SOL    HW121629   3.212   7.419   8.867 -0.0125  0.9220 -1.5272
 7017SOL    HW221630   3.108   7.406   8.975  0.2828  1.3643 -1.1817
 7018SOL     OW21631   9.610   1.785   8.686 -0.4430  0.2423  0.1638
 7018SOL    HW121632   9.547   1.714   8.675 -0.2437  0.2359 -1.1152
 7018SOL    HW221633   9.694   1.741   8.700 -0.8753  0.2359  3.3586
 7019SOL     OW21634   8.613   8.913   4.051  0.4348 -0.3564 -0.2575
 7019SOL    HW121635   8.519   8.928   4.060  0.5861  2.4644 -2.1130
 7019SOL    HW221636   8.625   8.893   3.958  1.8489  1.7015 -0.5849
 7020SOL     OW21637   2.288   9.760   8.974 -0.1827 -0.0274  0.2497
 7020SOL    HW121638   2.376   9.724   8.978  1.1882  3.0937  1.4010
 7020SOL    HW221639   2.268   9.766   8.880  0.9385 -0.4470 -0.0275
 7021SOL     OW21640   4.752   0.548   8.178 -0.0645 -0.0200  0.1556
 7021SOL    HW121641   4.808   0.620   8.148 -0.2866  1.2841  2.6114
 7021SOL    HW221642   4.790   0.523   8.263 -1.6929 -0.8420  0.6737
 7022SOL     OW21643   0.626   2.140   9.142  0.0990 -0.1818  0.3333
 7022SOL    HW121644   0.599   2.215   9.090 -0.0547 -0.1078  0.5171
 7022SOL    HW221645   0.718   2.127   9.121 -0.2997 -1.0022 -1.0057
 7023SOL     OW21646   3.044   0.432   3.700 -0.7058 -0.0174 -0.4009
 7023SOL    HW121647   3.030   0.519   3.737 -1.3776 -1.1762  2.2749
 7023SOL    HW221648   3.004   0.436   3.613 -0.8724  2.2679 -0.2643
 7024SOL     OW21649   0.610   2.380   2.105  0.3383  0.1208 -0.3935
 7024SOL    HW121650   0.679   2.446   2.095  1.0477 -0.6075 -0.4261
 7024SOL    HW221651   0.629   2.338   2.189  1.1648 -1.4535 -1.3336
 7025SOL     OW21652   3.709   9.340   4.790  0.4480  0.4935  0.0437
 7025SOL    HW121653   3.804   9.349   4.791  0.3965  1.1646  1.5694
 7025SOL    HW221654   3.692   9.261   4.841  0.1703  0.6402  0.1811
 7026SOL     OW21655   0.575   8.683   0.914  0.0405 -0.0567 -0.3536
 7026SOL    HW121656   0.544   8.747   0.849 -3.4797  1.4918  2.4917
 7026SOL    HW221657   0.511   8.612   0.910  1.8424 -1.7669 -0.8998
 7027SOL     OW21658   3.760   8.064   9.173  0.0177 -0.1798  0.2091
 7027SOL    HW121659   3.791   7.978   9.202 -0.7773 -0.1487  1.1998
 7027SOL    HW221660   3.697   8.091   9.240 -0.7839  0.5650 -0.8051
 7028SOL     OW21661   8.662   5.261   7.908 -0.0418 -0.5516 -0.2230
 7028SOL    HW121662   8.722   5.334   7.891 -0.9404  0.0146 -1.0674
 7028SOL    HW221663   8.673   5.203   7.833 -1.1547 -0.0202 -0.8104
 7029SOL     OW21664   2.224   6.862   4.721  0.3696  0.0414  0.0510
 7029SOL    HW121665   2.254   6.912   4.797 -0.8665  1.9298 -0.6328
 7029SOL    HW221666   2.184   6.928   4.663  0.9810 -1.3712 -2.1052
 7030SOL     OW21667   0.664   7.859   7.022  0.2945  0.2365  0.7322
 7030SOL    HW121668   0.660   7.949   7.054  0.4596  1.2244 -1.7764
 7030SOL    HW221669   0.736   7.860   6.958 -1.6331 -0.8514 -1.6004
 7031SOL     OW21670   6.257   3.574   4.882 -0.6778  0.1780  0.0578
 7031SOL    HW121671   6.213   3.619   4.810  1.8114  0.5365 -1.3630
 7031SOL    HW221672   6.269   3.484   4.850  0.7924  0.4390 -0.2093
 7032SOL     OW21673   8.750   9.452   8.706 -0.3670  0.2068  0.3931
 7032SOL    HW121674   8.685   9.514   8.671  0.0308  0.1469 -0.4646
 7032SOL    HW221675   8.704   9.368   8.707  0.2595 -0.2484 -2.0849
 7033SOL     OW21676   0.282   3.168   7.927 -0.1061 -0.4379 -0.0846
 7033SOL    HW121677   0.362   3.162   7.874 -0.1483  1.6444 -0.4867
 7033SOL    HW221678   0.212   3.175   7.862 -0.4969 -0.9636  0.2754
 7034SOL     OW21679   7.383   4.466   1.166 -0.4232 -0.4003 -0.4206
 7034SOL    HW121680   7.458   4.450   1.108 -1.2809  0.8780 -1.9791
 7034SOL    HW221681   7.391   4.559   1.189  0.7459 -1.2032  2.8614
 7035SOL     OW21682   4.190   8.493   8.557 -0.5484 -0.2695 -0.1533
 7035SOL    HW121683   4.272   8.473   8.513 -1.5638 -0.2844 -2.1242
 7035SOL    HW221684   4.214   8.560   8.621  1.3093 -1.5937  0.6315
 7036SOL     OW21685   5.009   9.581   5.218  0.2403 -0.1393  0.1041
 7036SOL    HW121686   5.096   9.544   5.234  0.2739  0.4779  1.5118
 7036SOL    HW221687   4.951   9.531   5.276  0.1354  1.3191  1.3285
 7037SOL     OW21688   5.394   6.059   5.425 -0.2847 -0.1900 -0.1127
 7037SOL    HW121689   5.395   5.971   5.387 -0.0127  0.3087 -1.2919
 7037SOL    HW221690   5.367   6.045   5.516  3.0703 -1.9052  0.8130
 7038SOL     OW21691   2.564   1.553   5.516  0.7484  0.5514 -0.2570
 7038SOL    HW121692   2.492   1.572   5.457  1.3919 -0.6990 -1.5202
 7038SOL    HW221693   2.641   1.593   5.475  0.8127  1.9375  1.1095
 7039SOL     OW21694   7.680   0.696   9.975  0.3472 -0.1987 -0.3255
 7039SOL    HW121695   7.616   0.719  10.043  0.9022  0.0382  0.1336
 7039SOL    HW221696   7.635   0.712   9.893 -0.1447  0.0748 -0.0077
 7040SOL     OW21697   2.531   4.629   4.270 -0.1135 -0.0816  0.0231
 7040SOL    HW121698   2.622   4.628   4.239 -0.5570  0.2905 -1.3684
 7040SOL    HW221699   2.506   4.537   4.274 -0.2066 -0.1334 -1.2974
 7041SOL     OW21700   0.206   3.903   0.309 -0.8648  0.3301  0.3105
 7041SOL    HW121701   0.184   3.842   0.379  0.0004  1.7802  1.9044
 7041SOL    HW221702   0.298   3.925   0.324 -0.8727  1.2420 -0.8438
 7042SOL     OW21703   3.273   3.253   7.798 -0.3191 -0.3454  0.4071
 7042SOL    HW121704   3.291   3.238   7.890 -0.3576 -1.4768  0.2397
 7042SOL    HW221705   3.357   3.239   7.754  0.1767  2.0704  0.4374
 7043SOL     OW21706   9.541   8.986   4.529  0.1284 -0.0717  0.1199
 7043SOL    HW121707   9.635   8.981   4.546  0.2404  0.4185 -0.3174
 7043SOL    HW221708   9.535   8.986   4.434 -0.2188  1.3056  0.1227
 7044SOL     OW21709   4.474   7.237   9.412  0.4726  0.4006 -0.8037
 7044SOL    HW121710   4.378   7.237   9.407  0.3424 -1.2096  0.4081
 7044SOL    HW221711   4.494   7.285   9.492  0.7117  1.1040 -1.2805
 7045SOL     OW21712   1.797   8.252   6.220 -0.1841  0.2216 -0.5857
 7045SOL    HW121713   1.713   8.224   6.184 -1.9055 -0.2694  3.3065
 7045SOL    HW221714   1.820   8.184   6.283  2.2734  1.2487 -0.2736
 7046SOL     OW21715   6.651   1.602   2.458 -0.0795  0.1202  0.0947
 7046SOL    HW121716   6.644   1.696   2.473 -0.0287  0.0480  0.6070
 7046SOL    HW221717   6.709   1.593   2.382 -2.4169  0.5931 -1.8545
 7047SOL     OW21718   8.463   1.025   3.221 -0.1723 -0.0434 -0.0096
 7047SOL    HW121719   8.523   1.095   3.195  0.6138 -0.2407  1.2397
 7047SOL    HW221720   8.382   1.045   3.172 -0.0927  1.9340  0.5568
 7048SOL     OW21721   4.664   2.588   3.641  0.2536 -0.3089  0.3415
 7048SOL    HW121722   4.696   2.634   3.564  0.9687 -0.4362  0.5505
 7048SOL    HW221723   4.606   2.520   3.607  0.1631 -0.0342 -0.0462
 7049SOL     OW21724   0.211   4.538   2.622  0.6795 -0.4773  0.5161
 7049SOL    HW121725   0.243   4.458   2.580  2.2342  0.8155 -0.8911
 7049SOL    HW221726   0.118   4.542   2.599  1.0720 -0.7955 -1.2308
 7050SOL     OW21727   6.598   1.028   4.660 -0.0069 -0.0423  0.3696
 7050SOL    HW121728   6.572   0.964   4.594  0.8097  0.6305 -0.6432
 7050SOL    HW221729   6.615   1.108   4.610 -0.1475  0.7224  1.4992
 7051SOL     OW21730   3.901   8.206   3.041  0.2956  0.7604 -0.7059
 7051SOL    HW121731   3.832   8.176   3.100  0.4428  0.5849 -0.6234
 7051SOL    HW221732   3.959   8.259   3.096  1.6278 -1.1579 -0.1789
 7052SOL     OW21733   2.104   0.823   4.684  0.6268  0.0732 -0.3314
 7052SOL    HW121734   2.019   0.867   4.694  0.0606 -0.4792 -2.2724
 7052SOL    HW221735   2.098   0.746   4.740  0.6369  1.0861  1.1001
 7053SOL     OW21736   9.144   3.427   1.041 -0.2537  0.2004  0.4099
 7053SOL    HW121737   9.188   3.342   1.046 -0.3417  0.1623  0.5267
 7053SOL    HW221738   9.098   3.426   0.957  1.0771  0.7682 -0.3578
 7054SOL     OW21739   1.229   0.736   9.800 -0.2402  0.0859 -0.0669
 7054SOL    HW121740   1.204   0.771   9.885  1.9690  1.0226  0.2652
 7054SOL    HW221741   1.200   0.803   9.737  0.3681  0.6119  0.2017
 7055SOL     OW21742   9.450   0.147   6.035 -0.2786 -0.3476 -0.0514
 7055SOL    HW121743   9.453   0.172   6.128  0.5885 -1.7833  0.3491
 7055SOL    HW221744   9.387   0.075   6.032 -1.2129  0.4749 -0.8101
 7056SOL     OW21745   7.558   4.225   7.158 -0.0495  0.1868  0.1143
 7056SOL    HW121746   7.475   4.192   7.191 -0.3102  1.6928  1.0688
 7056SOL    HW221747   7.542   4.241   7.065 -0.8724  0.5800  0.3120
 7057SOL     OW21748   6.728   9.476   5.844 -0.4305  0.5344 -0.5363
 7057SOL    HW121749   6.805   9.513   5.801 -0.6074  1.6259  0.0645
 7057SOL    HW221750   6.688   9.420   5.777  0.7266  0.1551 -0.9373
 7058SOL     OW21751   4.826   3.494   9.504 -0.1398 -0.3161  0.4617
 7058SOL    HW121752   4.827   3.419   9.564  0.6178 -0.7473 -0.0667
 7058SOL    HW221753   4.914   3.531   9.510  0.6947 -1.6515 -1.9003
 7059SOL     OW21754   7.349   8.176   6.873  0.1230 -0.3595  0.6196
 7059SOL    HW121755   7.269   8.135   6.907  0.5003  0.1820  2.2492
 7059SOL    HW221756   7.324   8.266   6.855  0.2576 -0.3155  0.6555
 7060SOL     OW21757   1.668   8.056   3.671 -0.4627  0.2208 -0.0067
 7060SOL    HW121758   1.632   8.065   3.760 -0.1515  0.2083  0.1208
 7060SOL    HW221759   1.606   7.997   3.627 -0.1275 -0.5214  0.4815
 7061SOL     OW21760   3.604   0.554   0.827  0.5733 -0.2337 -0.2158
 7061SOL    HW121761   3.618   0.649   0.827  1.3083 -0.3388 -0.1527
 7061SOL    HW221762   3.576   0.534   0.737  0.2680  0.0646 -0.1870
 7062SOL     OW21763   2.058   5.440   5.058 -0.3769  0.1041 -0.3342
 7062SOL    HW121764   2.122   5.511   5.053 -0.5810  0.2150 -1.7257
 7062SOL    HW221765   1.992   5.462   4.992 -0.2678 -1.5419 -1.0464
 7063SOL     OW21766   0.775   5.914   7.689 -0.1750 -0.0506  1.0744
 7063SOL    HW121767   0.853   5.890   7.639  1.9463  1.2718  3.4887
 7063SOL    HW221768   0.704   5.914   7.624  2.0573  0.1005 -1.5685
 7064SOL     OW21769   0.396   4.357   1.082 -0.4957 -0.2929 -0.3229
 7064SOL    HW121770   0.348   4.394   1.156  0.6972 -0.6347  0.6562
 7064SOL    HW221771   0.343   4.380   1.005 -1.0765  1.2563  0.4908
 7065SOL     OW21772   3.634   9.869   5.731  0.0349 -0.1508 -0.4402
 7065SOL    HW121773   3.709   9.928   5.731  0.5526 -0.7854  1.0700
 7065SOL    HW221774   3.667   9.786   5.697 -0.1435 -0.2399 -0.4006
 7066SOL     OW21775   6.703   7.066   7.471  0.0197 -0.6354  0.4476
 7066SOL    HW121776   6.712   7.136   7.407 -1.4825  0.2758  1.1545
 7066SOL    HW221777   6.786   7.065   7.519  0.0930  0.6194  0.3616
 7067SOL     OW21778   3.915   2.118   1.318 -0.0985 -0.1936  0.0808
 7067SOL    HW121779   3.980   2.086   1.256  0.4179 -1.3129  1.1652
 7067SOL    HW221780   3.845   2.154   1.263  0.3211 -1.1956 -1.1490
 7068SOL     OW21781   9.596   8.446   2.514 -0.2241 -0.2154  0.0947
 7068SOL    HW121782   9.551   8.364   2.491  0.2543 -0.6614  0.6943
 7068SOL    HW221783   9.574   8.460   2.607  1.8586 -1.1394  0.7942
 7069SOL     OW21784   4.366   4.395   6.476  0.2425  0.2507 -0.0234
 7069SOL    HW121785   4.366   4.491   6.467 -0.9069  0.1967 -0.8011
 7069SOL    HW221786   4.333   4.363   6.392 -1.3175 -0.7407  0.9100
 7070SOL     OW21787   7.697   3.232   4.928 -0.0414 -0.0064  0.1019
 7070SOL    HW121788   7.690   3.137   4.918  0.7840 -0.0191 -0.5692
 7070SOL    HW221789   7.611   3.266   4.903 -0.2069 -0.5507 -0.0788
 7071SOL     OW21790   0.200   7.140   8.006  0.2334 -0.6095 -0.6290
 7071SOL    HW121791   0.137   7.196   7.960 -1.2971 -1.7616 -0.0247
 7071SOL    HW221792   0.262   7.201   8.046 -0.6419  0.5823 -1.0278
 7072SOL     OW21793   4.008   0.093   0.280 -0.8886 -0.3033 -0.5126
 7072SOL    HW121794   3.923   0.117   0.317 -0.5903 -0.7821  0.5070
 7072SOL    HW221795   4.070   0.106   0.352  0.0178  0.6928 -1.4299
 7073SOL     OW21796   0.715   2.166   5.721 -0.4355 -0.1319  0.0519
 7073SOL    HW121797   0.681   2.142   5.634 -0.5091 -0.0124  0.0472
 7073SOL    HW221798   0.804   2.132   5.721 -0.5179 -0.3518  0.0236
 7074SOL     OW21799   1.476   2.987   5.134 -0.1264  0.1016 -0.2566
 7074SOL    HW121800   1.466   3.020   5.224 -2.3910 -0.1101 -0.3752
 7074SOL    HW221801   1.488   3.066   5.081  3.5396  0.1498  0.3632
 7075SOL     OW21802   9.252   0.506   7.995 -0.0883  0.0707  0.2198
 7075SOL    HW121803   9.324   0.552   7.952  1.3718  1.3664  3.7254
 7075SOL    HW221804   9.205   0.575   8.043 -1.4875 -1.2810  0.8661
 7076SOL     OW21805   8.904   3.581   2.990 -0.9196  0.3023 -0.4554
 7076SOL    HW121806   8.930   3.517   3.056 -1.5110  0.2304 -0.2889
 7076SOL    HW221807   8.986   3.622   2.962 -0.4141 -1.1226 -1.1776
 7077SOL     OW21808   4.323   7.896   7.245  0.3098 -0.5868 -0.0632
 7077SOL    HW121809   4.383   7.943   7.187  0.2742 -1.9678 -1.2859
 7077SOL    HW221810   4.236   7.929   7.222  0.4169 -0.1014  0.2230
 7078SOL     OW21811   5.653   9.796   7.677  0.3509 -0.4560 -0.7331
 7078SOL    HW121812   5.597   9.817   7.752 -0.4175 -0.7695 -1.2064
 7078SOL    HW221813   5.598   9.812   7.600  1.8278  2.0859 -1.3766
 7079SOL     OW21814   6.034   4.496   5.045  0.1726  0.5504 -0.4517
 7079SOL    HW121815   6.051   4.403   5.059 -0.7933  0.1366 -1.8419
 7079SOL    HW221816   6.020   4.531   5.132 -1.2391 -0.9829 -0.0022
 7080SOL     OW21817   4.494   7.487   9.222 -0.5774  0.3210  0.5712
 7080SOL    HW121818   4.512   7.408   9.272 -0.8653 -0.1009  0.0121
 7080SOL    HW221819   4.476   7.553   9.289  0.6033  0.1708  1.0781
 7081SOL     OW21820   8.355   9.210   1.889  0.3397  0.3225  0.2166
 7081SOL    HW121821   8.405   9.287   1.861  0.9534  0.2153  0.9890
 7081SOL    HW221822   8.411   9.135   1.867  0.4129  0.1862  0.8493
 7082SOL     OW21823   7.414   8.522   3.548  0.3138 -0.4585 -0.0075
 7082SOL    HW121824   7.463   8.563   3.620  1.9366 -2.1508 -0.0529
 7082SOL    HW221825   7.411   8.429   3.572 -1.2183 -0.6996 -0.9935
 7083SOL     OW21826   8.835   7.388   7.146  0.5308  0.3070  0.2171
 7083SOL    HW121827   8.844   7.383   7.241  1.3674 -2.8813  0.0876
 7083SOL    HW221828   8.793   7.305   7.121  2.4592 -0.0176 -2.3602
 7084SOL     OW21829   7.294   0.569   1.431  0.2071 -0.0724 -0.4869
 7084SOL    HW121830   7.347   0.542   1.506 -0.2948 -0.2778 -0.1990
 7084SOL    HW221831   7.354   0.618   1.375  1.0412 -1.4022 -0.8012
 7085SOL     OW21832   1.768   8.956   8.875  0.1858 -0.4587  0.2373
 7085SOL    HW121833   1.773   9.030   8.815 -0.9800 -2.0726 -1.9833
 7085SOL    HW221834   1.675   8.933   8.877  0.7105 -2.9977 -0.6923
 7086SOL     OW21835   8.469   8.404   1.219  0.0794  0.0307  0.1666
 7086SOL    HW121836   8.495   8.323   1.175  0.0822 -0.9303  1.8800
 7086SOL    HW221837   8.462   8.381   1.311 -0.6920  1.8025  0.5985
 7087SOL     OW21838   3.322   6.127   7.813 -0.4945  0.2079  0.3623
 7087SOL    HW121839   3.393   6.065   7.828  0.6188  1.8983  2.8274
 7087SOL    HW221840   3.248   6.089   7.862 -0.7222 -0.5686 -0.5545
 7088SOL     OW21841   8.995   8.117   6.051 -0.0420  0.3686 -0.4522
 7088SOL    HW121842   9.026   8.158   5.970 -0.8168 -0.0622 -0.9831
 7088SOL    HW221843   8.952   8.188   6.099  0.4332  0.6309 -0.4056
 7089SOL     OW21844   4.915   0.580   1.016 -0.2463  0.4879 -0.5874
 7089SOL    HW121845   4.983   0.604   0.954 -0.6783 -1.2243 -1.7845
 7089SOL    HW221846   4.874   0.502   0.979 -1.8727  0.5853  0.8451
 7090SOL     OW21847   8.160   9.141   6.856  0.2717 -0.1843 -0.1571
 7090SOL    HW121848   8.217   9.184   6.920  0.4230  0.8028 -0.9406
 7090SOL    HW221849   8.218   9.116   6.785 -0.2749  1.0254 -1.0591
 7091SOL     OW21850   0.049   3.592   8.837  0.1781 -0.1482  0.1620
 7091SOL    HW121851   0.119   3.591   8.902 -0.6672  0.2478  1.1102
 7091SOL    HW221852   0.091   3.564   8.756  1.5050  0.4007  0.6235
 7092SOL     OW21853   2.438   7.372   0.709  0.0834  0.1327  0.4623
 7092SOL    HW121854   2.358   7.395   0.756  0.1702 -1.5239  1.5047
 7092SOL    HW221855   2.502   7.354   0.778  0.3024 -2.0616 -0.2399
 7093SOL     OW21856   9.334   7.354   0.596 -0.5320  0.5571  0.0691
 7093SOL    HW121857   9.415   7.363   0.646  1.0300  0.0257 -2.2339
 7093SOL    HW221858   9.338   7.424   0.531 -0.5252 -1.1463 -1.8512
 7094SOL     OW21859   5.787   8.013   8.573 -0.4161  0.0249 -0.3678
 7094SOL    HW121860   5.801   7.932   8.524 -2.4434  0.3020 -1.5190
 7094SOL    HW221861   5.692   8.027   8.570 -0.3867  1.1891  1.8730
 7095SOL     OW21862   8.995   0.117   5.935 -0.6680 -0.3862 -0.1846
 7095SOL    HW121863   8.963   0.033   5.968 -1.7630 -0.0247 -0.2812
 7095SOL    HW221864   8.918   0.175   5.938  0.3540  1.0048  1.1530
 7096SOL     OW21865   0.103   0.358   9.750  0.3465  0.2653  0.2691
 7096SOL    HW121866   0.116   0.265   9.733  0.0753  0.5306 -1.6204
 7096SOL    HW221867   0.008   0.368   9.760  0.5848 -0.1308  3.9163
 7097SOL     OW21868   8.294   9.859   1.682  0.3522 -0.3238 -0.2062
 7097SOL    HW121869   8.324   9.937   1.728  1.5782 -1.4884  1.0650
 7097SOL    HW221870   8.225   9.823   1.738  1.8516 -1.7494  0.8128
 7098SOL     OW21871   6.247   9.376   6.532  0.3760  0.0475 -0.5910
 7098SOL    HW121872   6.209   9.454   6.572 -0.8289  0.0049 -1.5873
 7098SOL    HW221873   6.217   9.379   6.441  0.1062 -1.7043 -0.5859
 7099SOL     OW21874   6.337   9.681   4.008 -0.1254  0.1616  0.1007
 7099SOL    HW121875   6.369   9.732   3.934 -1.1625  1.0329  0.2153
 7099SOL    HW221876   6.247   9.712   4.021  0.1499  0.3040  1.9382
 7100SOL     OW21877   1.366   5.037   0.213  0.0659 -0.1118 -0.1367
 7100SOL    HW121878   1.291   5.092   0.188  0.9729  0.5061 -1.6602
 7100SOL    HW221879   1.416   5.027   0.132 -0.1959 -3.4647 -0.0298
 7101SOL     OW21880   5.907   6.226   7.196 -0.2031  0.4943 -0.2935
 7101SOL    HW121881   5.906   6.216   7.101 -0.9328 -1.8447 -0.1014
 7101SOL    HW221882   5.818   6.206   7.223  0.3547 -0.3769  0.9906
 7102SOL     OW21883   3.304   1.835   0.136  0.1598  0.1860  0.2261
 7102SOL    HW121884   3.371   1.849   0.070  1.1866 -0.2309  1.1436
 7102SOL    HW221885   3.277   1.744   0.125  1.5618 -0.4132  1.4375
 7103SOL     OW21886   6.847   4.679   5.746 -0.1342  0.4691 -0.1863
 7103SOL    HW121887   6.804   4.617   5.687  1.0185  0.8735 -1.5189
 7103SOL    HW221888   6.809   4.764   5.723 -0.1532  0.5460  0.1248
 7104SOL     OW21889   0.590   7.991   4.926 -0.3264 -0.4453  0.0226
 7104SOL    HW121890   0.553   7.903   4.919 -1.0093 -0.1611 -0.0824
 7104SOL    HW221891   0.520   8.043   4.965  0.7402 -0.3569  1.9516
 7105SOL     OW21892   5.676   5.467   2.159 -0.1876  0.0561 -0.3327
 7105SOL    HW121893   5.746   5.526   2.189 -0.0038 -0.2195 -0.2170
 7105SOL    HW221894   5.708   5.379   2.180 -1.0516 -0.0178  0.7245
 7106SOL     OW21895   1.270   9.663   2.898  0.1581  0.4988 -0.0533
 7106SOL    HW121896   1.245   9.576   2.928  0.9571  0.4171  0.3948
 7106SOL    HW221897   1.352   9.650   2.851 -0.4199  0.8202 -1.1769
 7107SOL     OW21898   4.645   5.456   4.207  0.5356 -0.3616 -0.1586
 7107SOL    HW121899   4.567   5.442   4.154  0.7709 -0.0328 -0.5998
 7107SOL    HW221900   4.647   5.381   4.266 -1.2096  0.6407  1.2527
 7108SOL     OW21901   4.776   8.170   7.779 -0.1234  0.0165 -0.4190
 7108SOL    HW121902   4.779   8.119   7.859  0.2466  1.9155  0.8485
 7108SOL    HW221903   4.683   8.176   7.757 -0.2515 -0.2730  0.0362
 7109SOL     OW21904   5.170   6.276   8.896 -0.3095  0.1078  0.8971
 7109SOL    HW121905   5.256   6.262   8.857 -0.2294  1.5008  0.5553
 7109SOL    HW221906   5.123   6.194   8.880  0.1002  0.2283 -1.1385
 7110SOL     OW21907   2.331   6.818   2.129 -0.4936 -0.1628  0.2406
 7110SOL    HW121908   2.334   6.745   2.067  0.2923  0.0969 -0.0447
 7110SOL    HW221909   2.256   6.871   2.101  0.3511  0.4122 -1.0447
 7111SOL     OW21910   3.701   0.889   9.665  0.3963 -0.1441 -0.4117
 7111SOL    HW121911   3.788   0.852   9.648  0.6764  0.1081  0.4559
 7111SOL    HW221912   3.709   0.933   9.749 -0.6667 -0.4043 -0.1529
 7112SOL     OW21913   4.173   8.411   3.710 -0.6129  0.3270  0.7062
 7112SOL    HW121914   4.143   8.322   3.694  0.9006 -0.2550  0.8982
 7112SOL    HW221915   4.238   8.427   3.641 -2.3888  2.1174 -0.6773
 7113SOL     OW21916   3.016   4.819   2.961 -0.3424 -0.2131 -0.4783
 7113SOL    HW121917   2.987   4.761   3.031  0.8228 -0.3147 -0.0487
 7113SOL    HW221918   2.947   4.884   2.954 -0.1615  0.2395  1.2981
 7114SOL     OW21919   0.146   2.784   3.371 -0.6148  0.6929  0.6182
 7114SOL    HW121920   0.132   2.849   3.440 -0.3233  0.2667  1.0786
 7114SOL    HW221921   0.149   2.700   3.417 -0.0326  0.4469  0.1310
 7115SOL     OW21922   5.510   5.467   2.887  0.5294  0.5952 -0.1741
 7115SOL    HW121923   5.539   5.379   2.909  0.9032  0.8980  0.5457
 7115SOL    HW221924   5.561   5.490   2.809  0.8930  0.4262  0.0120
 7116SOL     OW21925   5.124   9.497   3.376 -0.6410  0.7276 -0.0655
 7116SOL    HW121926   5.050   9.457   3.330 -1.1010  0.5752  0.8000
 7116SOL    HW221927   5.179   9.532   3.305 -0.4484 -0.9961 -0.8473
 7117SOL     OW21928   8.516   0.529   3.775  0.3555 -0.4799  0.4654
 7117SOL    HW121929   8.449   0.465   3.798  0.8100 -2.0912 -2.2402
 7117SOL    HW221930   8.500   0.603   3.834 -1.1737 -2.4271  2.6748
 7118SOL     OW21931   5.859   5.885   7.764 -0.2708  0.0215 -1.1131
 7118SOL    HW121932   5.910   5.812   7.730 -0.3152  0.4890 -2.2324
 7118SOL    HW221933   5.841   5.861   7.855  2.2237  0.0017 -0.5510
 7119SOL     OW21934   3.932   2.188   4.420 -0.1756  0.2471 -0.2450
 7119SOL    HW121935   3.877   2.130   4.473 -1.5422  0.5783 -1.2353
 7119SOL    HW221936   3.929   2.272   4.466 -1.3769  0.5406 -0.8111
 7120SOL     OW21937   0.300   4.251   6.289 -0.3977 -0.1435 -0.0160
 7120SOL    HW121938   0.271   4.296   6.210 -0.0402 -0.6557 -0.4510
 7120SOL    HW221939   0.386   4.289   6.308  0.8640 -2.0381 -1.5869
 7121SOL     OW21940   4.565   7.066   7.063 -0.3059  0.1139  0.2782
 7121SOL    HW121941   4.613   7.143   7.094  0.9250  0.7243 -2.8289
 7121SOL    HW221942   4.631   7.012   7.020 -1.8525 -0.6076 -1.3106
 7122SOL     OW21943   1.505   0.424   1.396 -0.2876  0.1468 -0.1578
 7122SOL    HW121944   1.427   0.472   1.370 -0.8055 -0.3789  0.3946
 7122SOL    HW221945   1.512   0.439   1.490  0.7621  0.8761 -0.3406
 7123SOL     OW21946   8.491   4.763   0.056 -0.3866 -0.0019  0.2853
 7123SOL    HW121947   8.402   4.791   0.077  0.4011  1.4399  2.0510
 7123SOL    HW221948   8.508   4.691   0.116 -1.1910 -2.1360 -1.8694
 7124SOL     OW21949   0.897   7.921   4.524  0.0154 -0.7684 -0.2011
 7124SOL    HW121950   0.887   8.003   4.476 -0.4795 -0.2102  0.8214
 7124SOL    HW221951   0.933   7.947   4.609  0.2828 -1.6573 -0.0328
 7125SOL     OW21952   1.228   5.327   7.531  0.0837  0.2518  0.1448
 7125SOL    HW121953   1.212   5.242   7.490  1.0040  0.3592 -0.4687
 7125SOL    HW221954   1.254   5.306   7.621 -0.3631 -0.0709  0.2009
 7126SOL     OW21955   8.752   6.629   0.377  0.0922 -0.3171  0.5034
 7126SOL    HW121956   8.816   6.644   0.307  0.7277  1.4822  1.3934
 7126SOL    HW221957   8.799   6.575   0.441  0.2352 -0.1924  0.5047
 7127SOL     OW21958   4.237   2.617   9.789  0.3353 -0.1440  0.0048
 7127SOL    HW121959   4.316   2.564   9.791  0.0816 -0.5615  3.0382
 7127SOL    HW221960   4.254   2.689   9.849 -0.9420  0.7817 -0.6841
 7128SOL     OW21961   0.092   0.921   8.055 -0.0623 -0.1107 -0.3188
 7128SOL    HW121962   0.144   0.968   8.120 -2.5741  2.0422  0.3347
 7128SOL    HW221963   0.092   0.978   7.978 -0.6418 -0.5241 -0.6340
 7129SOL     OW21964   6.553   9.277   7.796 -0.4400 -0.4872 -0.0587
 7129SOL    HW121965   6.596   9.353   7.834 -1.3331  1.0966 -2.0333
 7129SOL    HW221966   6.625   9.218   7.772  0.3489  0.3309  0.2580
 7130SOL     OW21967   0.823   4.822   3.883 -0.1840  0.2103  0.3111
 7130SOL    HW121968   0.841   4.825   3.789 -1.2408  2.4516  0.1169
 7130SOL    HW221969   0.728   4.832   3.890 -0.2076 -0.6924  1.6057
 7131SOL     OW21970   8.370   2.923   4.342 -0.2428  0.3480 -0.2049
 7131SOL    HW121971   8.401   2.852   4.285  0.2189  1.2919 -1.1663
 7131SOL    HW221972   8.449   2.973   4.362 -0.7320  1.2761 -0.5276
 7132SOL     OW21973   4.359   0.260   4.941  0.2584 -0.5547  0.0199
 7132SOL    HW121974   4.353   0.220   4.854  0.8307 -0.9139  0.1361
 7132SOL    HW221975   4.269   0.259   4.975 -0.0649  0.1259 -0.7976
 7133SOL     OW21976   4.603   4.500   2.688 -0.1437  0.1684  0.1211
 7133SOL    HW121977   4.655   4.459   2.757 -0.9472  0.8937  1.1918
 7133SOL    HW221978   4.662   4.563   2.648 -0.2519  1.2151  1.5420
 7134SOL     OW21979   4.071   9.651   5.460  0.5065 -0.0160  0.2892
 7134SOL    HW121980   4.165   9.661   5.478  0.4239  0.5954  0.3854
 7134SOL    HW221981   4.048   9.728   5.408  0.0291 -0.0947  0.3805
 7135SOL     OW21982   5.488   1.912   6.774  0.3061 -0.3157 -0.5170
 7135SOL    HW121983   5.454   1.993   6.737  1.4658  0.0697 -0.7913
 7135SOL    HW221984   5.531   1.868   6.701  1.7209 -0.0379  0.1009
 7136SOL     OW21985   9.968   8.333   7.893 -0.3813  0.0676 -0.5354
 7136SOL    HW121986  10.034   8.276   7.854 -0.1515 -0.1863  0.2136
 7136SOL    HW221987   9.924   8.373   7.818 -0.6320 -1.1915 -1.0803
 7137SOL     OW21988   7.020   3.661   7.529  0.1893  0.5296  0.2094
 7137SOL    HW121989   6.995   3.672   7.437  1.2398  0.1866 -0.1268
 7137SOL    HW221990   7.077   3.585   7.530  1.7560  1.6523  0.8248
 7138SOL     OW21991   4.248   8.368   6.688 -0.3591  0.1164 -0.3984
 7138SOL    HW121992   4.267   8.460   6.670  2.1015 -0.4920 -1.3055
 7138SOL    HW221993   4.292   8.320   6.617 -1.9992 -1.7580 -0.2445
 7139SOL     OW21994   7.256   6.379   9.922 -0.3272 -0.7710 -0.1717
 7139SOL    HW121995   7.219   6.341   9.842 -2.4058  1.1181 -0.2164
 7139SOL    HW221996   7.284   6.466   9.896  1.9284 -1.2410  0.5050
 7140SOL     OW21997   5.535   8.784   1.271  0.3402 -0.3973  0.7894
 7140SOL    HW121998   5.498   8.860   1.314  1.6194  0.0108  1.2037
 7140SOL    HW221999   5.588   8.819   1.200 -0.9636 -1.0218 -0.5562
 7141SOL     OW22000   7.578   1.743   3.847 -0.4592 -0.4106  0.0806
 7141SOL    HW122001   7.610   1.678   3.785 -0.1580 -0.3291  0.1481
 7141SOL    HW222002   7.502   1.783   3.803  0.5293  0.5636 -0.8016
 7142SOL     OW22003   7.244   6.861   5.606 -0.1522 -0.0614 -0.4366
 7142SOL    HW122004   7.182   6.789   5.617 -0.1204 -0.0645 -0.2685
 7142SOL    HW222005   7.292   6.863   5.689  2.3413 -2.1934 -1.6724
 7143SOL     OW22006   0.203   3.970   8.066  0.1434 -0.0629  0.0987
 7143SOL    HW122007   0.204   3.909   8.140  2.1411 -0.9978 -0.6380
 7143SOL    HW222008   0.294   3.996   8.055 -0.1821  0.4572 -1.7048
 7144SOL     OW22009   8.572   5.965   0.008  0.5863 -0.0146  0.2133
 7144SOL    HW122010   8.631   6.034   0.038  0.6712  0.1116 -0.2419
 7144SOL    HW222011   8.488   5.985   0.051  0.6910  0.1933  0.3204
 7145SOL     OW22012   5.242   3.940   4.973  0.2806 -0.0006  1.1065
 7145SOL    HW122013   5.255   3.964   4.882  0.0977 -2.2284  0.4572
 7145SOL    HW222014   5.193   4.014   5.010  0.2237  0.8692 -0.6166
 7146SOL     OW22015   2.260   3.479   4.836 -0.2646  0.1181  0.2396
 7146SOL    HW122016   2.208   3.525   4.770 -0.9401  0.5829  1.0606
 7146SOL    HW222017   2.347   3.518   4.831 -1.1364  2.4749  1.7718
 7147SOL     OW22018   4.942   2.309   6.113 -0.0997 -0.3859  0.0179
 7147SOL    HW122019   4.894   2.367   6.054 -1.7397 -0.9551  0.7490
 7147SOL    HW222020   4.900   2.321   6.198 -0.3971 -2.4927  0.2237
 7148SOL     OW22021   8.625   6.799   8.042 -0.3657 -0.6299  0.2057
 7148SOL    HW122022   8.611   6.870   8.105  0.3588  0.7375 -1.1122
 7148SOL    HW222023   8.717   6.806   8.018 -0.8906 -0.2802 -1.9250
 7149SOL     OW22024   0.392   2.480   7.641 -0.1004  0.4848 -0.2373
 7149SOL    HW122025   0.360   2.479   7.732  3.5269  0.4539  1.1892
 7149SOL    HW222026   0.420   2.390   7.624 -0.1427  0.6384 -1.1850
 7150SOL     OW22027   5.686   8.653   7.577 -0.0549  0.3041 -0.0196
 7150SOL    HW122028   5.675   8.646   7.672  1.8839  0.5748  0.2617
 7150SOL    HW222029   5.732   8.573   7.553  0.9439  0.9888 -0.4572
 7151SOL     OW22030   7.830   5.343   3.380 -0.2250  0.4014  0.4587
 7151SOL    HW122031   7.905   5.310   3.429  0.4437  0.6260 -0.3846
 7151SOL    HW222032   7.800   5.419   3.429 -1.4837 -1.1134  2.1728
 7152SOL     OW22033   9.901   3.338   4.592 -0.4105 -0.0575  0.2085
 7152SOL    HW122034   9.942   3.413   4.635 -0.5465 -0.4582  1.0483
 7152SOL    HW222035   9.807   3.359   4.591 -0.4256 -0.1193  0.2657
 7153SOL     OW22036   8.115   7.244   8.334 -0.3049 -0.5137 -0.0075
 7153SOL    HW122037   8.172   7.170   8.355  0.7643  0.6148  1.2354
 7153SOL    HW222038   8.092   7.281   8.419 -3.0760 -1.0185 -0.4514
 7154SOL     OW22039   8.090   1.950   9.846 -0.0425  0.3220  0.1284
 7154SOL    HW122040   8.148   2.021   9.819 -0.5623  0.5545 -0.3955
 7154SOL    HW222041   8.097   1.885   9.777  0.0883  0.0646  0.3853
 7155SOL     OW22042   8.515   3.275   3.316  0.3600 -0.3029  0.1295
 7155SOL    HW122043   8.462   3.335   3.369  1.1857  0.2745  0.3335
 7155SOL    HW222044   8.542   3.327   3.241  0.3369 -0.6981 -0.1537
 7156SOL     OW22045   4.289   8.466   3.298  0.1113 -0.9825  0.0424
 7156SOL    HW122046   4.309   8.535   3.235  0.4947  0.5921  1.7974
 7156SOL    HW222047   4.201   8.436   3.274  0.0907 -0.1532 -0.9855
 7157SOL     OW22048   9.820   7.633   2.256  0.0486  0.3603 -0.2247
 7157SOL    HW122049   9.742   7.638   2.200  0.3129  0.7361 -0.5664
 7157SOL    HW222050   9.840   7.724   2.278  0.5832  0.2959 -0.4145
 7158SOL     OW22051   3.869   8.917   8.089 -0.2092  0.0798  0.2707
 7158SOL    HW122052   3.927   8.857   8.135  0.3249  0.7439  0.4845
 7158SOL    HW222053   3.831   8.971   8.159  1.8425  2.1822 -0.1392
 7159SOL     OW22054   2.175   9.758   0.873 -0.1081 -0.5754 -0.1136
 7159SOL    HW122055   2.250   9.783   0.818  0.3715 -0.3361  0.6341
 7159SOL    HW222056   2.172   9.663   0.865  0.1174 -0.5669 -0.3485
 7160SOL     OW22057   8.939   7.955   2.286 -0.2765 -0.4864 -0.0887
 7160SOL    HW122058   8.996   7.992   2.353 -0.2574 -0.8227  0.0826
 7160SOL    HW222059   8.987   7.878   2.253 -1.0802 -1.3861  0.7849
 7161SOL     OW22060   2.704   8.680   4.719  0.0437  0.4826 -0.3616
 7161SOL    HW122061   2.682   8.622   4.647  0.5138 -0.3963  0.1830
 7161SOL    HW222062   2.778   8.637   4.762 -0.7489  0.5545  1.1306
 7162SOL     OW22063   2.655   2.348   9.002  0.0904  0.6699 -0.2630
 7162SOL    HW122064   2.728   2.409   9.019  1.1957 -0.8001  0.5144
 7162SOL    HW222065   2.609   2.341   9.086  0.4140 -0.0930 -0.1370
 7163SOL     OW22066   9.874   8.574   1.538 -0.7860 -0.0268  0.3534
 7163SOL    HW122067   9.881   8.645   1.475  0.1030 -0.9249 -0.5830
 7163SOL    HW222068   9.838   8.501   1.488 -3.7151  0.3047  1.7711
 7164SOL     OW22069   6.830   8.500   5.360 -0.3147 -0.4784  0.3225
 7164SOL    HW122070   6.773   8.496   5.436  0.7561  2.3668  1.4302
 7164SOL    HW222071   6.771   8.507   5.285 -1.4379  0.0750  1.2245
 7165SOL     OW22072   3.597   3.613   8.172  0.2518  0.2085 -0.1125
 7165SOL    HW122073   3.573   3.665   8.096 -3.0359 -1.5976 -0.5075
 7165SOL    HW222074   3.643   3.537   8.135  0.3614  0.2622 -0.0867
 7166SOL     OW22075   6.671   0.844   2.312 -0.2071 -0.5294 -0.1160
 7166SOL    HW122076   6.658   0.898   2.390  0.7993 -0.7987  0.2491
 7166SOL    HW222077   6.731   0.774   2.341  0.6854 -0.2697 -1.2880
 7167SOL     OW22078   9.376   9.290   0.966  1.0438  0.4407  0.1925
 7167SOL    HW122079   9.297   9.250   0.931  2.3642 -0.3440 -2.1010
 7167SOL    HW222080   9.364   9.288   1.061 -2.5306  2.1996 -0.0610
 7168SOL     OW22081   4.344   5.801   2.596  0.0686  0.7835  0.6676
 7168SOL    HW122082   4.358   5.720   2.645  0.7668  1.0065  0.8635
 7168SOL    HW222083   4.419   5.806   2.536 -1.1800  0.1224 -1.0099
 7169SOL     OW22084   6.031   6.418   9.308  0.3844  0.0387 -0.2215
 7169SOL    HW122085   6.018   6.498   9.359  0.3805  0.9809 -1.6280
 7169SOL    HW222086   6.121   6.393   9.325  0.2175  0.0322  0.6594
 7170SOL     OW22087   9.949   9.059   6.367  0.2783  0.0216 -0.4927
 7170SOL    HW122088   9.898   9.036   6.290 -0.9751 -1.7517  0.8088
 7170SOL    HW222089   9.891   9.114   6.419 -0.0386 -1.3009  0.5955
 7171SOL     OW22090   2.165   5.737   8.101 -0.0596 -0.3124  0.0763
 7171SOL    HW122091   2.109   5.664   8.128  0.2168 -0.5374  0.0461
 7171SOL    HW222092   2.177   5.789   8.181  1.0095 -1.1448  0.4817
 7172SOL     OW22093   0.703   2.690   8.140 -0.3732  0.1467 -0.0852
 7172SOL    HW122094   0.789   2.710   8.177 -1.0450  2.5415  0.3632
 7172SOL    HW222095   0.687   2.760   8.076 -0.7545 -1.9270 -2.4162
 7173SOL     OW22096   7.679   8.225   1.583  0.0604 -0.2519  0.2593
 7173SOL    HW122097   7.595   8.269   1.588  0.0208 -0.0311 -1.5170
 7173SOL    HW222098   7.744   8.296   1.587  0.3006 -0.5180  3.1236
 7174SOL     OW22099   8.016   4.234   4.186  0.2511 -0.3554 -0.2868
 7174SOL    HW122100   7.961   4.248   4.109 -0.1244  0.5838  0.1483
 7174SOL    HW222101   8.084   4.301   4.179  1.7052 -1.8583 -1.1233
 7175SOL     OW22102   7.040   9.157   7.998 -0.1100 -0.0462  0.3875
 7175SOL    HW122103   7.043   9.187   7.907 -1.8178 -0.0523  0.3004
 7175SOL    HW222104   7.047   9.061   7.992 -1.1022 -0.1169  0.1739
 7176SOL     OW22105   3.502   9.403   8.135 -0.4172  0.1667 -0.1186
 7176SOL    HW122106   3.584   9.433   8.176 -1.2900 -0.2953  2.1325
 7176SOL    HW222107   3.523   9.395   8.042  2.5171 -1.2429  0.5379
 7177SOL     OW22108   3.616   2.051   8.045  0.0931  0.0783  0.0315
 7177SOL    HW122109   3.570   2.095   7.973  1.0202  0.0523 -0.5865
 7177SOL    HW222110   3.569   2.079   8.123 -1.1384 -0.1482 -0.6022
 7178SOL     OW22111   5.921   0.157   1.651 -0.0131 -0.0916 -0.4042
 7178SOL    HW122112   5.892   0.088   1.591 -0.8380 -0.4990  0.4280
 7178SOL    HW222113   5.889   0.238   1.611  0.1690 -0.2775 -0.9326
 7179SOL     OW22114   7.417   7.266   6.158 -0.4569  0.6007  0.5893
 7179SOL    HW122115   7.376   7.187   6.195 -2.7056  1.7464  0.6796
 7179SOL    HW222116   7.511   7.249   6.166 -0.8502 -2.1409  0.4315
 7180SOL     OW22117   0.899   3.458   3.777 -0.2201  0.4678 -0.4285
 7180SOL    HW122118   0.928   3.548   3.794 -0.0669  0.4131 -0.4039
 7180SOL    HW222119   0.805   3.459   3.797 -0.3057  0.7280 -0.8283
 7181SOL     OW22120   5.817   9.113   7.871  0.4524  0.6511 -0.1368
 7181SOL    HW122121   5.823   9.041   7.934  0.4846  0.5384 -0.2678
 7181SOL    HW222122   5.884   9.093   7.805 -1.3815 -0.6777 -1.6852
 7182SOL     OW22123   2.248   6.024   4.483  0.0067  0.1793 -0.2260
 7182SOL    HW122124   2.249   6.090   4.414  1.8332 -0.2396 -0.6574
 7182SOL    HW222125   2.181   5.962   4.455 -1.0847  1.3572 -0.2820
 7183SOL     OW22126   7.467   3.851   8.917 -0.2621 -0.4125  0.0427
 7183SOL    HW122127   7.529   3.845   8.989 -0.5934 -0.5261  0.3182
 7183SOL    HW222128   7.381   3.859   8.959 -0.5296 -1.2163 -0.3318
 7184SOL     OW22129   8.612   3.516   0.880  0.1206  0.1187  0.1918
 7184SOL    HW122130   8.549   3.444   0.876  1.4550 -1.0216 -2.1322
 7184SOL    HW222131   8.598   3.566   0.800  1.9524 -0.0133 -0.2672
 7185SOL     OW22132   4.787   9.463   1.812  0.0405  0.0635  0.0989
 7185SOL    HW122133   4.817   9.449   1.902 -0.1693 -0.5277  0.0840
 7185SOL    HW222134   4.780   9.374   1.776 -1.2189  0.2175 -0.0636
 7186SOL     OW22135   2.757   9.464   8.211  0.6963 -0.0210 -0.6000
 7186SOL    HW122136   2.815   9.515   8.155  0.7626  0.0816 -0.4398
 7186SOL    HW222137   2.717   9.400   8.153 -0.2619  0.9492 -1.0433
 7187SOL     OW22138   4.357   1.378   5.162  0.0586 -0.0743 -0.0281
 7187SOL    HW122139   4.262   1.365   5.155 -0.0315  0.8820 -0.8766
 7187SOL    HW222140   4.376   1.445   5.096  1.2798 -0.0286  0.3592
 7188SOL     OW22141   1.295   1.858   7.778 -0.3211  0.4499  0.0664
 7188SOL    HW122142   1.268   1.943   7.812 -1.8483 -0.3496  0.9644
 7188SOL    HW222143   1.363   1.828   7.839  0.2494  1.0113 -0.2766
 7189SOL     OW22144   8.615   0.097   1.888 -0.1149 -0.8832  0.1117
 7189SOL    HW122145   8.629   0.031   1.820  0.9894 -0.5961  0.0422
 7189SOL    HW222146   8.694   0.151   1.885 -0.0533 -0.8657  1.6322
 7190SOL     OW22147   1.852   0.969   9.286 -0.0724  0.9292  0.2624
 7190SOL    HW122148   1.757   0.964   9.271 -0.4787  1.5873  2.2209
 7190SOL    HW222149   1.859   1.009   9.373  2.0113  0.5750  0.2868
 7191SOL     OW22150   3.817   0.291   5.654  0.9917 -0.4802 -0.8123
 7191SOL    HW122151   3.893   0.322   5.604  0.5531  1.1604 -0.5257
 7191SOL    HW222152   3.756   0.365   5.653  0.9933 -0.3315  2.2148
 7192SOL     OW22153   7.154   3.152   9.378 -0.4200  0.0077 -0.0794
 7192SOL    HW122154   7.178   3.105   9.299 -2.6587 -1.3717 -0.0267
 7192SOL    HW222155   7.195   3.102   9.449 -2.3833 -1.6742 -0.0632
 7193SOL     OW22156   5.361   1.283   6.979 -1.2310 -0.6727  0.0050
 7193SOL    HW122157   5.337   1.370   7.010 -1.2383 -0.6012 -0.1979
 7193SOL    HW222158   5.380   1.295   6.886  1.5548 -0.3094  0.5288
 7194SOL     OW22159   7.622   0.160   0.517 -0.0677  0.3343 -0.2903
 7194SOL    HW122160   7.592   0.069   0.522 -0.1586  0.4088  0.6693
 7194SOL    HW222161   7.571   0.206   0.584  1.9493  0.5342  1.1946
 7195SOL     OW22162   3.109   4.114   8.078  0.1994  0.0968  0.9048
 7195SOL    HW122163   3.159   4.109   7.996 -1.2780 -1.2047  0.0209
 7195SOL    HW222164   3.061   4.196   8.071 -1.0118 -0.6592 -0.2593
 7196SOL     OW22165   7.294   7.014   6.191 -0.0029 -0.3866 -0.5660
 7196SOL    HW122166   7.244   6.997   6.271  0.2004 -0.9621 -0.5591
 7196SOL    HW222167   7.304   6.928   6.150  0.5574 -0.2041 -0.8189
 7197SOL     OW22168   0.224   8.777   5.732  0.0991  0.3333  0.1491
 7197SOL    HW122169   0.235   8.691   5.772 -0.7199  0.2210  0.1623
 7197SOL    HW222170   0.135   8.803   5.757  0.5646  1.4690  0.7000
 7198SOL     OW22171   4.347   6.271   9.610  0.5616  0.0092  0.8537
 7198SOL    HW122172   4.269   6.326   9.610 -1.0139 -2.0272 -1.0892
 7198SOL    HW222173   4.396   6.298   9.531  2.3247  1.7720  2.4339
 7199SOL     OW22174   6.719   5.761   1.279 -0.3443 -0.6113  0.2501
 7199SOL    HW122175   6.811   5.760   1.304 -0.2203 -1.4949 -0.1693
 7199SOL    HW222176   6.677   5.698   1.338 -0.4763 -0.9813 -0.2300
 7200SOL     OW22177   1.080   2.032   2.843  0.1781  0.1279 -0.0463
 7200SOL    HW122178   1.069   2.065   2.754 -1.4289 -0.6930 -0.1748
 7200SOL    HW222179   1.092   2.111   2.897  0.8731  0.6405 -0.9263
 7201SOL     OW22180   5.265   5.274   4.989  0.4856  0.0678 -0.3984
 7201SOL    HW122181   5.337   5.238   5.041  0.5362  0.4405 -0.2037
 7201SOL    HW222182   5.253   5.362   5.024  0.1742  0.1349 -0.6751
 7202SOL     OW22183   2.190   6.670   2.400 -0.1595 -0.2222 -0.6226
 7202SOL    HW122184   2.275   6.655   2.441 -0.1666 -1.4995 -1.0271
 7202SOL    HW222185   2.179   6.765   2.402  1.0742 -0.0674 -0.1638
 7203SOL     OW22186   3.169   4.437   9.213  0.5852 -0.4691  0.3031
 7203SOL    HW122187   3.209   4.353   9.236  1.3817  0.0074  0.6764
 7203SOL    HW222188   3.218   4.502   9.263 -0.6699  0.1374  0.7763
 7204SOL     OW22189   8.681   5.456   0.822 -0.2402  0.0970  0.2831
 7204SOL    HW122190   8.704   5.392   0.755 -2.0160  0.6163 -0.8772
 7204SOL    HW222191   8.699   5.411   0.905  0.3818 -1.1683 -0.5127
 7205SOL     OW22192   3.609   8.710   7.522  0.3520 -0.2639 -0.1008
 7205SOL    HW122193   3.635   8.770   7.452 -1.3429  0.3764 -0.2080
 7205SOL    HW222194   3.545   8.652   7.482 -0.0751 -0.3831  0.7308
 7206SOL     OW22195   4.168   8.082   9.111  0.5784  0.3843 -0.0074
 7206SOL    HW122196   4.140   8.034   9.190  0.6201  0.9832  0.3740
 7206SOL    HW222197   4.216   8.157   9.145 -0.3448  1.2526 -0.5694
 7207SOL     OW22198   7.017   9.439   8.366  0.0123 -0.0226 -0.2833
 7207SOL    HW122199   6.976   9.487   8.294 -0.0638  0.7165  0.2439
 7207SOL    HW222200   6.988   9.348   8.353 -3.5376  0.7161  1.1717
 7208SOL     OW22201   2.702   0.572   1.233  0.7419 -0.2212  0.0433
 7208SOL    HW122202   2.708   0.665   1.215  0.4865 -0.1192  0.4754
 7208SOL    HW222203   2.654   0.536   1.158 -0.2557  0.1841  0.4773
 7209SOL     OW22204   5.677   4.891   2.974  0.4728 -0.5090  0.2053
 7209SOL    HW122205   5.726   4.941   3.039 -0.8135  0.4083  0.5130
 7209SOL    HW222206   5.743   4.861   2.911  1.7241 -1.2573  1.8050
 7210SOL     OW22207   6.684   2.952   5.439  0.3984  0.2854  0.2315
 7210SOL    HW122208   6.692   2.874   5.384 -0.5625  0.3014  0.0655
 7210SOL    HW222209   6.677   2.917   5.528 -0.2783  0.1681  0.1347
 7211SOL     OW22210   8.342   8.256   3.804  0.2074 -0.0732  0.9462
 7211SOL    HW122211   8.290   8.294   3.874 -0.6391 -0.9292  0.7943
 7211SOL    HW222212   8.394   8.189   3.847 -1.8080 -2.0377  0.4904
 7212SOL     OW22213   8.213   5.816   9.644  0.3176 -0.2650  0.0935
 7212SOL    HW122214   8.265   5.738   9.621  0.1855 -0.2143 -0.3841
 7212SOL    HW222215   8.278   5.880   9.672  0.6127  0.0853 -1.2991
 7213SOL     OW22216   9.328   7.786   3.307 -0.6253 -0.2750  0.1784
 7213SOL    HW122217   9.284   7.861   3.266  1.6519  0.8061 -0.4466
 7213SOL    HW222218   9.356   7.732   3.233  2.7483  1.2445  0.1997
 7214SOL     OW22219   8.387   5.645   5.006 -0.6812  0.1723  0.3948
 7214SOL    HW122220   8.341   5.564   5.025  2.8265 -2.6490 -1.7491
 7214SOL    HW222221   8.448   5.656   5.079  1.0891 -1.1075 -0.8053
 7215SOL     OW22222   7.425   4.274   6.008  0.2294 -0.0841 -0.2733
 7215SOL    HW122223   7.345   4.222   6.004  0.1599 -0.1129  0.9223
 7215SOL    HW222224   7.495   4.209   6.010  0.1616 -0.1554  0.7928
 7216SOL     OW22225   5.401   1.965   3.241  0.1279  0.0119  0.1455
 7216SOL    HW122226   5.426   1.947   3.331  1.2454 -1.0494 -0.3305
 7216SOL    HW222227   5.311   1.997   3.246 -0.9710 -2.9000  1.4307
 7217SOL     OW22228   2.058   2.515   0.859  0.2766  0.3250 -0.2804
 7217SOL    HW122229   2.142   2.520   0.905  0.6564  0.3979 -0.9704
 7217SOL    HW222230   2.069   2.442   0.797 -0.2220  0.2343 -0.2684
 7218SOL     OW22231   9.005   9.823   4.674 -0.2434 -0.3559  0.0504
 7218SOL    HW122232   9.071   9.820   4.743 -0.2691 -1.9366  0.0430
 7218SOL    HW222233   9.040   9.766   4.605 -0.0627  1.4221 -1.4200
 7219SOL     OW22234   1.341   4.755   6.334 -0.0507 -0.9706 -0.4383
 7219SOL    HW122235   1.421   4.727   6.289 -0.2928 -1.2000 -0.7257
 7219SOL    HW222236   1.293   4.805   6.268  0.7938  0.9622  0.3049
 7220SOL     OW22237   4.493   9.236   4.087 -0.0818 -0.0917  0.0257
 7220SOL    HW122238   4.559   9.249   4.155  0.5799 -1.2626 -0.3513
 7220SOL    HW222239   4.488   9.320   4.041  1.4421 -0.0881 -0.1793
 7221SOL     OW22240   9.148   4.427   8.329 -0.2384  0.3238 -0.0515
 7221SOL    HW122241   9.159   4.420   8.424 -0.8838  0.6991  0.0556
 7221SOL    HW222242   9.140   4.336   8.299  2.2705  0.0405 -0.0532
 7222SOL     OW22243   3.201   7.352   4.195 -0.2815  0.3080  0.3698
 7222SOL    HW122244   3.121   7.356   4.142  0.1842 -0.0562 -0.3796
 7222SOL    HW222245   3.214   7.442   4.225 -1.0625  0.3403  0.6417
 7223SOL     OW22246   8.377   4.067   1.911  0.0318 -0.2566  0.7417
 7223SOL    HW122247   8.344   4.139   1.965 -1.0271  0.7314 -1.1493
 7223SOL    HW222248   8.299   4.030   1.870  0.7735 -1.2361  0.1825
 7224SOL     OW22249   4.856   1.088   7.476  0.0516 -0.0126  0.1916
 7224SOL    HW122250   4.825   1.033   7.547  3.0297  0.1146  1.7369
 7224SOL    HW222251   4.865   1.029   7.401 -0.0713 -0.8727  0.8469
 7225SOL     OW22252   9.943   6.476   3.214 -0.4155 -0.4952  0.1914
 7225SOL    HW122253   9.981   6.451   3.299  0.1205 -1.7299 -0.3912
 7225SOL    HW222254   9.893   6.555   3.233  1.6053  0.6212  1.2089
 7226SOL     OW22255   8.348   5.222   6.437  0.3898 -0.0826 -0.3912
 7226SOL    HW122256   8.394   5.169   6.372  2.8365  0.4084  0.8277
 7226SOL    HW222257   8.415   5.283   6.470 -1.3325  1.1535  1.0139
 7227SOL     OW22258   0.826   9.815   2.068  0.0048  0.1909  0.3861
 7227SOL    HW122259   0.876   9.739   2.098  0.9265  0.8133  0.4336
 7227SOL    HW222260   0.745   9.811   2.119 -0.5987 -1.5625 -0.6355
 7228SOL     OW22261   0.475   7.998   1.874 -0.1005  0.0069 -0.1258
 7228SOL    HW122262   0.389   7.987   1.833  0.0010 -2.0442  0.1123
 7228SOL    HW222263   0.499   7.910   1.903  2.2316  0.4583 -0.4819
 7229SOL     OW22264   0.450   1.435   3.858  0.2866 -0.2499 -0.9083
 7229SOL    HW122265   0.456   1.460   3.950  1.8170 -2.0190 -0.4690
 7229SOL    HW222266   0.486   1.509   3.810 -0.0919  0.4962 -0.0554
 7230SOL     OW22267   2.846   7.261   5.221  0.2376  0.1678  0.0344
 7230SOL    HW122268   2.781   7.293   5.159  0.0528 -2.5437 -1.3138
 7230SOL    HW222269   2.911   7.216   5.166 -0.9106 -4.0499  1.7175
 7231SOL     OW22270   4.194   5.624   5.920  0.0037  0.3820  0.2241
 7231SOL    HW122271   4.135   5.548   5.920  0.6829 -0.2071 -1.8539
 7231SOL    HW222272   4.139   5.697   5.891  0.0599  0.0036 -0.8903
 7232SOL     OW22273   5.916   5.151   8.738 -0.0256  0.9026 -0.1797
 7232SOL    HW122274   5.888   5.159   8.830  2.6624  0.7609  0.7490
 7232SOL    HW222275   5.975   5.225   8.725 -0.0707  0.6965 -1.7012
 7233SOL     OW22276   2.592   8.917   4.665  0.1020 -0.4677  0.3625
 7233SOL    HW122277   2.641   8.943   4.587  0.6238  0.4814  1.0000
 7233SOL    HW222278   2.618   8.826   4.680  0.0737 -0.6244 -0.5099
 7234SOL     OW22279   8.076   7.595   2.503 -0.0586 -0.2207 -0.7499
 7234SOL    HW122280   7.981   7.586   2.514 -0.2260  2.9705  1.7646
 7234SOL    HW222281   8.113   7.558   2.583  0.7302 -0.1459 -1.0669
 7235SOL     OW22282   6.444   6.598   4.794 -0.4761 -0.6218 -0.0548
 7235SOL    HW122283   6.355   6.569   4.814 -0.8267  1.3558  1.5688
 7235SOL    HW222284   6.434   6.652   4.716 -0.9809  0.6843  0.8701
 7236SOL     OW22285   6.321   9.164   1.020 -0.2166 -0.2133 -0.1621
 7236SOL    HW122286   6.407   9.145   1.058 -0.6738  1.5798  2.0190
 7236SOL    HW222287   6.329   9.142   0.928  2.5733 -0.0863 -0.0151
 7237SOL     OW22288   0.394   5.909   8.012  0.2383 -0.7060  0.4506
 7237SOL    HW122289   0.470   5.907   7.954 -1.3963 -1.5810 -1.8321
 7237SOL    HW222290   0.355   5.822   8.004 -0.3294 -0.6941  2.5446
 7238SOL     OW22291   7.160   9.549   2.041  0.3249  0.1249  0.8978
 7238SOL    HW122292   7.142   9.527   1.950 -2.3070 -0.4407  1.4506
 7238SOL    HW222293   7.241   9.503   2.062  0.7007 -0.1434 -1.0081
 7239SOL     OW22294   8.761   7.958   4.527 -0.8282  0.2408  0.1275
 7239SOL    HW122295   8.709   7.984   4.603 -0.1716 -0.1083  0.7161
 7239SOL    HW222296   8.847   7.997   4.543  0.0511 -1.8341  0.8203
 7240SOL     OW22297   2.274   1.759   8.203  0.2627  0.4210 -0.0015
 7240SOL    HW122298   2.340   1.805   8.150 -0.4716  0.6572 -0.7381
 7240SOL    HW222299   2.317   1.746   8.288  1.3074  0.4334 -0.5067
 7241SOL     OW22300   9.462   8.441   0.214  0.2790  0.4034 -0.1856
 7241SOL    HW122301   9.554   8.417   0.202 -0.3344 -1.4743 -1.6235
 7241SOL    HW222302   9.419   8.359   0.238 -0.9802  1.3481  0.9244
 7242SOL     OW22303   6.387   6.453   4.005  0.3493  0.1195 -0.1424
 7242SOL    HW122304   6.347   6.373   4.039  0.0196  0.7205  0.9207
 7242SOL    HW222305   6.315   6.497   3.959 -0.1865  1.0350  1.4810
 7243SOL     OW22306   7.918   0.406   1.132 -0.6925 -0.4052  0.6686
 7243SOL    HW122307   7.852   0.342   1.105 -1.0894  0.4614 -0.5010
 7243SOL    HW222308   7.998   0.377   1.088 -0.1367 -1.7022  2.4278
 7244SOL     OW22309   0.512   9.016   1.727  0.1971  0.2753 -0.7480
 7244SOL    HW122310   0.482   8.983   1.642 -0.4227  1.1178 -0.8652
 7244SOL    HW222311   0.476   9.105   1.733 -0.0103  0.1317  0.5165
 7245SOL     OW22312   8.773   0.269   5.944 -0.0622 -0.4163  0.3380
 7245SOL    HW122313   8.718   0.268   5.865 -0.6497  0.7723  0.7064
 7245SOL    HW222314   8.796   0.361   5.956  4.5860 -1.0972 -1.4839
 7246SOL     OW22315   8.910   5.283   0.214  0.0108 -0.7349 -0.6549
 7246SOL    HW122316   9.000   5.313   0.228  0.0527 -1.4123  0.7601
 7246SOL    HW222317   8.913   5.240   0.128  0.8367 -0.0565 -0.9868
 7247SOL     OW22318   1.300   0.839   0.875  0.4784 -0.4505 -0.1559
 7247SOL    HW122319   1.263   0.913   0.828  0.5328 -1.8085 -2.4712
 7247SOL    HW222320   1.224   0.797   0.916  0.2792  0.1413  0.0848
 7248SOL     OW22321   9.180   7.889   0.595 -0.4102  0.2403  0.2713
 7248SOL    HW122322   9.141   7.818   0.543  0.9585 -0.3022 -0.0566
 7248SOL    HW222323   9.192   7.850   0.682 -0.3300  0.3140  0.2927
 7249SOL     OW22324   4.919   8.258   1.407 -0.9787  0.6894  0.0577
 7249SOL    HW122325   4.932   8.163   1.407 -1.1866  0.6556 -0.4240
 7249SOL    HW222326   4.997   8.293   1.449 -1.0251  0.2887  0.4863
 7250SOL     OW22327   4.740   9.492   9.094  0.2137 -0.7032  0.2685
 7250SOL    HW122328   4.758   9.580   9.062 -1.1325 -0.1701  0.9005
 7250SOL    HW222329   4.807   9.437   9.053  1.6811  0.7527  0.6132
 7251SOL     OW22330   3.062   2.526   3.513 -0.6284  0.7286 -0.6942
 7251SOL    HW122331   3.025   2.573   3.587 -0.2498 -0.5589  0.3491
 7251SOL    HW222332   3.000   2.456   3.494  0.8210 -1.0184  0.6210
 7252SOL     OW22333   7.998   5.709   6.838  0.0762  0.3330 -0.0160
 7252SOL    HW122334   7.907   5.714   6.867  0.1082  2.3449 -0.0871
 7252SOL    HW222335   7.996   5.744   6.749  0.8506 -0.1476 -0.2337
 7253SOL     OW22336   5.974   9.625   7.211  0.3230 -0.0926 -0.0301
 7253SOL    HW122337   6.028   9.704   7.205  1.0392 -0.4960  0.8465
 7253SOL    HW222338   5.956   9.615   7.304  0.5016 -1.1269 -0.0913
 7254SOL     OW22339   6.651   3.804   9.583 -0.1453 -0.2107 -1.0746
 7254SOL    HW122340   6.701   3.792   9.502 -1.3323 -2.1703 -1.5706
 7254SOL    HW222341   6.713   3.782   9.652  0.2090 -0.8384 -1.5821
 7255SOL     OW22342   3.888   8.369   5.536 -0.3824  0.8073  0.3322
 7255SOL    HW122343   3.929   8.283   5.546 -0.7773  0.5041 -0.5828
 7255SOL    HW222344   3.864   8.395   5.625  0.1038  0.1517  0.6576
 7256SOL     OW22345   4.898   7.516   7.509 -0.3594  0.1015  0.1167
 7256SOL    HW122346   4.843   7.569   7.566  0.5869  0.5917  0.6003
 7256SOL    HW222347   4.837   7.468   7.454 -1.4133 -2.1231  3.0295
 7257SOL     OW22348   8.365   3.401   5.941 -0.3016 -0.0010 -0.2887
 7257SOL    HW122349   8.350   3.314   5.903  0.6223  0.1730 -1.0846
 7257SOL    HW222350   8.312   3.460   5.888 -0.2833  0.0279 -0.2742
 7258SOL     OW22351   4.988   6.942   8.338  0.6157  0.0408  0.2882
 7258SOL    HW122352   5.041   6.960   8.260  1.1513 -0.7988  0.4419
 7258SOL    HW222353   5.015   6.854   8.365 -2.3824 -1.3891 -0.8866
 7259SOL     OW22354   9.849   5.655   6.909 -0.4948 -0.4887  0.3610
 7259SOL    HW122355   9.804   5.571   6.918 -1.8705  0.2348  0.5301
 7259SOL    HW222356   9.931   5.634   6.865 -1.0193 -1.8511 -0.0188
 7260SOL     OW22357   4.131   7.727   0.639 -0.0265  0.2777 -0.1178
 7260SOL    HW122358   4.194   7.794   0.665 -0.1792  0.7698 -0.9633
 7260SOL    HW222359   4.046   7.761   0.669 -0.1282  0.5588 -0.7186
 7261SOL     OW22360   6.769   7.488   7.007 -0.0242 -0.5257  0.4109
 7261SOL    HW122361   6.742   7.402   7.039 -0.9516 -0.8284 -1.0838
 7261SOL    HW222362   6.759   7.546   7.083 -1.7423 -1.2708  0.7997
 7262SOL     OW22363   3.412   7.441   9.582 -0.0507  0.5420  0.7191
 7262SOL    HW122364   3.484   7.398   9.627  0.4804  0.1880 -0.4461
 7262SOL    HW222365   3.334   7.416   9.633  0.3593 -0.9950  0.6531
 7263SOL     OW22366   0.397   8.391   8.343 -0.1145  0.1817 -0.1447
 7263SOL    HW122367   0.436   8.353   8.264  2.2055  1.3227  0.3788
 7263SOL    HW222368   0.371   8.316   8.396  1.6285 -0.6603 -0.4265
 7264SOL     OW22369   1.360   1.833   5.679 -0.1585  0.1301 -0.1762
 7264SOL    HW122370   1.278   1.791   5.655  1.0375 -1.5996 -1.4101
 7264SOL    HW222371   1.364   1.825   5.775 -0.7740 -0.9951 -0.2396
 7265SOL     OW22372   7.907   0.349   2.978  0.0877  0.0074 -0.0781
 7265SOL    HW122373   7.902   0.351   2.883 -1.0673  0.0160 -0.0338
 7265SOL    HW222374   7.823   0.314   3.006  0.4940 -0.2005  0.9366
 7266SOL     OW22375   9.185   1.515   6.065 -0.2978  0.1509  0.4541
 7266SOL    HW122376   9.107   1.561   6.096 -1.7423 -1.3618 -0.7638
 7266SOL    HW222377   9.164   1.422   6.074  1.0689 -0.2920 -0.5963
 7267SOL     OW22378   8.622   8.040   4.777 -0.3234  0.5993  0.9086
 7267SOL    HW122379   8.541   8.091   4.767 -0.9979 -0.4003  1.1773
 7267SOL    HW222380   8.592   7.952   4.800  0.7253 -0.4609 -1.4891
 7268SOL     OW22381   9.965   8.912   8.635 -0.1774  0.2990 -0.5954
 7268SOL    HW122382   9.961   8.964   8.715 -0.6837 -0.6093 -0.0104
 7268SOL    HW222383   9.943   8.973   8.565 -0.3765  0.9547  0.0325
 7269SOL     OW22384   8.572   0.494   8.552  0.4375  0.6476  0.5366
 7269SOL    HW122385   8.596   0.514   8.462 -1.4748 -2.1489 -0.7604
 7269SOL    HW222386   8.654   0.464   8.593  1.0062  0.2302 -0.8447
 7270SOL     OW22387   1.619   4.406   8.610 -0.1636  0.6829  0.2726
 7270SOL    HW122388   1.597   4.357   8.531 -0.9977  0.3004  0.7271
 7270SOL    HW222389   1.534   4.432   8.647  0.1397 -0.1406  1.6554
 7271SOL     OW22390   7.269   8.206   9.284  0.1738  0.6656  0.7037
 7271SOL    HW122391   7.196   8.248   9.239  1.1341  0.2771 -1.3453
 7271SOL    HW222392   7.243   8.114   9.293 -0.1179  0.7927  1.1757
 7272SOL     OW22393   4.029   3.436   1.773  0.0858 -0.1196  0.1338
 7272SOL    HW122394   4.066   3.509   1.724 -0.3687 -1.2865 -2.1019
 7272SOL    HW222395   4.016   3.470   1.862 -1.3666  2.9464 -1.1029
 7273SOL     OW22396   2.553   4.819   5.961  0.1941 -0.1596  0.3157
 7273SOL    HW122397   2.630   4.848   6.011 -0.1918 -1.7505  1.9673
 7273SOL    HW222398   2.525   4.739   6.006 -0.7287 -1.2228 -1.9885
 7274SOL     OW22399   9.232   9.287   6.111  0.0073  0.1368 -0.2953
 7274SOL    HW122400   9.246   9.213   6.051  0.0128 -0.4568  0.4338
 7274SOL    HW222401   9.138   9.305   6.104  0.0501  0.2256 -0.6628
 7275SOL     OW22402   5.589   3.606   3.035 -0.4001 -0.5618  0.2185
 7275SOL    HW122403   5.519   3.657   2.993  1.4587  0.6772 -1.5537
 7275SOL    HW222404   5.623   3.550   2.965  0.1777 -1.4092  1.1526
 7276SOL     OW22405   8.382   6.015   1.375 -0.3581 -0.4296 -0.2214
 7276SOL    HW122406   8.346   5.938   1.420  1.4157 -0.3101  1.5410
 7276SOL    HW222407   8.319   6.033   1.305 -0.9624 -3.3245 -0.5558
 7277SOL     OW22408   0.204   3.588   4.271  0.4702 -0.0298 -0.1364
 7277SOL    HW122409   0.177   3.664   4.323  2.1706 -0.3007  1.2609
 7277SOL    HW222410   0.129   3.569   4.215 -0.5636  1.7410  0.5602
 7278SOL     OW22411   0.854   8.663   7.350  0.3876  0.1262  0.8740
 7278SOL    HW122412   0.916   8.610   7.400 -1.0670 -2.3228  0.2758
 7278SOL    HW222413   0.781   8.678   7.410  0.2575  0.4216  0.6448
 7279SOL     OW22414   4.253   0.482   0.089  0.1510 -0.4714 -0.2334
 7279SOL    HW122415   4.273   0.396   0.053 -0.8732 -0.6620 -0.3678
 7279SOL    HW222416   4.280   0.543   0.020 -0.4387 -0.7593 -0.7238
 7280SOL     OW22417   2.526   0.867   7.557 -0.5649 -0.3863  0.1267
 7280SOL    HW122418   2.491   0.782   7.582 -0.0353 -1.0675 -1.3403
 7280SOL    HW222419   2.620   0.860   7.576 -0.3625 -0.4873 -0.8505
 7281SOL     OW22420   8.903   7.004   0.519 -0.4857 -0.2813  0.0282
 7281SOL    HW122421   8.831   6.978   0.462 -0.1392 -0.9158 -0.1409
 7281SOL    HW222422   8.864   7.010   0.606 -0.6384 -1.1642  0.0338
 7282SOL     OW22423   7.877   3.566   2.662  0.0723 -0.1634 -0.5280
 7282SOL    HW122424   7.936   3.638   2.686  0.0670 -0.4644  0.4334
 7282SOL    HW222425   7.902   3.543   2.573  0.0035  1.1039 -0.8993
 7283SOL     OW22426   6.468   1.565   5.793  0.1605 -0.1637  0.5720
 7283SOL    HW122427   6.434   1.579   5.704  0.2238  1.0582  0.7222
 7283SOL    HW222428   6.563   1.560   5.781  0.2901  1.3977  0.6971
 7284SOL     OW22429   1.857   5.244   8.703  0.1224 -0.7140  0.0061
 7284SOL    HW122430   1.921   5.214   8.638  1.9063  2.6691 -0.0137
 7284SOL    HW222431   1.783   5.277   8.652  1.5477  2.0025 -0.4785
 7285SOL     OW22432   3.918   0.298   9.627  0.2455  0.7597 -0.2425
 7285SOL    HW122433   3.866   0.246   9.565 -0.9355  0.5763  0.8713
 7285SOL    HW222434   3.977   0.235   9.667 -0.4004  0.4734  0.2795
 7286SOL     OW22435   4.736   4.544   3.894  0.2441  0.1107  0.7629
 7286SOL    HW122436   4.680   4.491   3.837  2.5243 -1.9655  0.2874
 7286SOL    HW222437   4.733   4.499   3.979 -0.3469  1.1558  1.3215
 7287SOL     OW22438   9.159   8.787   2.636  0.1058  0.0478 -0.1179
 7287SOL    HW122439   9.175   8.729   2.562  0.8038  1.7274 -1.3438
 7287SOL    HW222440   9.202   8.744   2.710 -0.5978 -1.6507 -0.6457
 7288SOL     OW22441   6.115   3.575   3.939  0.2834 -0.0756  0.0569
 7288SOL    HW122442   6.051   3.588   3.869 -0.2583  1.5360  0.7956
 7288SOL    HW222443   6.062   3.553   4.015  0.6062  0.8610  0.5720
 7289SOL     OW22444   4.886   1.493   1.843  0.4908 -0.5569 -0.0403
 7289SOL    HW122445   4.855   1.490   1.753 -0.7002  0.3228  0.3181
 7289SOL    HW222446   4.911   1.585   1.857 -0.9472 -0.2974  1.0220
 7290SOL     OW22447   8.985   1.273   6.436  0.3221  0.2695  0.4175
 7290SOL    HW122448   8.997   1.366   6.420  1.8020  0.3690  1.8499
 7290SOL    HW222449   8.901   1.267   6.481  0.4439  0.9756  0.7479
 7291SOL     OW22450   0.760   0.894   3.479 -0.4056 -0.5543  0.0287
 7291SOL    HW122451   0.794   0.857   3.398 -0.2543 -1.0940  0.3295
 7291SOL    HW222452   0.727   0.818   3.528  0.8325 -0.4442  1.1032
 7292SOL     OW22453   7.921   4.413   6.844 -0.0123 -0.0794 -0.1477
 7292SOL    HW122454   7.845   4.422   6.786 -2.7249 -2.1129  2.7628
 7292SOL    HW222455   7.897   4.462   6.922  1.8051 -0.5791  0.7643
 7293SOL     OW22456   2.403   4.673   6.379  0.0889 -0.0508 -0.4110
 7293SOL    HW122457   2.439   4.761   6.389 -0.3596 -0.0949  3.8760
 7293SOL    HW222458   2.312   4.681   6.409 -0.4642 -1.6909 -1.5028
 7294SOL     OW22459   0.235   8.957   6.322 -0.0827  0.0218 -0.1564
 7294SOL    HW122460   0.304   9.013   6.285 -0.9450  1.8506  0.8652
 7294SOL    HW222461   0.162   9.016   6.338 -1.6120 -1.7037 -0.3900
 7295SOL     OW22462   3.594   8.589   2.873  0.0963  0.7424 -0.2366
 7295SOL    HW122463   3.636   8.670   2.904  2.5277  0.9824 -3.6296
 7295SOL    HW222464   3.551   8.614   2.791 -0.8169 -1.0306 -0.3395
 7296SOL     OW22465   9.007   7.800   5.396  0.0038 -0.4921  0.5721
 7296SOL    HW122466   9.063   7.848   5.336 -0.0915 -1.2983 -0.1902
 7296SOL    HW222467   9.039   7.822   5.483 -0.4131  1.3934  0.2793
 7297SOL     OW22468   2.328   6.133   8.154 -0.1994 -0.3391  0.3159
 7297SOL    HW122469   2.252   6.131   8.212  0.5853 -2.9843  1.4296
 7297SOL    HW222470   2.292   6.111   8.067 -0.9288  0.2769  0.4490
 7298SOL     OW22471   0.842   0.361   2.897 -0.2825  0.7043  0.2443
 7298SOL    HW122472   0.788   0.431   2.934  0.5272  1.2417  0.4320
 7298SOL    HW222473   0.818   0.283   2.947 -2.5784  0.3813 -1.2104
 7299SOL     OW22474   5.572   1.229   2.268 -0.1691 -0.1221  0.3674
 7299SOL    HW122475   5.585   1.134   2.261  1.7776 -0.0061  1.4065
 7299SOL    HW222476   5.658   1.262   2.297 -1.1398  1.8050  1.2151
 7300SOL     OW22477   0.098   5.709   0.063  0.5831 -0.0277 -0.6818
 7300SOL    HW122478   0.104   5.770  -0.011 -0.0292 -0.4599 -1.1056
 7300SOL    HW222479   0.180   5.660   0.061  0.7081  0.1908 -0.8746
 7301SOL     OW22480   4.804   6.290   6.875 -0.1539  0.4080 -0.3847
 7301SOL    HW122481   4.743   6.358   6.905  1.8726  1.3767  1.9439
 7301SOL    HW222482   4.821   6.311   6.784 -0.5834  2.2799 -0.0794
 7302SOL     OW22483   6.275   4.033   2.073 -0.2952 -0.4347 -0.7065
 7302SOL    HW122484   6.240   4.004   1.989  0.5316 -1.5685 -0.6945
 7302SOL    HW222485   6.302   3.952   2.117 -0.3722  0.1681  0.4936
 7303SOL     OW22486   3.794   3.608   2.888 -0.1846  0.0732  0.1262
 7303SOL    HW122487   3.810   3.530   2.835  1.3884  1.5632 -1.7136
 7303SOL    HW222488   3.880   3.631   2.923 -0.1576  2.2438 -1.2281
 7304SOL     OW22489   0.397   8.993   8.711  0.2227 -0.2079 -0.1159
 7304SOL    HW122490   0.419   8.942   8.790 -2.3746 -1.1829  0.0775
 7304SOL    HW222491   0.387   9.082   8.743  3.2805  0.2713 -0.1741
 7305SOL     OW22492   3.010   4.761   9.893 -0.7164  0.1482  0.8723
 7305SOL    HW122493   3.053   4.739   9.811 -1.3054 -1.0888  0.8790
 7305SOL    HW222494   3.006   4.857   9.893 -0.8630  0.1597 -0.6139
 7306SOL     OW22495   6.156   2.544   6.230  0.5841  0.1455 -0.5326
 7306SOL    HW122496   6.080   2.517   6.179 -1.0531  0.6992  1.4983
 7306SOL    HW222497   6.204   2.462   6.246 -0.3318 -0.4345 -0.6623
 7307SOL     OW22498   8.690   9.943   3.076 -0.1288 -0.0615  0.1595
 7307SOL    HW122499   8.774   9.904   3.052 -0.8920 -1.1319 -0.9209
 7307SOL    HW222500   8.629   9.909   3.010 -1.1641  1.6954  0.1592
 7308SOL     OW22501   0.474   5.419   8.722  0.6360  0.1233  0.0819
 7308SOL    HW122502   0.490   5.455   8.635 -1.0958 -0.3476 -0.4734
 7308SOL    HW222503   0.380   5.430   8.736  0.5565 -1.4664  1.1208
 7309SOL     OW22504   4.224   0.343   1.398 -0.1978 -0.3456 -0.1485
 7309SOL    HW122505   4.261   0.417   1.349 -0.7903 -0.6727 -1.1077
 7309SOL    HW222506   4.207   0.379   1.485  0.3979  0.3830 -0.3191
 7310SOL     OW22507   1.992   6.533   4.759 -0.1694 -0.1402  0.2484
 7310SOL    HW122508   2.040   6.543   4.841 -0.3377  0.5709  0.2674
 7310SOL    HW222509   1.919   6.595   4.766  1.4297  2.1150 -1.6230
 7311SOL     OW22510   7.568   1.999   2.400  0.2268 -0.0959  0.6174
 7311SOL    HW122511   7.481   2.037   2.387  0.6822 -0.0012 -3.4753
 7311SOL    HW222512   7.553   1.905   2.404 -0.1139 -0.0829 -0.1179
 7312SOL     OW22513   2.785   3.064   4.085  0.2336 -0.0801  0.5989
 7312SOL    HW122514   2.817   3.152   4.066  0.1686  0.1665  1.5879
 7312SOL    HW222515   2.711   3.077   4.144  0.7447 -0.8153  1.4534
 7313SOL     OW22516   7.319   4.752   8.464  0.1039 -0.0145  0.4017
 7313SOL    HW122517   7.249   4.708   8.512 -0.2551 -0.2281 -0.3106
 7313SOL    HW222518   7.280   4.776   8.380  0.5980  0.7344  0.3710
 7314SOL     OW22519   3.151   1.860   6.531  0.0047  0.4157 -0.0677
 7314SOL    HW122520   3.243   1.881   6.515 -0.2807  1.3215 -0.5597
 7314SOL    HW222521   3.142   1.769   6.502  0.7121  0.3641 -0.1457
 7315SOL     OW22522   2.954   0.285   2.523  0.1589  0.2389 -0.0144
 7315SOL    HW122523   3.017   0.245   2.464  1.1698 -1.0035  1.8007
 7315SOL    HW222524   2.881   0.223   2.525  0.2631  0.1219  0.2526
 7316SOL     OW22525   1.960   9.396   9.875 -0.4298  0.2138  0.3398
 7316SOL    HW122526   1.913   9.475   9.900  2.1368  2.0400 -0.2145
 7316SOL    HW222527   2.037   9.395   9.931  1.2929 -0.0174 -1.8940
 7317SOL     OW22528   1.673   0.073   6.748 -0.0029 -0.8758 -0.0335
 7317SOL    HW122529   1.751   0.119   6.719  0.2537 -1.0051  0.4540
 7317SOL    HW222530   1.697  -0.020   6.745  0.1688 -0.8726  1.0011
 7318SOL     OW22531   5.661   5.903   0.447 -0.1878  0.0599  0.1740
 7318SOL    HW122532   5.710   5.828   0.480 -1.1092 -0.7089 -0.1775
 7318SOL    HW222533   5.643   5.956   0.525 -0.4937 -0.6544  0.5952
 7319SOL     OW22534   0.763   6.192   5.992 -0.0223  0.1615 -0.4967
 7319SOL    HW122535   0.750   6.265   5.931 -1.1601  0.5953  0.2305
 7319SOL    HW222536   0.721   6.117   5.949 -1.7283  0.6968  0.1566
 7320SOL     OW22537   7.745   8.006   1.730 -0.3151  0.6025  0.1538
 7320SOL    HW122538   7.832   8.022   1.768  0.1867  0.2948 -0.8395
 7320SOL    HW222539   7.716   8.091   1.697  1.5042  0.0364 -3.3663
 7321SOL     OW22540   9.573   7.225   2.288  0.6778  0.1699 -0.1764
 7321SOL    HW122541   9.537   7.145   2.249  1.4411 -0.2453 -0.0514
 7321SOL    HW222542   9.659   7.199   2.321 -0.2968  0.2173  2.7222
 7322SOL     OW22543   3.568   6.352   6.970 -0.1451  0.2550  0.6611
 7322SOL    HW122544   3.618   6.423   6.928  1.1081 -1.4720 -0.9363
 7322SOL    HW222545   3.527   6.306   6.898 -1.7558 -0.1021  1.7609
 7323SOL     OW22546   6.351   0.127   6.813  0.2836 -0.0934 -0.1350
 7323SOL    HW122547   6.346   0.193   6.883 -1.0786 -0.0749 -0.2306
 7323SOL    HW222548   6.423   0.070   6.840  0.0671  0.1666  1.0699
 7324SOL     OW22549   5.477   4.059   6.033 -0.1430 -0.2579  0.4325
 7324SOL    HW122550   5.496   3.998   5.961  0.2224 -3.0473  2.7223
 7324SOL    HW222551   5.382   4.070   6.029  0.0198  1.1031 -1.4712
 7325SOL     OW22552   6.782   4.060   6.137 -0.1889 -0.6262 -0.1545
 7325SOL    HW122553   6.814   4.028   6.221  0.8082  0.4107 -0.1131
 7325SOL    HW222554   6.845   4.127   6.112 -1.8828  0.8862 -0.5168
 7326SOL     OW22555   6.244   2.678   5.389  0.1888 -0.1954 -0.9369
 7326SOL    HW122556   6.299   2.629   5.449 -2.2635 -0.5811  1.1663
 7326SOL    HW222557   6.229   2.762   5.432 -0.0104  0.3280 -1.9755
 7327SOL     OW22558   9.394   1.797   7.456  0.5310  0.2852 -0.0117
 7327SOL    HW122559   9.454   1.749   7.399  0.7555 -0.0826  0.5296
 7327SOL    HW222560   9.443   1.808   7.538 -0.2097 -0.1909  0.5045
 7328SOL     OW22561   6.512   4.302   5.416  0.9067 -0.7987 -0.1994
 7328SOL    HW122562   6.421   4.329   5.403  0.8406 -0.9916 -0.1495
 7328SOL    HW222563   6.518   4.216   5.374  0.6889 -1.4322  1.0188
 7329SOL     OW22564   7.207   3.466   7.545 -0.3950  0.3116  0.5791
 7329SOL    HW122565   7.272   3.471   7.614  0.2174  0.1073  0.0338
 7329SOL    HW222566   7.257   3.442   7.467 -1.4832 -2.8176  0.7029
 7330SOL     OW22567   6.482   4.717   3.918  0.6354 -0.0008  0.0830
 7330SOL    HW122568   6.496   4.655   3.989 -1.6771  0.0617  0.6687
 7330SOL    HW222569   6.538   4.791   3.939  0.2667 -0.1431  1.6355
 7331SOL     OW22570   6.996   7.480   9.032  0.3561  0.3784 -0.8247
 7331SOL    HW122571   6.923   7.505   8.975  0.0795  0.4145 -0.4584
 7331SOL    HW222572   7.001   7.384   9.024 -0.8714  0.1693  0.4899
 7332SOL     OW22573   2.745   3.666   7.200 -0.3627 -0.4066  0.5742
 7332SOL    HW122574   2.697   3.715   7.267  0.1433 -0.5943  1.0753
 7332SOL    HW222575   2.795   3.733   7.153 -0.3883 -0.3316  0.6540
 7333SOL     OW22576   3.374   0.900   7.477 -0.0770  0.1533  0.4232
 7333SOL    HW122577   3.387   0.891   7.572 -0.1587  0.9899  0.5197
 7333SOL    HW222578   3.454   0.864   7.439  1.6606  3.1329  0.9442
 7334SOL     OW22579   5.931   4.384   4.207  0.4427  0.3535  0.2763
 7334SOL    HW122580   5.836   4.393   4.208  0.3345 -0.3798 -1.0218
 7334SOL    HW222581   5.957   4.414   4.120  1.6685  2.6445  1.3503
 7335SOL     OW22582   2.280   1.794   3.126 -0.7768 -0.5524 -0.3337
 7335SOL    HW122583   2.332   1.717   3.102  0.1773 -0.5909  1.6462
 7335SOL    HW222584   2.339   1.867   3.112 -0.2315 -0.5684  1.6454
 7336SOL     OW22585   4.278   2.844   0.820  0.2352  0.3349  0.3143
 7336SOL    HW122586   4.193   2.889   0.819 -0.3607 -0.7154  0.8501
 7336SOL    HW222587   4.283   2.801   0.734 -1.0782 -1.8140  1.2090
 7337SOL     OW22588   5.676   4.766   4.184  0.4139  0.4781  0.3273
 7337SOL    HW122589   5.763   4.744   4.217  1.3361  2.1742 -0.8616
 7337SOL    HW222590   5.681   4.751   4.090 -1.0323 -0.6883  0.3894
 7338SOL     OW22591   5.071   5.359   1.686 -0.5800  0.3153 -0.1853
 7338SOL    HW122592   4.993   5.395   1.644 -0.0937  0.7250 -0.7552
 7338SOL    HW222593   5.123   5.435   1.710  0.1370  0.0289 -0.7817
 7339SOL     OW22594   2.390   5.178   7.485  0.2475  0.2941  0.0727
 7339SOL    HW122595   2.435   5.188   7.569 -0.9483  2.9757  0.4901
 7339SOL    HW222596   2.460   5.159   7.422  1.6966  1.9829  1.0810
 7340SOL     OW22597   8.135   1.785   9.627 -0.0714 -0.5437  0.5506
 7340SOL    HW122598   8.135   1.725   9.701 -0.3923 -0.2626  0.7777
 7340SOL    HW222599   8.072   1.747   9.565 -0.5436 -0.2545  0.8484
 7341SOL     OW22600   0.391   7.362   0.991 -0.0081 -0.2247 -0.0155
 7341SOL    HW122601   0.457   7.387   0.927 -0.2817 -0.5364 -0.4168
 7341SOL    HW222602   0.331   7.437   0.993 -1.0233 -0.9582 -1.4756
 7342SOL     OW22603   8.583   0.753   0.351 -0.6002  0.1199 -0.5445
 7342SOL    HW122604   8.493   0.724   0.335 -1.2129  1.4626  0.2381
 7342SOL    HW222605   8.574   0.845   0.376  0.8520 -0.1233  1.0412
 7343SOL     OW22606   3.300   1.714   2.715 -0.2666 -0.4047  0.1789
 7343SOL    HW122607   3.254   1.732   2.797  0.1387  0.4164  0.2274
 7343SOL    HW222608   3.244   1.650   2.670 -2.2745  1.6666 -0.4651
 7344SOL     OW22609   9.339   7.942   9.318 -0.6490  0.1549 -0.3173
 7344SOL    HW122610   9.293   7.884   9.257 -2.7773 -1.3489  2.4816
 7344SOL    HW222611   9.397   7.884   9.367 -0.8357  0.8250  0.7445
 7345SOL     OW22612   8.105   9.390   8.821 -0.0938  0.0514  0.0329
 7345SOL    HW122613   8.058   9.365   8.742  2.1389 -0.3498 -1.2526
 7345SOL    HW222614   8.078   9.480   8.839 -0.1608  0.3680 -1.5635
 7346SOL     OW22615   9.767   6.282   1.343 -0.6749  0.5034  0.6215
 7346SOL    HW122616   9.688   6.229   1.332 -1.1681  1.4995 -0.9926
 7346SOL    HW222617   9.780   6.324   1.257  0.8193  1.4428  1.2638
 7347SOL     OW22618   7.374   6.998   7.325  0.7270 -0.1392 -0.2830
 7347SOL    HW122619   7.357   7.005   7.419 -3.3091 -0.4474 -0.8168
 7347SOL    HW222620   7.369   7.089   7.293  1.3078 -0.1136 -0.3001
 7348SOL     OW22621   2.666   1.158   1.193  0.1779 -0.7271  0.8393
 7348SOL    HW122622   2.702   1.207   1.267 -1.2823  1.1018  0.4051
 7348SOL    HW222623   2.706   1.198   1.116 -1.6741  0.4657  0.4325
 7349SOL     OW22624   2.006   3.754   9.047  0.0930  0.1999 -0.2542
 7349SOL    HW122625   1.979   3.843   9.073 -1.2052 -0.7073  1.7590
 7349SOL    HW222626   1.971   3.744   8.958 -2.4974  0.6833  0.6078
 7350SOL     OW22627   0.329   0.416   3.472  0.0448 -0.1930  0.8158
 7350SOL    HW122628   0.306   0.494   3.422  0.5695  0.2242  1.2106
 7350SOL    HW222629   0.258   0.355   3.456 -0.2323  0.2625  0.2738
 7351SOL     OW22630   5.937   1.019   8.010 -0.3894  0.4679  0.1725
 7351SOL    HW122631   5.879   0.986   8.078  1.0095  0.1889  1.2576
 7351SOL    HW222632   5.943   0.947   7.947 -1.6488  0.7129 -0.2603
 7352SOL     OW22633   4.739   5.165   7.596  0.2654 -0.2350 -0.1764
 7352SOL    HW122634   4.657   5.200   7.564 -0.4922 -0.5527  1.2942
 7352SOL    HW222635   4.806   5.225   7.565 -0.6040  0.4259 -0.7926
 7353SOL     OW22636   2.120   6.272   0.077 -0.0217  0.5144 -0.7557
 7353SOL    HW122637   2.210   6.276   0.044  0.8963 -0.9584  1.3626
 7353SOL    HW222638   2.066   6.270  -0.002  1.7577  1.6321 -2.0825
 7354SOL     OW22639   8.349   7.441   3.224  0.2136  0.3021 -0.2009
 7354SOL    HW122640   8.360   7.530   3.191  0.8954  0.6527  0.9056
 7354SOL    HW222641   8.303   7.451   3.308 -1.3681 -0.5464 -0.9189
 7355SOL     OW22642   9.829   0.045   7.240  0.1086  0.0799  0.2510
 7355SOL    HW122643   9.877   0.113   7.193  1.4902 -0.8718  0.2044
 7355SOL    HW222644   9.778   0.000   7.172  0.1727  0.2760  0.0733
 7356SOL     OW22645   1.960   8.121   8.043  0.0875  0.3092 -0.0739
 7356SOL    HW122646   1.978   8.027   8.035  0.2299  0.4655 -1.8992
 7356SOL    HW222647   1.895   8.139   7.975 -0.5247  1.4068  0.7689
 7357SOL     OW22648   0.719   0.190   7.431 -0.5999 -0.1886  0.5734
 7357SOL    HW122649   0.630   0.194   7.464 -0.4136  0.5413  1.0149
 7357SOL    HW222650   0.713   0.218   7.340 -1.1525 -2.4445 -0.1208
 7358SOL     OW22651   1.954   1.904   8.656 -0.3588 -0.2523 -0.1683
 7358SOL    HW122652   1.969   1.961   8.732 -1.5923 -0.9049  0.5952
 7358SOL    HW222653   2.019   1.932   8.592 -1.3844  2.5498 -0.1374
 7359SOL     OW22654   3.110   3.029   6.741 -0.2197 -0.8521 -0.0535
 7359SOL    HW122655   3.180   3.084   6.707 -0.3529 -0.0885  0.8671
 7359SOL    HW222656   3.140   2.940   6.726  0.1637 -0.5418 -1.2383
 7360SOL     OW22657   6.113   1.159   3.499 -0.1589 -0.2201 -0.2168
 7360SOL    HW122658   6.043   1.146   3.435  0.7593 -0.0488 -1.2867
 7360SOL    HW222659   6.113   1.253   3.516 -0.0526 -0.1887 -0.3862
 7361SOL     OW22660   3.740   3.675   3.623  0.0053  0.4949  0.0029
 7361SOL    HW122661   3.752   3.639   3.711  1.6370 -0.0079 -0.3892
 7361SOL    HW222662   3.797   3.621   3.567 -1.5737  0.3025 -1.5138
 7362SOL     OW22663   6.224   7.255   7.465  0.1996  0.2216  0.4612
 7362SOL    HW122664   6.296   7.245   7.403 -1.7651  2.2159 -2.4041
 7362SOL    HW222665   6.242   7.337   7.510  0.0690  0.3966  0.1998
 7363SOL     OW22666   7.450   7.953   7.022 -0.2607  0.0771  0.1182
 7363SOL    HW122667   7.449   8.021   6.955  1.6029  0.2187  0.1678
 7363SOL    HW222668   7.530   7.969   7.072 -0.9607 -0.7806  1.6008
 7364SOL     OW22669   9.553   3.900   0.653  0.1912  0.5953 -0.4564
 7364SOL    HW122670   9.505   3.971   0.696 -0.4054  0.8029 -1.4409
 7364SOL    HW222671   9.641   3.906   0.690 -0.5849 -0.0102  1.6401
 7365SOL     OW22672   1.730   3.643   6.086 -0.6342  0.3431  0.1348
 7365SOL    HW122673   1.749   3.554   6.115 -1.0387  0.4060  0.5903
 7365SOL    HW222674   1.740   3.639   5.991 -1.8443 -0.4868  0.0179
 7366SOL     OW22675   4.863   5.248   4.868 -0.0010 -1.0133 -0.0687
 7366SOL    HW122676   4.859   5.284   4.779 -0.8295 -2.1911 -0.5379
 7366SOL    HW222677   4.922   5.173   4.861  2.4660  0.6773  1.1019
 7367SOL     OW22678   1.502   3.012   3.098  0.7904 -0.3726  0.1789
 7367SOL    HW122679   1.571   3.078   3.109  1.7571 -1.2604 -0.3587
 7367SOL    HW222680   1.503   2.961   3.179 -0.3530  0.5931  0.8381
 7368SOL     OW22681   0.338   2.210   5.607  0.3921  0.3098  0.1212
 7368SOL    HW122682   0.403   2.204   5.537  0.0275  0.8768 -0.2762
 7368SOL    HW222683   0.311   2.302   5.606 -0.0104  0.2011  0.6491
 7369SOL     OW22684   7.801   5.720   5.596 -0.2790  0.3002  0.2411
 7369SOL    HW122685   7.871   5.673   5.552 -0.9138  0.3366 -0.8390
 7369SOL    HW222686   7.725   5.709   5.539 -1.0553  0.5877  1.1935
 7370SOL     OW22687   4.477   7.671   3.239 -0.2832  0.3356  0.5185
 7370SOL    HW122688   4.543   7.624   3.189 -1.6813 -0.1349 -0.9620
 7370SOL    HW222689   4.462   7.752   3.190 -0.9275  0.3464  0.7145
 7371SOL     OW22690   6.588   6.470   7.463 -0.0830 -0.6443 -0.0027
 7371SOL    HW122691   6.527   6.537   7.495  1.7662  0.1366  2.0595
 7371SOL    HW222692   6.554   6.388   7.498 -0.6080 -0.3966  0.0848
 7372SOL     OW22693   1.061   6.161   6.197 -0.9406  0.5667 -0.4887
 7372SOL    HW122694   1.099   6.074   6.192 -0.9637  0.3598  2.0132
 7372SOL    HW222695   1.119   6.215   6.143  0.5117 -0.5254 -0.0796
 7373SOL     OW22696   6.203  10.012   4.747 -0.3417  0.4086 -1.1794
 7373SOL    HW122697   6.287   9.982   4.714 -0.2915 -0.2596 -0.4784
 7373SOL    HW222698   6.185   9.956   4.823  0.6682  3.3386  1.4546
 7374SOL     OW22699   7.690   8.970   2.774  0.0812  0.8967  0.0794
 7374SOL    HW122700   7.744   9.015   2.839  1.1682  0.1444 -0.2742
 7374SOL    HW222701   7.728   8.883   2.767 -1.0882  0.3966 -0.3140
 7375SOL     OW22702   6.259   7.804   6.192  0.1750  0.3190  0.4953
 7375SOL    HW122703   6.260   7.809   6.096 -0.2657 -1.2657  0.3755
 7375SOL    HW222704   6.209   7.881   6.220 -2.2811 -0.7365 -0.7288
 7376SOL     OW22705   1.295   2.160   8.650  0.4434  0.0099 -0.0948
 7376SOL    HW122706   1.271   2.236   8.596  1.1718  0.0993 -0.2998
 7376SOL    HW222707   1.238   2.090   8.620  0.5335  0.1805 -0.6708
 7377SOL     OW22708   2.356   7.682   3.785  0.1127 -0.2170  0.4383
 7377SOL    HW122709   2.337   7.589   3.774 -0.3098  0.0307 -1.1284
 7377SOL    HW222710   2.286   7.727   3.737  1.2612  0.8621 -0.3072
 7378SOL     OW22711   7.297   6.064   7.379 -0.0811  0.0177 -0.6096
 7378SOL    HW122712   7.380   6.095   7.341  0.2414 -0.2226 -0.1061
 7378SOL    HW222713   7.235   6.070   7.306  0.2234  0.8077 -0.8195
 7379SOL     OW22714   0.029   5.871   5.970 -0.4162  0.3842  0.2403
 7379SOL    HW122715   0.028   5.775   5.967  0.5779  0.3836 -0.4198
 7379SOL    HW222716  -0.029   5.893   6.043 -0.1344 -0.7472  0.8314
 7380SOL     OW22717   3.836   7.261   0.504 -0.2352 -0.0975  0.1045
 7380SOL    HW122718   3.905   7.319   0.535  0.8481 -0.5554 -1.3483
 7380SOL    HW222719   3.873   7.173   0.509 -0.2273 -0.2520 -1.7703
 7381SOL     OW22720   2.055   3.238   7.821  0.0694  0.0524  0.5293
 7381SOL    HW122721   2.027   3.259   7.910 -0.9320 -0.1095  0.2643
 7381SOL    HW222722   2.082   3.146   7.826 -1.2969 -0.3667  0.3754
 7382SOL     OW22723   2.769   1.262   5.517  0.2646 -0.1602  0.5006
 7382SOL    HW122724   2.855   1.232   5.487 -0.0729  0.5942 -1.3256
 7382SOL    HW222725   2.788   1.321   5.590  1.2059 -1.0102  0.9598
 7383SOL     OW22726   1.301   1.544   1.012  0.1276  0.0642  0.5275
 7383SOL    HW122727   1.268   1.564   1.099 -0.3521 -0.8669  0.5725
 7383SOL    HW222728   1.271   1.455   0.995 -0.8667  0.6716 -1.1158
 7384SOL     OW22729   1.574   4.548   4.192 -0.2762 -0.0398  0.1058
 7384SOL    HW122730   1.636   4.570   4.123 -0.3158 -0.4490 -0.0584
 7384SOL    HW222731   1.495   4.521   4.146  0.5723 -3.0831  0.2004
 7385SOL     OW22732   0.830   0.625   4.057 -0.0287 -0.1503  0.3485
 7385SOL    HW122733   0.910   0.669   4.086  1.3765 -0.1294 -3.0873
 7385SOL    HW222734   0.830   0.542   4.106  1.4908  0.3304  1.2440
 7386SOL     OW22735   8.052   9.176   2.832  0.3105  0.3261  0.1866
 7386SOL    HW122736   8.063   9.098   2.886 -0.5456  0.5280  0.6621
 7386SOL    HW222737   8.033   9.142   2.745 -1.9790 -0.0363  0.7728
 7387SOL     OW22738   3.889   1.132   7.704 -0.1522  0.0849 -0.2520
 7387SOL    HW122739   3.931   1.143   7.789  1.2645 -1.6823 -0.6442
 7387SOL    HW222740   3.956   1.091   7.650 -1.5213 -0.2623 -1.7590
 7388SOL     OW22741   1.613   4.180   3.753 -0.4043  0.0823 -0.9026
 7388SOL    HW122742   1.635   4.250   3.692  1.3770 -1.0936 -1.7146
 7388SOL    HW222743   1.552   4.220   3.815  0.7851  2.4363 -1.1275
 7389SOL     OW22744   0.454   7.791   5.642 -0.3826 -0.1010  0.8373
 7389SOL    HW122745   0.391   7.861   5.627  0.4617  0.8015  1.3678
 7389SOL    HW222746   0.504   7.820   5.719  0.5095 -0.9044  0.5799
 7390SOL     OW22747   5.629   4.632   0.462 -0.0220  0.1443 -0.6657
 7390SOL    HW122748   5.688   4.700   0.430  2.3214 -0.6953  1.5018
 7390SOL    HW222749   5.686   4.556   0.475 -1.7429 -0.9689  0.8129
 7391SOL     OW22750   2.730   9.357   9.883  0.6009 -0.0643  0.6251
 7391SOL    HW122751   2.681   9.378   9.962 -1.2026 -0.0854 -0.4382
 7391SOL    HW222752   2.805   9.305   9.914  1.0001  1.4985  2.4834
 7392SOL     OW22753   8.299   5.556   1.427 -0.1161  0.1281  0.4755
 7392SOL    HW122754   8.253   5.501   1.363 -0.3926  1.3013 -0.3670
 7392SOL    HW222755   8.318   5.497   1.500  1.3259 -1.6137 -1.1683
 7393SOL     OW22756   6.128   5.290   1.311  0.4084 -0.7528  0.3769
 7393SOL    HW122757   6.172   5.356   1.365 -1.6203  0.3719  0.7646
 7393SOL    HW222758   6.059   5.255   1.367 -0.6995 -0.7527 -0.9407
 7394SOL     OW22759   2.347   6.270   4.045  0.2203  0.0161 -0.5464
 7394SOL    HW122760   2.417   6.208   4.066  0.7302  0.8294  0.2060
 7394SOL    HW222761   2.271   6.215   4.026  1.0086 -0.8722 -1.2006
 7395SOL     OW22762   8.288   1.767   7.762  0.2045 -0.0065 -0.1295
 7395SOL    HW122763   8.340   1.848   7.771  0.3977 -0.0717 -0.6165
 7395SOL    HW222764   8.329   1.705   7.822  0.0851  0.2444  0.2127
 7396SOL     OW22765   6.993   4.575   3.555 -0.0942  0.2109 -0.8733
 7396SOL    HW122766   6.917   4.613   3.598  1.0148  0.8635  0.5760
 7396SOL    HW222767   7.054   4.647   3.545  1.0540 -0.6562 -0.3432
 7397SOL     OW22768   0.231   0.722   5.944  0.4626 -0.5726 -0.3360
 7397SOL    HW122769   0.242   0.627   5.940 -1.6826 -0.8559 -0.7653
 7397SOL    HW222770   0.268   0.755   5.862  0.8083 -1.0722 -0.3812
 7398SOL     OW22771   6.912   6.252   3.797 -0.5240 -0.4041  0.3348
 7398SOL    HW122772   6.915   6.160   3.769 -0.8411  0.1062 -1.5175
 7398SOL    HW222773   6.835   6.287   3.753 -1.3110  0.4038  2.2515
 7399SOL     OW22774   8.566   6.533   4.648 -0.1143 -0.4184  0.0612
 7399SOL    HW122775   8.530   6.515   4.561 -0.6685  0.1177  0.1740
 7399SOL    HW222776   8.611   6.617   4.638  1.6758 -1.3698 -0.2400
 7400SOL     OW22777   4.098   0.785   2.833  0.1222 -0.3705  0.3971
 7400SOL    HW122778   4.010   0.749   2.824 -0.7886  1.7153  0.3231
 7400SOL    HW222779   4.121   0.816   2.745  1.4609 -1.9428  0.1453
 7401SOL     OW22780   4.874   6.097   0.122 -0.0961 -0.4439  0.7064
 7401SOL    HW122781   4.785   6.091   0.087 -0.5649 -0.8465  1.9210
 7401SOL    HW222782   4.878   6.184   0.161  0.6283  0.2448 -0.8199
 7402SOL     OW22783   1.029   1.836   9.298 -0.2485  0.1521 -0.1635
 7402SOL    HW122784   0.968   1.811   9.229  0.8849  0.6101 -1.3761
 7402SOL    HW222785   1.093   1.764   9.300 -0.6146 -0.1655  0.8665
 7403SOL     OW22786   9.322   8.182   8.002 -0.3366  0.9944 -0.2039
 7403SOL    HW122787   9.393   8.176   8.066 -1.3814  0.9096  0.9722
 7403SOL    HW222788   9.319   8.095   7.962 -0.0646  0.8634  0.0564
 7404SOL     OW22789   4.154   6.673   1.684 -0.0549  0.1610 -0.0529
 7404SOL    HW122790   4.099   6.726   1.740 -2.1947 -2.0941  0.1741
 7404SOL    HW222791   4.126   6.694   1.595 -3.6965 -3.0318  0.0867
 7405SOL     OW22792   1.559   2.531   4.529 -0.6661 -0.0131 -0.2363
 7405SOL    HW122793   1.525   2.443   4.544  1.4000 -1.2676 -2.1758
 7405SOL    HW222794   1.508   2.565   4.456 -1.5503  0.4832  0.5960
 7406SOL     OW22795   5.331   4.316   0.906 -0.1397 -0.5699 -0.1257
 7406SOL    HW122796   5.354   4.227   0.879  4.6225  0.4140 -0.3496
 7406SOL    HW222797   5.370   4.372   0.838 -1.8061  1.7451  0.6914
 7407SOL     OW22798   8.913   5.768   0.272 -0.1939  0.2430 -0.0000
 7407SOL    HW122799   9.001   5.744   0.242 -0.0414 -0.3310  0.8729
 7407SOL    HW222800   8.856   5.705   0.228  0.0164 -0.5052  0.7629
 7408SOL     OW22801   9.665   6.687   0.114  0.4531 -0.3977  0.9123
 7408SOL    HW122802   9.649   6.770   0.159 -0.4626 -0.5303  0.8543
 7408SOL    HW222803   9.755   6.695   0.081  0.0105  1.0534 -0.0894
 7409SOL     OW22804   8.437   3.780   7.990 -0.4481  0.0974 -0.1575
 7409SOL    HW122805   8.351   3.779   8.033 -0.3128 -0.1756  0.1117
 7409SOL    HW222806   8.417   3.788   7.897 -0.8177 -1.1112 -0.2036
 7410SOL     OW22807   6.865   9.460   5.088 -0.7527 -0.5709 -0.3584
 7410SOL    HW122808   6.798   9.454   5.019 -0.0679 -1.0367 -0.9959
 7410SOL    HW222809   6.901   9.372   5.093 -0.7421 -0.5150  0.5547
 7411SOL     OW22810   5.036   2.321   9.121  0.7490 -0.7246  0.0764
 7411SOL    HW122811   5.104   2.286   9.178 -1.4394  0.5117  3.7723
 7411SOL    HW222812   5.007   2.246   9.069  2.0582 -2.2562  1.4445
 7412SOL     OW22813   4.729   9.541   4.614 -0.6532 -0.1413  0.4897
 7412SOL    HW122814   4.712   9.504   4.701  0.3081  0.1872  0.8347
 7412SOL    HW222815   4.767   9.627   4.632  1.9675 -1.0606 -0.1589
 7413SOL     OW22816   8.759   2.515   0.315 -0.3921 -0.2434  0.7490
 7413SOL    HW122817   8.679   2.489   0.269  0.2179 -2.5041  0.8557
 7413SOL    HW222818   8.775   2.444   0.377  0.3330  1.4093  2.5477
 7414SOL     OW22819   3.142   4.892   4.358  0.0381  0.3225  0.3418
 7414SOL    HW122820   3.099   4.976   4.345 -1.0254 -0.4140 -1.2951
 7414SOL    HW222821   3.179   4.870   4.272  0.8798 -0.5746  0.9032
 7415SOL     OW22822   0.900   5.311   5.440 -0.4313  0.0862  0.1391
 7415SOL    HW122823   0.991   5.320   5.413 -0.1264  0.0127  1.1294
 7415SOL    HW222824   0.854   5.288   5.359  0.3270  0.6967 -0.4854
 7416SOL     OW22825   6.169   1.798   6.924 -0.2059  0.4001  0.2953
 7416SOL    HW122826   6.114   1.875   6.918  0.5962  0.9657 -0.0370
 7416SOL    HW222827   6.108   1.725   6.930 -1.1474  0.6327 -3.5797
 7417SOL     OW22828   1.932   6.041   0.864 -0.6889  0.1685 -0.2720
 7417SOL    HW122829   1.960   6.056   0.955 -1.0756 -1.9050  0.2273
 7417SOL    HW222830   1.983   5.966   0.835 -0.9318  0.5065 -1.6219
 7418SOL     OW22831   7.742   4.333   5.509  0.1539  0.2305 -0.0538
 7418SOL    HW122832   7.648   4.348   5.519  0.3186  0.7497  0.8733
 7418SOL    HW222833   7.751   4.292   5.423 -0.8382  0.9136 -0.5074
 7419SOL     OW22834   0.996   1.607   7.189  0.0556  0.4186  0.1611
 7419SOL    HW122835   1.004   1.635   7.098 -0.6256 -0.5567 -0.2184
 7419SOL    HW222836   1.081   1.627   7.228  0.7773 -0.2535 -1.0104
 7420SOL     OW22837   1.687   1.302   2.941  0.0180  0.2227 -0.4906
 7420SOL    HW122838   1.623   1.255   2.994 -0.8322 -0.2161 -1.8611
 7420SOL    HW222839   1.661   1.394   2.946  0.3388  0.2783  0.3579
 7421SOL     OW22840   7.146   8.525   0.299 -0.8967 -0.4457 -0.0036
 7421SOL    HW122841   7.054   8.544   0.316 -0.2212  1.9061  1.6258
 7421SOL    HW222842   7.182   8.501   0.384  0.1469 -0.5938 -0.4710
 7422SOL     OW22843   3.839   6.420   0.953  0.3226 -0.5614  0.7036
 7422SOL    HW122844   3.813   6.504   0.916 -0.2395 -1.3837 -0.8385
 7422SOL    HW222845   3.930   6.408   0.925 -0.2799 -1.4527 -1.0282
 7423SOL     OW22846   6.705   8.215   7.083  0.6181 -0.2026  0.0573
 7423SOL    HW122847   6.690   8.288   7.144  1.4521  1.4672 -1.6203
 7423SOL    HW222848   6.647   8.233   7.009 -0.5663 -2.3252  0.3935
 7424SOL     OW22849   4.371   7.854   7.952  0.4867  0.2296  0.5873
 7424SOL    HW122850   4.283   7.819   7.940 -0.4994  2.3969  0.9134
 7424SOL    HW222851   4.366   7.943   7.918  2.9085  0.0361 -0.4463
 7425SOL     OW22852   0.930   0.041   1.431  0.6902  0.6566  0.0976
 7425SOL    HW122853   0.942   0.076   1.519  0.3590 -0.8016  0.7331
 7425SOL    HW222854   0.957  -0.050   1.437 -0.7193  0.1378 -0.9559
 7426SOL     OW22855   4.081   3.756   3.363 -0.3889 -0.5020  0.7178
 7426SOL    HW122856   4.112   3.700   3.434  0.9526  0.0470  0.5994
 7426SOL    HW222857   4.040   3.830   3.408 -1.2971 -1.0924  0.8826
 7427SOL     OW22858   6.098   6.265   5.954 -0.0416 -0.5569  0.2744
 7427SOL    HW122859   6.086   6.358   5.939  1.0419 -0.3868  0.4143
 7427SOL    HW222860   6.191   6.249   5.939 -0.0369 -1.4523  1.0977
 7428SOL     OW22861   1.819   4.669   9.725 -0.0297  0.0105 -0.2261
 7428SOL    HW122862   1.877   4.608   9.679 -1.0429 -1.1529 -0.0090
 7428SOL    HW222863   1.742   4.676   9.669 -0.2417  0.5164  0.1182
 7429SOL     OW22864   1.596   5.121   3.614 -0.0082  0.5197  0.1706
 7429SOL    HW122865   1.632   5.050   3.560 -0.6176  0.3855 -0.0622
 7429SOL    HW222866   1.521   5.082   3.659 -0.8797  1.2361 -0.6162
 7430SOL     OW22867   6.392   7.837   5.328  0.4707  0.0432  0.4796
 7430SOL    HW122868   6.449   7.858   5.402  0.1717  0.5144  0.5774
 7430SOL    HW222869   6.432   7.759   5.289  0.1757 -0.6938  1.6085
 7431SOL     OW22870   0.214   1.527   1.175 -0.5788 -0.4422 -1.0541
 7431SOL    HW122871   0.177   1.585   1.241 -0.8240 -1.5329 -0.2189
 7431SOL    HW222872   0.301   1.564   1.156 -1.0958  0.7189 -1.2309
 7432SOL     OW22873   8.776   7.472   6.620 -0.3989 -0.5944  0.1460
 7432SOL    HW122874   8.686   7.442   6.630 -0.6681 -0.0193 -0.4853
 7432SOL    HW222875   8.773   7.535   6.549  0.6678 -1.2586 -0.5282
 7433SOL     OW22876   6.952   4.472   0.546  0.1793  0.0106  0.2182
 7433SOL    HW122877   6.900   4.523   0.608 -1.7946 -0.2884 -1.1289
 7433SOL    HW222878   6.958   4.526   0.468 -0.7270 -1.1821 -0.7150
 7434SOL     OW22879   3.856   4.346   4.644 -0.0418  0.8186  0.4050
 7434SOL    HW122880   3.894   4.369   4.729  1.3870  0.4012 -0.0797
 7434SOL    HW222881   3.834   4.253   4.652 -1.6671  1.2282  0.9155
 7435SOL     OW22882   7.724   1.692   9.631  0.0796  0.4339 -0.2270
 7435SOL    HW122883   7.813   1.675   9.601  0.8530  0.9889  1.5715
 7435SOL    HW222884   7.696   1.611   9.673 -0.0028  0.4701 -0.2106
 7436SOL     OW22885   4.324   2.319   5.053  0.0168 -0.1952  0.4947
 7436SOL    HW122886   4.280   2.234   5.053  0.8568 -0.6426 -0.1812
 7436SOL    HW222887   4.346   2.334   5.145 -3.9708  1.3812  1.4069
 7437SOL     OW22888   2.722   6.899   8.633  0.3379  0.0285 -0.1075
 7437SOL    HW122889   2.633   6.904   8.668 -0.0813  1.0839 -1.2521
 7437SOL    HW222890   2.719   6.825   8.571  1.1783 -2.0822  2.2181
 7438SOL     OW22891   1.490   7.561   6.101  0.3435 -0.0604  0.0237
 7438SOL    HW122892   1.507   7.567   6.195 -0.0860 -0.4500  0.1283
 7438SOL    HW222893   1.540   7.634   6.063  4.4256 -2.5636  0.0121
 7439SOL     OW22894   6.446   1.287   9.614 -0.0478  0.6462  0.0718
 7439SOL    HW122895   6.535   1.258   9.631 -0.1377  0.3320  0.0243
 7439SOL    HW222896   6.447   1.318   9.524  0.3217  1.8905  0.4812
 7440SOL     OW22897   5.378   9.477   1.455 -0.5294 -0.6694  0.0265
 7440SOL    HW122898   5.317   9.430   1.511 -0.4988 -0.6573  0.0696
 7440SOL    HW222899   5.323   9.514   1.385 -0.7077  0.0951  0.5528
 7441SOL     OW22900   7.536   8.499   1.282 -0.0956  0.0994 -0.1874
 7441SOL    HW122901   7.489   8.475   1.202 -0.6626  0.7373 -0.0551
 7441SOL    HW222902   7.467   8.521   1.345  0.2469 -2.2653  1.1372
 7442SOL     OW22903   4.732   1.866   3.240 -0.2656 -0.3510 -1.0074
 7442SOL    HW122904   4.739   1.961   3.230 -2.8756  0.1579  0.7743
 7442SOL    HW222905   4.713   1.834   3.151  0.3154  0.8312 -1.5809
 7443SOL     OW22906   7.591   6.017   9.132 -0.1315  0.3993 -0.1929
 7443SOL    HW122907   7.599   6.089   9.069 -0.7066 -1.1946 -2.1673
 7443SOL    HW222908   7.679   5.979   9.137 -0.4657 -0.6009 -1.4820
 7444SOL     OW22909   6.785   0.233   0.102  0.3430 -0.1821  0.5690
 7444SOL    HW122910   6.751   0.311   0.147  0.7918 -0.3884  1.2984
 7444SOL    HW222911   6.752   0.240   0.013  1.4625  1.5515  0.2335
 7445SOL     OW22912   7.194   2.048   7.484 -0.1702 -0.0641  0.3250
 7445SOL    HW122913   7.245   2.059   7.404 -0.7725 -2.7290 -0.5550
 7445SOL    HW222914   7.234   1.973   7.528  1.3777  2.4850  3.6567
 7446SOL     OW22915   7.745   2.668   8.714 -0.2461  0.1098  0.0857
 7446SOL    HW122916   7.656   2.668   8.751 -0.3995  3.0313  0.0069
 7446SOL    HW222917   7.740   2.609   8.639 -1.6703 -1.0232  1.0072
 7447SOL     OW22918   6.318   3.925   3.678  0.0418  0.4976 -0.0013
 7447SOL    HW122919   6.255   3.880   3.734 -0.1231  1.1018  0.3082
 7447SOL    HW222920   6.280   4.011   3.663  0.6301  0.7469 -0.1033
 7448SOL     OW22921   3.188   5.302   7.028  0.2147  0.2599 -0.2197
 7448SOL    HW122922   3.143   5.292   6.944  0.7760 -0.1123 -0.4795
 7448SOL    HW222923   3.163   5.224   7.078 -1.2729  1.1632  0.5187
 7449SOL     OW22924   4.323   3.786   3.218  0.1169 -0.2168 -0.5715
 7449SOL    HW122925   4.388   3.776   3.288  0.1421 -1.7763 -0.7772
 7449SOL    HW222926   4.240   3.760   3.259  0.0138 -0.4434 -0.9249
 7450SOL     OW22927   1.484   5.094   6.277 -0.4309  0.3566  0.4659
 7450SOL    HW122928   1.414   5.066   6.218 -0.6667  2.1420 -0.1489
 7450SOL    HW222929   1.547   5.137   6.220 -0.3874  1.6049  1.4237
 7451SOL     OW22930   2.826   9.692   8.962 -0.6123  0.3453 -0.8713
 7451SOL    HW122931   2.904   9.640   8.981 -0.3918  0.3436 -1.7341
 7451SOL    HW222932   2.768   9.631   8.915 -2.2285 -0.4371  1.9245
 7452SOL     OW22933   5.080   4.323   4.117 -0.1214 -0.6757  0.5701
 7452SOL    HW122934   5.141   4.339   4.045 -1.8353 -1.3755 -1.1287
 7452SOL    HW222935   5.010   4.387   4.103 -1.9402 -2.7023 -0.2214
 7453SOL     OW22936   7.683   8.430   5.750  0.3579 -0.1576 -0.1638
 7453SOL    HW122937   7.595   8.394   5.758  0.1608  0.7031  3.2385
 7453SOL    HW222938   7.670   8.518   5.715 -0.2829  0.2907  1.1351
 7454SOL     OW22939   7.607   0.115   5.151 -0.2044 -0.4591 -0.0585
 7454SOL    HW122940   7.626   0.207   5.133 -1.3650 -0.2083 -0.1054
 7454SOL    HW222941   7.641   0.101   5.239 -0.4413  0.1587  0.1422
 7455SOL     OW22942   5.743   6.454   6.801 -0.0467  0.2536 -0.6437
 7455SOL    HW122943   5.801   6.513   6.850 -0.4739 -0.6230  1.0005
 7455SOL    HW222944   5.688   6.414   6.869 -1.0174 -0.6515 -1.9260
 7456SOL     OW22945   4.516   4.714   5.347 -0.2892  0.2115  0.6574
 7456SOL    HW122946   4.480   4.706   5.259  3.9863  2.4403 -1.6239
 7456SOL    HW222947   4.567   4.634   5.359  1.1787  1.0023 -0.0794
 7457SOL     OW22948   9.683   7.700   6.039  0.2236 -0.7678  0.3248
 7457SOL    HW122949   9.646   7.721   5.953  0.3524 -0.2913  0.3828
 7457SOL    HW222950   9.632   7.625   6.070  0.3792 -1.1426 -0.3049
 7458SOL     OW22951   4.347   7.563   0.595  0.4642 -0.2865  0.2503
 7458SOL    HW122952   4.346   7.568   0.500  0.8461 -2.1183  0.1161
 7458SOL    HW222953   4.274   7.617   0.623  0.4806  0.4548 -1.0651
 7459SOL     OW22954   9.031   6.360   7.884  0.2256 -0.1231  0.1477
 7459SOL    HW122955   9.014   6.348   7.790 -1.3993 -3.0505  0.7167
 7459SOL    HW222956   8.974   6.433   7.909 -0.5342 -0.3629 -0.8273
 7460SOL     OW22957   5.794   0.366   6.321 -0.0797 -0.2057  0.8074
 7460SOL    HW122958   5.814   0.338   6.410  1.5266  3.0002  1.6076
 7460SOL    HW222959   5.858   0.322   6.266  1.5337  0.7814  1.8249
 7461SOL     OW22960   0.898   7.184   5.929  0.0125 -0.2515  0.5824
 7461SOL    HW122961   0.977   7.237   5.921 -1.0717  1.3480 -0.1191
 7461SOL    HW222962   0.854   7.218   6.008 -0.5194 -0.3570  0.3392
 7462SOL     OW22963   2.043   7.496   4.240  0.4196  0.1855  0.4640
 7462SOL    HW122964   2.034   7.581   4.283 -0.0292 -0.1917  1.1369
 7462SOL    HW222965   2.049   7.433   4.312 -0.3479 -0.4597 -0.0237
 7463SOL     OW22966   4.547   0.661   0.831  0.1719  0.5201  0.6093
 7463SOL    HW122967   4.496   0.659   0.750  1.0026 -1.8880  0.0627
 7463SOL    HW222968   4.638   0.647   0.802  0.5221 -0.0108  1.8996
 7464SOL     OW22969   1.887   7.333   1.206  0.0757  0.9852  0.2370
 7464SOL    HW122970   1.856   7.367   1.122  0.6332 -3.7224 -2.2009
 7464SOL    HW222971   1.821   7.270   1.233  2.5548 -1.9201  0.0954
 7465SOL     OW22972   1.245   9.664   4.947  0.1572  0.0484 -0.3778
 7465SOL    HW122973   1.205   9.631   5.027 -0.4070  1.0666 -0.2234
 7465SOL    HW222974   1.323   9.609   4.934 -0.5507 -1.0818  0.0455
 7466SOL     OW22975   3.084   9.360   6.110 -0.2477  0.0967 -0.3871
 7466SOL    HW122976   3.156   9.421   6.095  0.0035 -0.1418 -0.1717
 7466SOL    HW222977   3.005   9.414   6.109 -0.0377  0.4032 -0.3250
 7467SOL     OW22978   3.912   7.809   0.807 -0.2677 -0.5082 -0.0954
 7467SOL    HW122979   3.836   7.752   0.800  0.2197 -1.5958  2.1992
 7467SOL    HW222980   3.942   7.796   0.897  1.5289  1.2970 -0.3766
 7468SOL     OW22981   1.969   6.247   1.837 -0.2020  0.2551 -0.2352
 7468SOL    HW122982   2.029   6.321   1.838 -1.0628  0.9638 -0.5733
 7468SOL    HW222983   1.946   6.233   1.929 -0.2849  0.6095 -0.2033
 7469SOL     OW22984   6.309   0.753   1.427 -0.0686  0.5287  0.1053
 7469SOL    HW122985   6.344   0.776   1.341 -2.3291  0.4671 -0.9063
 7469SOL    HW222986   6.363   0.802   1.489  1.8814  0.2701 -1.2789
 7470SOL     OW22987   8.050   3.465   0.793  0.5935  0.0724 -0.0007
 7470SOL    HW122988   7.976   3.429   0.842  0.2471  1.8755  0.8745
 7470SOL    HW222989   8.070   3.398   0.727  1.7025 -2.9788  3.1159
 7471SOL     OW22990   5.575   5.788   4.492 -0.7680  0.0027  0.6552
 7471SOL    HW122991   5.593   5.695   4.503 -0.3778  0.2467  2.2912
 7471SOL    HW222992   5.616   5.830   4.567 -0.1829  1.6121 -0.5037
 7472SOL     OW22993   0.158   5.524   0.667 -0.2913  0.3586  0.1542
 7472SOL    HW122994   0.099   5.520   0.591 -1.2076 -1.3322  0.8947
 7472SOL    HW222995   0.106   5.562   0.737 -0.2937 -0.4700  0.6188
 7473SOL     OW22996   6.720   9.122   3.708  0.5698  0.5623  0.4302
 7473SOL    HW122997   6.673   9.175   3.771  0.9411  2.8167 -1.0944
 7473SOL    HW222998   6.797   9.174   3.684  1.6780 -1.2329 -0.1934
 7474SOL     OW22999   1.682   0.729   1.140 -0.0441 -0.3803 -0.4456
 7474SOL    HW123000   1.733   0.673   1.198  1.5951  0.8459 -0.6193
 7474SOL    HW223001   1.591   0.712   1.163  0.5272 -0.6133  1.8214
 7475SOL     OW23002   5.136   6.089   1.926  0.3189  0.3746  0.3349
 7475SOL    HW123003   5.085   6.160   1.887  0.0554  0.5569  0.9933
 7475SOL    HW223004   5.071   6.032   1.967  0.5250 -0.2820 -0.2231
 7476SOL     OW23005   2.169   0.054   6.854  0.1782  0.0793 -0.2565
 7476SOL    HW123006   2.112  -0.023   6.855  0.7892 -0.3752  0.0737
 7476SOL    HW223007   2.242   0.030   6.798  1.7501 -0.6245  1.9822
 7477SOL     OW23008   4.409   0.890   4.853  0.1231 -0.4266 -0.2859
 7477SOL    HW123009   4.431   0.969   4.803  0.1448  0.2392  0.7341
 7477SOL    HW223010   4.335   0.851   4.807 -0.7325  0.9062 -0.1008
 7478SOL     OW23011   3.029   0.286   4.342  0.3389  0.1268  0.0582
 7478SOL    HW123012   3.039   0.374   4.305 -0.7875 -0.1390 -0.9075
 7478SOL    HW223013   3.021   0.228   4.267  1.5512 -0.8949  0.6737
 7479SOL     OW23014   4.097   9.414   0.390  0.1267  0.2130 -0.3637
 7479SOL    HW123015   4.071   9.502   0.363  4.2282  1.7134 -0.2027
 7479SOL    HW223016   4.073   9.359   0.316 -0.8986  1.7966 -1.2811
 7480SOL     OW23017   9.377   6.896   9.497  0.0898 -0.1706 -0.2921
 7480SOL    HW123018   9.347   6.822   9.445  0.1849 -0.0599 -0.5037
 7480SOL    HW223019   9.337   6.973   9.456 -0.0319 -0.1061 -0.0557
 7481SOL     OW23020   7.524   6.794   7.256 -0.2908  0.7405 -0.4952
 7481SOL    HW123021   7.492   6.742   7.330 -0.6460  1.6183 -0.0203
 7481SOL    HW223022   7.476   6.877   7.263  2.8123  2.5863  0.8986
 7482SOL     OW23023   0.066   8.501   9.638  0.1270  0.1107  0.4544
 7482SOL    HW123024   0.045   8.497   9.545  1.1784  0.8717  0.1771
 7482SOL    HW223025   0.023   8.423   9.675 -0.1514 -0.2964 -0.6845
 7483SOL     OW23026   2.753   2.730   9.455 -0.1971 -0.2018 -0.0063
 7483SOL    HW123027   2.812   2.749   9.382 -2.1996  0.9902 -1.3958
 7483SOL    HW223028   2.809   2.735   9.532  1.9433 -1.2689 -1.3822
 7484SOL     OW23029   0.301   3.016   2.294 -0.0480  0.1069  0.6337
 7484SOL    HW123030   0.302   3.096   2.241 -0.1355 -0.2383  0.1100
 7484SOL    HW223031   0.391   2.982   2.288 -0.1533 -0.1340  0.3931
 7485SOL     OW23032   0.532   1.918   2.064  0.1068  0.1599 -0.1911
 7485SOL    HW123033   0.503   1.988   2.005  0.4697  0.2130 -0.3078
 7485SOL    HW223034   0.454   1.896   2.115 -0.5669 -0.7585 -1.5473
 7486SOL     OW23035   1.006   7.949   0.489 -0.4179 -0.1501 -0.1388
 7486SOL    HW123036   1.042   7.913   0.570 -0.0581 -1.1298 -0.7054
 7486SOL    HW223037   0.971   7.873   0.443 -0.4380  0.3566 -0.9856
 7487SOL     OW23038   1.708   2.186   7.968 -0.3219  0.5750 -0.0719
 7487SOL    HW123039   1.648   2.201   7.895 -1.1756  1.4599  0.7741
 7487SOL    HW223040   1.697   2.093   7.988 -1.8322  0.8162  0.3834
 7488SOL     OW23041   7.923   7.855   2.630 -0.4049  0.0263  0.6188
 7488SOL    HW123042   7.833   7.865   2.596 -0.8371  0.4298  1.8441
 7488SOL    HW223043   7.926   7.766   2.665 -0.2530 -0.0610  0.3876
 7489SOL     OW23044   1.633   8.039   5.178  0.3939 -0.1073 -0.0363
 7489SOL    HW123045   1.615   8.107   5.244  0.0679  0.7620 -0.9894
 7489SOL    HW223046   1.682   8.085   5.110 -1.6518 -0.2715 -1.7168
 7490SOL     OW23047   3.495   9.691   3.346 -0.4279  0.7804 -0.0122
 7490SOL    HW123048   3.533   9.710   3.432  0.0255 -0.4800  0.0791
 7490SOL    HW223049   3.416   9.640   3.366  1.6321 -2.8774 -0.3730
 7491SOL     OW23050   8.504   2.263   7.385  0.5457  0.5812  0.2180
 7491SOL    HW123051   8.515   2.168   7.377  1.4836  0.6118  1.0109
 7491SOL    HW223052   8.515   2.281   7.478  2.6491  1.7103 -0.1793
 7492SOL     OW23053   7.900   1.938   2.162  0.0557  0.0949  0.4575
 7492SOL    HW123054   7.984   1.932   2.207  0.0705  1.6078  0.6732
 7492SOL    HW223055   7.848   2.000   2.214 -0.4212  0.8026 -0.8076
 7493SOL     OW23056   9.375   9.036   4.781  0.4059 -0.3746 -0.0498
 7493SOL    HW123057   9.420   8.994   4.708 -1.4959  0.3958 -1.7610
 7493SOL    HW223058   9.436   9.101   4.814  0.9328 -0.0557 -1.6150
 7494SOL     OW23059   9.507   7.755   0.478 -0.1331  0.2141  0.1151
 7494SOL    HW123060   9.445   7.772   0.406  0.9749 -1.0189 -1.2079
 7494SOL    HW223061   9.479   7.813   0.548 -1.2780  1.4845 -1.3127
 7495SOL     OW23062   3.367   6.758   6.383 -0.2515  0.4028  0.8497
 7495SOL    HW123063   3.295   6.817   6.406 -0.4994  1.1676 -1.6016
 7495SOL    HW223064   3.350   6.734   6.292  2.1107 -0.1285  0.4846
 7496SOL     OW23065   9.159   4.706   3.510  0.4871  0.0755  0.9386
 7496SOL    HW123066   9.182   4.633   3.567  0.5550  0.8792  1.9536
 7496SOL    HW223067   9.069   4.688   3.483  0.5497 -0.4474  1.0696
 7497SOL     OW23068   1.873   1.031   8.656  0.6635 -0.2639  1.0613
 7497SOL    HW123069   1.905   1.020   8.745 -0.7550 -1.6981  1.4276
 7497SOL    HW223070   1.875   0.944   8.618  0.3851  0.1810 -0.0184
 7498SOL     OW23071   9.966   4.579   6.288  0.4898 -0.1508  0.2538
 7498SOL    HW123072   9.917   4.498   6.297 -0.1667  0.1653 -0.3316
 7498SOL    HW223073   9.944   4.611   6.200  2.7171 -0.6211 -0.5387
 7499SOL     OW23074   9.001   4.548   7.898  0.3873  0.5409  0.1805
 7499SOL    HW123075   9.081   4.527   7.850 -0.5611 -0.2939 -1.0893
 7499SOL    HW223076   9.031   4.567   7.987  2.0093  0.4546 -0.3140
 7500SOL     OW23077   7.230   6.863   4.281 -0.7795  0.2121 -0.2761
 7500SOL    HW123078   7.324   6.851   4.267 -0.7454 -0.3829  0.4278
 7500SOL    HW223079   7.199   6.902   4.200  0.3358  1.8474  0.0302
 7501SOL     OW23080   5.483   8.489   6.311 -0.5192  0.6031  0.0860
 7501SOL    HW123081   5.398   8.480   6.355 -0.5355 -2.4204 -0.3720
 7501SOL    HW223082   5.460   8.517   6.222 -1.0660 -0.2293 -0.0466
 7502SOL     OW23083   3.613   5.205   4.148  0.3743  0.3912 -0.3438
 7502SOL    HW123084   3.574   5.285   4.182  2.2111  0.9060  0.6986
 7502SOL    HW223085   3.564   5.134   4.190  1.2821  1.0150  1.9055
 7503SOL     OW23086   7.831   8.793   8.170 -0.4331 -0.2529 -0.1501
 7503SOL    HW123087   7.887   8.823   8.098 -1.7101 -0.0577 -1.0847
 7503SOL    HW223088   7.750   8.842   8.160 -1.3060 -1.5433  0.3494
 7504SOL     OW23089   5.821   4.323   4.494  0.2601  0.0015  0.3788
 7504SOL    HW123090   5.807   4.229   4.487  1.5501 -0.2375  0.7223
 7504SOL    HW223091   5.765   4.361   4.427 -1.1563 -0.9133  0.9874
 7505SOL     OW23092   9.931   1.861   6.804 -0.7399 -0.2114 -0.3145
 7505SOL    HW123093   9.976   1.892   6.725 -0.5271 -2.1140 -0.9853
 7505SOL    HW223094   9.939   1.933   6.866  0.6014  0.6604 -1.4412
 7506SOL     OW23095   3.510   9.489   0.755 -0.0460 -0.2523 -0.2054
 7506SOL    HW123096   3.467   9.455   0.833 -0.9643  0.6876 -0.2900
 7506SOL    HW223097   3.557   9.567   0.785  1.8740 -1.4037 -0.0572
 7507SOL     OW23098   0.550   4.710   3.977  0.1125 -0.1331 -0.5538
 7507SOL    HW123099   0.562   4.652   3.902 -0.0661 -0.7666 -0.1024
 7507SOL    HW223100   0.574   4.657   4.052 -1.6294 -0.1742  0.0224
 7508SOL     OW23101   2.935   7.520   5.347 -0.2518  0.0793  0.0412
 7508SOL    HW123102   2.910   7.453   5.284  0.6152 -1.4401  1.2399
 7508SOL    HW223103   2.894   7.492   5.429 -0.3151  1.3139  0.4454
 7509SOL     OW23104   6.492   5.951   6.550  0.3017 -0.4504  0.1095
 7509SOL    HW123105   6.406   5.967   6.510 -0.9545  1.8027  3.3192
 7509SOL    HW223106   6.528   6.038   6.565  2.2168 -1.3034  0.7798
 7510SOL     OW23107   5.443   4.727   4.447  0.0648 -0.0708  0.0531
 7510SOL    HW123108   5.472   4.737   4.356  0.8914 -0.3422  0.2829
 7510SOL    HW223109   5.513   4.677   4.489 -0.8135 -0.8982  0.5756
 7511SOL     OW23110   6.191   3.163   9.273  0.3311 -0.3523  0.7008
 7511SOL    HW123111   6.271   3.213   9.263 -1.1876  2.1802  0.2567
 7511SOL    HW223112   6.125   3.228   9.297 -1.7886 -2.1583  0.1441
 7512SOL     OW23113   1.290   6.021   8.775  0.2674 -0.4961 -0.4085
 7512SOL    HW123114   1.276   6.054   8.864  0.8728  1.1134 -0.8774
 7512SOL    HW223115   1.204   5.989   8.748  0.5713 -3.3914  1.6171
 7513SOL     OW23116   3.845   1.829   3.565  0.1729  0.4112 -0.4383
 7513SOL    HW123117   3.828   1.893   3.497  0.7988  0.0049 -0.9815
 7513SOL    HW223118   3.862   1.881   3.644  0.1950  0.8945 -0.7616
 7514SOL     OW23119   2.470   9.432   4.258  0.4246 -0.4034  0.3202
 7514SOL    HW123120   2.550   9.483   4.272 -0.1386  0.6404 -0.1786
 7514SOL    HW223121   2.498   9.341   4.268  1.8551 -0.1111 -0.6853
 7515SOL     OW23122   1.717   1.011   6.407 -0.2052  0.7064  0.6513
 7515SOL    HW123123   1.725   1.092   6.356 -1.9812 -0.3251 -1.4359
 7515SOL    HW223124   1.751   0.943   6.349  0.6062 -0.1515  2.0946
 7516SOL     OW23125   7.384   9.647   5.248  0.7193  0.4369 -0.2452
 7516SOL    HW123126   7.375   9.682   5.337  0.4312 -0.2953  0.0264
 7516SOL    HW223127   7.295   9.649   5.213 -0.1587 -3.4727  1.1476
 7517SOL     OW23128   5.716   8.876   2.873 -0.5292 -0.0944 -0.1274
 7517SOL    HW123129   5.639   8.905   2.824  0.5287  0.3813 -1.5716
 7517SOL    HW223130   5.787   8.934   2.844  0.4960 -0.8519  0.7696
 7518SOL     OW23131   3.441   3.284   8.812  0.1635  0.3530  0.0031
 7518SOL    HW123132   3.375   3.218   8.836  0.4156  0.0178 -0.2049
 7518SOL    HW223133   3.423   3.304   8.721 -1.2537  2.1722  0.6279
 7519SOL     OW23134   6.348   4.750   2.902  0.0689  0.0201 -0.1455
 7519SOL    HW123135   6.432   4.796   2.898 -0.2627  0.5439 -2.1094
 7519SOL    HW223136   6.322   4.739   2.811 -1.9711 -0.2149  0.4068
 7520SOL     OW23137   7.924   5.472   9.740 -0.6085 -0.4911 -0.4821
 7520SOL    HW123138   7.837   5.487   9.776  0.0275  0.9254  0.5922
 7520SOL    HW223139   7.941   5.379   9.757 -1.3544 -0.4565  0.6001
 7521SOL     OW23140   5.880   9.323   4.396 -0.3308  0.2205 -0.6265
 7521SOL    HW123141   5.862   9.399   4.452  0.6504  0.3677 -0.5021
 7521SOL    HW223142   5.793   9.288   4.376 -0.7194  0.1220  1.0461
 7522SOL     OW23143   4.426   5.425   0.617 -0.1656 -0.1175  0.4359
 7522SOL    HW123144   4.360   5.479   0.573 -0.8253 -1.6442 -0.5587
 7522SOL    HW223145   4.497   5.419   0.553 -0.0387 -0.2979  0.5946
 7523SOL     OW23146   4.554   6.842   1.089  0.1926 -0.2551  0.2462
 7523SOL    HW123147   4.461   6.821   1.083 -0.0248  0.8888 -0.7955
 7523SOL    HW223148   4.597   6.775   1.035 -0.1714  0.0359 -0.4184
 7524SOL     OW23149   0.094   3.132   7.440 -0.1452  0.7402  0.2150
 7524SOL    HW123150   0.175   3.119   7.390  0.5166  0.7195  1.2672
 7524SOL    HW223151   0.071   3.224   7.424 -0.0331  0.6925 -0.2449
 7525SOL     OW23152   4.263   9.055   0.596 -0.9159 -0.2338 -0.2796
 7525SOL    HW123153   4.325   8.984   0.615 -1.9711 -1.3117 -0.7949
 7525SOL    HW223154   4.302   9.100   0.521 -0.1906 -0.1814  0.1120
 7526SOL     OW23155   0.776   8.011   9.758  0.0128  0.0974 -0.2347
 7526SOL    HW123156   0.828   8.021   9.838  0.1178 -1.1798 -0.1180
 7526SOL    HW223157   0.686   8.026   9.786 -0.0165 -0.9341  0.2707
 7527SOL     OW23158   7.025   5.027   1.161 -0.3219  0.1323  0.0142
 7527SOL    HW123159   6.962   4.961   1.190  0.0792 -0.4032 -0.3197
 7527SOL    HW223160   7.098   5.019   1.221 -0.1641  0.1052 -0.1821
 7528SOL     OW23161   6.597   0.938   7.666 -0.3463 -0.2390 -0.2733
 7528SOL    HW123162   6.502   0.930   7.658 -0.2661 -1.3256 -0.3300
 7528SOL    HW223163   6.618   1.019   7.620 -1.2209 -0.1220 -0.4860
 7529SOL     OW23164   5.592   9.729   7.174  0.2218  0.6464 -0.2838
 7529SOL    HW123165   5.672   9.705   7.128  0.0968 -0.7322  0.1780
 7529SOL    HW223166   5.524   9.676   7.132 -0.0884  0.2286  0.7173
 7530SOL     OW23167   2.785   6.479   4.349  0.3893  0.5261 -0.2776
 7530SOL    HW123168   2.708   6.436   4.386  0.8657  0.2334  0.3993
 7530SOL    HW223169   2.804   6.431   4.269  1.0586 -0.6919  0.5880
 7531SOL     OW23170   7.483   0.392   6.033  0.1655 -0.0845 -0.9736
 7531SOL    HW123171   7.501   0.298   6.041  1.0842  0.1605 -0.0356
 7531SOL    HW223172   7.514   0.430   6.115 -2.0735  0.7774 -0.4462
 7532SOL     OW23173   0.984   4.371   6.655 -0.5675  0.3336 -0.3214
 7532SOL    HW123174   0.907   4.417   6.688  0.8539  1.3891  1.7643
 7532SOL    HW223175   1.056   4.433   6.667  1.2144 -1.8610  1.2919
 7533SOL     OW23176   9.777   9.561   4.555  0.2930  0.3559 -0.2685
 7533SOL    HW123177   9.785   9.568   4.650  2.8170  0.4976 -0.4213
 7533SOL    HW223178   9.765   9.651   4.525  0.9472  0.4903 -0.1495
 7534SOL     OW23179   3.039   5.921   5.292 -0.3556  0.4238 -1.2202
 7534SOL    HW123180   2.951   5.955   5.311 -0.3603 -0.5441  0.6059
 7534SOL    HW223181   3.064   5.967   5.212 -1.5057  2.6015 -0.4259
 7535SOL     OW23182   5.325   3.179   9.521  0.0839 -0.3055  0.0561
 7535SOL    HW123183   5.323   3.088   9.550 -0.7564 -0.0618  0.7985
 7535SOL    HW223184   5.271   3.226   9.585  0.1580  0.6458 -0.5605
 7536SOL     OW23185   9.177   2.331   7.867  0.4176 -0.4269  0.0518
 7536SOL    HW123186   9.096   2.382   7.855 -0.9409 -2.4515  0.0296
 7536SOL    HW223187   9.236   2.362   7.799 -1.1662 -0.3837 -1.3539
 7537SOL     OW23188   2.739   6.923   3.149  0.0829  0.2360  0.2151
 7537SOL    HW123189   2.717   6.936   3.057 -0.9793  0.6203  0.5098
 7537SOL    HW223190   2.760   6.829   3.155 -0.4899  0.0664 -0.2895
 7538SOL     OW23191   4.385   7.274   6.839  0.7444  0.1572 -0.1562
 7538SOL    HW123192   4.449   7.214   6.801 -0.5201  0.3359 -2.7911
 7538SOL    HW223193   4.304   7.222   6.846 -0.1235  1.2265 -1.6252
 7539SOL     OW23194   6.836   2.050   8.844  0.0008  0.0147  0.3115
 7539SOL    HW123195   6.880   2.079   8.924  0.5931 -0.4864  0.1739
 7539SOL    HW223196   6.887   2.090   8.774  0.1587 -0.4625  0.1542
 7540SOL     OW23197   7.541   1.528   6.199 -0.1408 -0.0318  0.1382
 7540SOL    HW123198   7.463   1.527   6.255 -0.0195 -2.2722  0.3875
 7540SOL    HW223199   7.509   1.506   6.112  0.0038  0.9073 -0.1665
 7541SOL     OW23200   5.543   3.868   6.316  0.3101  0.0681 -0.5989
 7541SOL    HW123201   5.468   3.924   6.295 -0.4990 -0.6172  0.3660
 7541SOL    HW223202   5.577   3.905   6.397  0.1476 -0.4656 -0.2867
 7542SOL     OW23203   1.167   6.545   0.414 -0.0357 -0.0875  0.3711
 7542SOL    HW123204   1.227   6.489   0.464  1.2052 -1.0215 -2.0076
 7542SOL    HW223205   1.161   6.503   0.329 -3.4065  0.5160  0.1844
 7543SOL     OW23206   7.337   2.245   6.699 -0.7461  0.1673 -0.0220
 7543SOL    HW123207   7.274   2.273   6.766 -1.3313 -0.3522 -0.3460
 7543SOL    HW223208   7.360   2.155   6.724 -0.8121  0.0445 -0.4059
 7544SOL     OW23209   4.004   9.758   7.370  0.4074  0.2885  0.7085
 7544SOL    HW123210   4.043   9.694   7.429  0.2389 -0.4280  0.0451
 7544SOL    HW223211   3.978   9.830   7.428  1.2280  0.0743  1.3630
 7545SOL     OW23212   5.361   2.951   7.249  0.2085 -0.1027  0.1066
 7545SOL    HW123213   5.349   2.956   7.154  1.6230  1.0653 -0.0329
 7545SOL    HW223214   5.431   3.013   7.269  0.9679 -1.3848  1.7332
 7546SOL     OW23215   2.386   4.622   8.855 -0.1269 -0.2665 -0.5731
 7546SOL    HW123216   2.309   4.669   8.886  0.4291  1.5771 -1.8447
 7546SOL    HW223217   2.373   4.614   8.761 -0.4541 -3.2508 -0.3881
 7547SOL     OW23218   5.719   3.221   9.017  0.2580 -0.4842  0.0940
 7547SOL    HW123219   5.803   3.184   9.044  0.5848  0.1400 -0.0460
 7547SOL    HW223220   5.736   3.259   8.931 -0.4743 -1.4121 -0.4732
 7548SOL     OW23221   9.543   2.481   8.985 -0.0483 -0.1037 -0.4876
 7548SOL    HW123222   9.559   2.472   8.891 -1.1191 -0.8752 -0.6195
 7548SOL    HW223223   9.470   2.422   9.002  0.3265 -0.1987  0.8929
 7549SOL     OW23224   5.969   0.670   9.074  0.0769 -0.1072  0.2689
 7549SOL    HW123225   5.946   0.756   9.039  1.2538 -0.0546 -0.4131
 7549SOL    HW223226   5.894   0.615   9.053 -0.8056  0.8024  0.9429
 7550SOL     OW23227   7.877   8.439   1.875 -0.3583  0.0635  0.2054
 7550SOL    HW123228   7.853   8.354   1.910 -0.5269  0.1016  0.1828
 7550SOL    HW223229   7.972   8.445   1.889 -0.3040 -0.2317 -0.0184
 7551SOL     OW23230   5.907   2.617   5.553 -0.4079  0.4513  0.7581
 7551SOL    HW123231   5.935   2.566   5.477  0.7339  1.6522  0.3428
 7551SOL    HW223232   5.814   2.597   5.562 -1.2435  2.1135 -2.5031
 7552SOL     OW23233   4.557   8.639   8.625  0.5562  0.4461 -0.1174
 7552SOL    HW123234   4.644   8.654   8.588  0.0006  0.4653 -1.5003
 7552SOL    HW223235   4.568   8.564   8.684  1.8864  1.7149  1.3005
 7553SOL     OW23236   2.532   8.992   4.929  0.3733 -0.2592  0.1943
 7553SOL    HW123237   2.519   8.910   4.977  0.0933 -0.6892 -0.6004
 7553SOL    HW223238   2.559   8.964   4.841 -0.4157  0.4785 -0.2922
 7554SOL     OW23239   5.752   4.326   8.449  0.4316  0.1678 -0.0534
 7554SOL    HW123240   5.661   4.317   8.422  0.7491 -0.5621 -0.9783
 7554SOL    HW223241   5.778   4.237   8.474  0.6892  0.5009  0.8767
 7555SOL     OW23242   6.753   8.224   0.057 -0.0220  0.1873 -0.3834
 7555SOL    HW123243   6.709   8.145   0.024 -0.2001  0.0773  0.1036
 7555SOL    HW223244   6.700   8.250   0.132 -1.1289  1.9199 -1.6875
 7556SOL     OW23245   3.214   5.905   8.729  0.4400 -0.0107  0.4407
 7556SOL    HW123246   3.211   5.833   8.791 -1.3120 -0.6388 -0.3197
 7556SOL    HW223247   3.204   5.864   8.643 -0.5757  1.1171 -0.0120
 7557SOL     OW23248   3.462   0.050   3.632  0.0817  0.7909  0.1426
 7557SOL    HW123249   3.411   0.012   3.561 -0.4123  1.6906  0.0042
 7557SOL    HW223250   3.404   0.115   3.671 -0.5253 -1.1937  2.8454
 7558SOL     OW23251   7.306   3.990   6.489 -0.2131 -0.1174 -0.0373
 7558SOL    HW123252   7.382   3.996   6.431  0.1280  0.0676  0.4220
 7558SOL    HW223253   7.266   4.077   6.485  0.1981  0.1059  0.5155
 7559SOL     OW23254   9.913   1.877   1.328 -0.2066  0.6762  0.1885
 7559SOL    HW123255   9.914   1.910   1.418  0.1862 -1.9567  1.2525
 7559SOL    HW223256  10.005   1.861   1.307 -0.4368 -0.8802  0.2419
 7560SOL     OW23257   8.661   6.818   4.836 -0.1121  0.1474  0.0670
 7560SOL    HW123258   8.648   6.804   4.742 -2.3738 -0.9281  0.4590
 7560SOL    HW223259   8.638   6.910   4.850  1.3021  0.6182 -0.5562
 7561SOL     OW23260   5.408   9.954   1.658  0.6927 -0.2921  0.1088
 7561SOL    HW123261   5.327   9.950   1.709 -0.4344 -0.2673 -1.5961
 7561SOL    HW223262   5.425   9.864   1.632  1.1815 -0.2867  0.4021
 7562SOL     OW23263   1.008   1.506   8.304 -0.2156  0.1000 -0.0590
 7562SOL    HW123264   0.993   1.579   8.244  1.7348  0.8208  0.2712
 7562SOL    HW223265   1.000   1.545   8.391 -0.3238 -0.3510  0.1347
 7563SOL     OW23266   6.446   7.399   4.079 -0.1089 -0.0795  0.4846
 7563SOL    HW123267   6.375   7.406   4.016  0.2813 -0.8493 -0.0494
 7563SOL    HW223268   6.412   7.442   4.158 -0.5809  0.9273 -0.2501
 7564SOL     OW23269   2.469   7.999   4.684 -0.3187 -0.4054 -0.2694
 7564SOL    HW123270   2.497   7.963   4.600  0.0348 -1.6203  0.3382
 7564SOL    HW223271   2.551   8.011   4.733 -0.5281  0.1899 -0.0605
 7565SOL     OW23272   4.969   0.735   9.941  0.8462  0.2902 -0.0788
 7565SOL    HW123273   5.043   0.677   9.956  0.2511 -1.5114 -3.1686
 7565SOL    HW223274   4.897   0.676   9.918 -0.8930  2.1021  0.4678
 7566SOL     OW23275   0.802   3.455   2.820 -0.2471 -0.4078 -0.0963
 7566SOL    HW123276   0.834   3.387   2.761 -0.7302 -1.3702  0.7188
 7566SOL    HW223277   0.707   3.450   2.813 -0.3167  1.4873 -1.4450
 7567SOL     OW23278   9.767   2.933   9.343 -0.0386 -0.0366 -0.2790
 7567SOL    HW123279   9.773   2.979   9.427 -2.1014 -2.2402  1.1909
 7567SOL    HW223280   9.854   2.944   9.305  1.1886  0.5627  2.4157
 7568SOL     OW23281   3.880   3.798   6.924  0.1736  0.4943 -0.8416
 7568SOL    HW123282   3.868   3.847   6.842 -0.5198  0.8035 -0.5658
 7568SOL    HW223283   3.794   3.802   6.966  0.5654  0.4501 -0.0348
 7569SOL     OW23284   6.405   7.485   9.920 -0.2881  0.0096  0.0784
 7569SOL    HW123285   6.469   7.414   9.921  0.5880  0.6167 -2.5085
 7569SOL    HW223286   6.458   7.565   9.915 -1.2291  0.6242 -0.4727
 7570SOL     OW23287   9.333   7.355   6.807  0.7000 -0.2568 -0.3535
 7570SOL    HW123288   9.281   7.433   6.830  1.8332 -0.1446  2.2183
 7570SOL    HW223289   9.325   7.298   6.884  2.1525 -1.4330 -1.0363
 7571SOL     OW23290   7.012   4.116   6.700 -0.2940  0.3705  0.2104
 7571SOL    HW123291   6.943   4.183   6.704 -0.6739 -0.0477  1.2091
 7571SOL    HW223292   7.089   4.162   6.669 -0.7962  1.0574 -0.0461
 7572SOL     OW23293   1.405   2.865   8.109 -0.9189 -0.1734  0.1859
 7572SOL    HW123294   1.449   2.864   8.194  2.6850  1.5243 -1.4308
 7572SOL    HW223295   1.334   2.927   8.118 -0.1307  0.5289  1.7776
 7573SOL     OW23296   2.852   5.424   4.124 -0.2370 -0.2898  0.3177
 7573SOL    HW123297   2.802   5.413   4.043  0.0609 -2.2115  0.3706
 7573SOL    HW223298   2.794   5.391   4.193  0.0511  0.0457  0.7302
 7574SOL     OW23299   1.952   1.954   6.660 -0.6447  0.0491 -0.2154
 7574SOL    HW123300   1.997   1.885   6.708 -1.2591  0.1382  0.5038
 7574SOL    HW223301   1.873   1.971   6.711 -0.9214  0.6902 -0.8440
 7575SOL     OW23302   1.917   3.226   6.418  0.3420 -0.4268 -0.3860
 7575SOL    HW123303   1.990   3.200   6.474  1.1686 -0.2661 -1.3459
 7575SOL    HW223304   1.839   3.210   6.470  1.1381  1.3370  1.4766
 7576SOL     OW23305   7.265   9.511   2.903 -0.2780 -0.2795 -0.4825
 7576SOL    HW123306   7.240   9.517   2.995 -2.6211 -0.4995 -1.0376
 7576SOL    HW223307   7.313   9.592   2.885  0.0201 -0.1402  0.8453
 7577SOL     OW23308   5.129   1.778   8.228  0.2011 -0.2415 -0.0614
 7577SOL    HW123309   5.097   1.715   8.163  0.6734  0.6306 -1.1584
 7577SOL    HW223310   5.162   1.851   8.177  1.1759  0.1981  1.1514
 7578SOL     OW23311   0.855   8.875   8.583  0.8477  0.0535  0.1663
 7578SOL    HW123312   0.790   8.942   8.558  0.3008 -1.0253 -1.4510
 7578SOL    HW223313   0.852   8.874   8.678 -0.1852  1.3260  0.1833
 7579SOL     OW23314   9.837   4.165   4.942 -0.2606  0.0483 -0.3067
 7579SOL    HW123315   9.910   4.189   4.885 -1.1582 -1.3116 -2.1109
 7579SOL    HW223316   9.829   4.070   4.933 -1.8067  0.0804  0.3989
 7580SOL     OW23317   2.057   1.818   5.703 -0.0635 -0.2656  0.5386
 7580SOL    HW123318   1.963   1.815   5.684 -0.2636  0.1409  1.4643
 7580SOL    HW223319   2.066   1.774   5.787  0.5219  0.0881  0.6635
 7581SOL     OW23320   9.864   6.994   4.031 -0.1130  0.1131 -0.7128
 7581SOL    HW123321   9.805   6.992   4.107 -0.0267 -1.2514 -0.6553
 7581SOL    HW223322   9.806   7.003   3.956 -0.5788 -2.3828 -0.7541
 7582SOL     OW23323   7.867   6.505   5.404  0.1486  0.0444  0.5336
 7582SOL    HW123324   7.890   6.588   5.445 -0.0380  0.0705  0.5889
 7582SOL    HW223325   7.873   6.441   5.475  1.0761 -0.1265  0.3095
 7583SOL     OW23326   5.965   4.657   3.736 -0.5453 -0.5052 -0.0758
 7583SOL    HW123327   5.949   4.649   3.830  0.1255 -0.6047  0.0372
 7583SOL    HW223328   6.036   4.595   3.718 -0.7211 -0.5427 -0.6634
 7584SOL     OW23329   1.672   3.501   9.323 -0.1410  0.2686 -0.5254
 7584SOL    HW123330   1.762   3.517   9.293 -0.7180  2.2305 -1.3663
 7584SOL    HW223331   1.670   3.536   9.412 -0.4381  1.7032 -1.0643
 7585SOL     OW23332   0.906   2.136   2.410 -0.2761  0.1033  0.4143
 7585SOL    HW123333   0.999   2.116   2.420 -0.2740  0.5844  1.4769
 7585SOL    HW223334   0.866   2.100   2.490 -0.6446  1.9622  1.1120
 7586SOL     OW23335   1.149   5.907   4.068 -0.9711 -0.5789 -0.1710
 7586SOL    HW123336   1.234   5.911   4.112 -1.3222 -0.5310  0.5054
 7586SOL    HW223337   1.166   5.856   3.988 -0.4101 -0.9569  0.1830
 7587SOL     OW23338   4.228   5.393   9.409 -0.0357 -0.6141 -0.1594
 7587SOL    HW123339   4.320   5.370   9.393  0.6208  1.6330 -0.0260
 7587SOL    HW223340   4.224   5.407   9.504 -0.2944  0.0434 -0.2587
 7588SOL     OW23341   8.550   9.414   1.830  0.1747 -0.4552  0.4394
 7588SOL    HW123342   8.636   9.441   1.796 -1.2196  1.3794 -1.9292
 7588SOL    HW223343   8.543   9.458   1.915  1.7633 -1.1040  0.9453
 7589SOL     OW23344   6.138   3.953   6.033 -0.3536 -0.2035 -0.1226
 7589SOL    HW123345   6.152   4.002   6.114 -0.9859 -1.5900  0.8782
 7589SOL    HW223346   6.047   3.924   6.038 -0.1816 -0.9288 -0.9632
 7590SOL     OW23347   6.614   4.261   1.130  0.4613 -0.1145 -0.2743
 7590SOL    HW123348   6.598   4.293   1.219 -1.4307  1.2681 -1.0735
 7590SOL    HW223349   6.568   4.177   1.126  1.5422 -0.7777  0.3590
 7591SOL     OW23350   0.533   1.548   8.718  0.5479 -0.3663  0.2126
 7591SOL    HW123351   0.552   1.557   8.624  0.6190  0.3046  0.2934
 7591SOL    HW223352   0.518   1.454   8.729 -0.4393 -0.3253 -0.6505
 7592SOL     OW23353   1.753   7.381   1.782  0.5432 -0.2413 -0.1843
 7592SOL    HW123354   1.768   7.470   1.815 -1.3279 -0.8990  2.9201
 7592SOL    HW223355   1.687   7.392   1.714  1.3720  0.8500 -0.8450
 7593SOL     OW23356   5.260   5.131   8.987 -0.3552  0.1843  0.6781
 7593SOL    HW123357   5.339   5.168   8.950 -0.7473 -0.7154 -1.2101
 7593SOL    HW223358   5.242   5.183   9.065  1.0040  1.6364  0.0587
 7594SOL     OW23359   0.921   3.440   1.587  0.0159  0.5922  0.1860
 7594SOL    HW123360   0.874   3.409   1.509  0.1949 -0.8110  0.6105
 7594SOL    HW223361   1.001   3.479   1.553 -0.0257  0.2205 -0.3547
 7595SOL     OW23362   6.289   0.774   4.166 -0.1178 -0.4370  0.3601
 7595SOL    HW123363   6.333   0.724   4.234  1.3122 -1.5911 -1.3013
 7595SOL    HW223364   6.197   0.779   4.194  0.3653 -1.1584  2.1537
 7596SOL     OW23365   6.157   4.570   6.314 -0.7623  0.2314  0.4673
 7596SOL    HW123366   6.111   4.546   6.233  0.6814  0.5793 -0.4859
 7596SOL    HW223367   6.218   4.498   6.329  0.6005  1.2427 -0.0535
 7597SOL     OW23368   6.580   0.625   6.109 -0.1110  0.5845  0.4491
 7597SOL    HW123369   6.570   0.559   6.042  0.5625  2.5044 -1.6781
 7597SOL    HW223370   6.497   0.674   6.109  0.9014  2.4396 -1.1951
 7598SOL     OW23371   1.075   8.860   3.392 -0.3275  0.9144 -0.0723
 7598SOL    HW123372   1.123   8.790   3.348 -1.8214  0.8227 -1.6056
 7598SOL    HW223373   1.141   8.928   3.406  0.7122 -0.0194 -0.2505
 7599SOL     OW23374   2.035   9.036   5.768  0.6107 -0.0392 -0.4898
 7599SOL    HW123375   2.114   8.996   5.733  0.8896  0.6867 -0.7139
 7599SOL    HW223376   1.965   9.008   5.709  0.1464 -3.0128  1.2649
 7600SOL     OW23377   2.861   9.512   0.305 -0.0842 -0.4578 -0.0913
 7600SOL    HW123378   2.823   9.429   0.275  1.8012 -1.2643 -0.4116
 7600SOL    HW223379   2.804   9.539   0.377 -0.0567 -2.7148  0.8826
 7601SOL     OW23380   3.957   3.963   5.417 -0.0399 -0.9028  0.0265
 7601SOL    HW123381   3.900   3.893   5.449 -0.1015 -0.0985  1.7764
 7601SOL    HW223382   3.907   4.004   5.346 -1.9064  0.0392  1.7797
 7602SOL     OW23383   7.869   6.186   1.560 -0.6538  0.1239 -0.2754
 7602SOL    HW123384   7.784   6.222   1.537  0.4671  1.7480 -2.2132
 7602SOL    HW223385   7.865   6.095   1.530 -1.9867 -0.1080  0.5250
 7603SOL     OW23386   8.508   6.214   3.053  0.2273 -0.1366 -0.0063
 7603SOL    HW123387   8.427   6.259   3.030  2.1355  2.3618 -2.5189
 7603SOL    HW223388   8.503   6.131   3.005 -0.9689 -0.1813  0.1603
 7604SOL     OW23389   3.158   3.405   3.501  0.7691  0.7254 -0.0546
 7604SOL    HW123390   3.087   3.386   3.562  0.5244 -0.7160 -0.7421
 7604SOL    HW223391   3.233   3.426   3.557 -0.0230  1.7316  0.6851
 7605SOL     OW23392   8.499   2.281   3.105 -0.1504 -0.2493  0.5353
 7605SOL    HW123393   8.438   2.334   3.054  0.3096 -0.2544 -0.0318
 7605SOL    HW223394   8.501   2.196   3.061  1.3152  0.1811 -0.3084
 7606SOL     OW23395   0.424   7.434   1.351 -0.4254 -0.2489 -0.1454
 7606SOL    HW123396   0.415   7.388   1.435 -1.4813  0.9983  0.4616
 7606SOL    HW223397   0.470   7.372   1.295 -0.8061 -1.6111  0.9776
 7607SOL     OW23398   4.873   2.155   5.349 -0.3021  0.0221  0.0397
 7607SOL    HW123399   4.900   2.157   5.441 -0.3188 -0.4847  0.0599
 7607SOL    HW223400   4.939   2.101   5.307  2.2409  3.6254 -1.1063
 7608SOL     OW23401   5.730   7.503   3.119  0.0331 -0.2671  0.1817
 7608SOL    HW123402   5.735   7.486   3.025 -0.8012 -2.0283  0.4130
 7608SOL    HW223403   5.636   7.514   3.136  0.0439 -1.2680  0.9889
 7609SOL     OW23404   5.288   4.362   2.433 -0.4191 -0.1316 -0.2442
 7609SOL    HW123405   5.240   4.328   2.509  1.3916 -0.2984  0.9093
 7609SOL    HW223406   5.227   4.421   2.390 -2.7186 -2.5818 -0.6624
 7610SOL     OW23407   6.963   0.848   6.282 -0.0738 -0.2572  0.4568
 7610SOL    HW123408   6.919   0.785   6.226 -0.4922 -0.4792  1.0210
 7610SOL    HW223409   6.895   0.911   6.306  0.5286  0.9105 -0.7783
 7611SOL     OW23410   0.966   3.554   3.056  0.2332 -0.3394 -0.2551
 7611SOL    HW123411   0.940   3.502   2.980 -0.9941 -1.5720  0.9494
 7611SOL    HW223412   0.931   3.507   3.131  0.4608  1.4069  1.0287
 7612SOL     OW23413   9.219   6.869   7.512 -0.1185  0.3427  0.0158
 7612SOL    HW123414   9.182   6.825   7.589  0.1934  1.0849  0.6077
 7612SOL    HW223415   9.175   6.829   7.438  0.9320 -1.7492  0.4524
 7613SOL     OW23416   1.039   0.197   9.398 -0.1801  0.5759 -0.2080
 7613SOL    HW123417   0.958   0.156   9.428  0.8670 -1.0837  0.4963
 7613SOL    HW223418   1.071   0.245   9.475 -0.6238  1.4871 -0.5773
 7614SOL     OW23419   0.298   6.537   9.794 -0.1137 -0.3501  0.1302
 7614SOL    HW123420   0.272   6.448   9.819  0.1193 -0.3896  0.2341
 7614SOL    HW223421   0.341   6.573   9.872 -0.8714  0.1216  0.3374
 7615SOL     OW23422   4.968   5.174   1.950  0.1024 -0.1598  0.6394
 7615SOL    HW123423   4.967   5.247   1.887  2.9861 -0.1790  0.4139
 7615SOL    HW223424   5.019   5.208   2.023 -0.5840 -1.1841  1.6131
 7616SOL     OW23425   8.604   1.301   2.969 -0.2979 -0.2153 -0.9877
 7616SOL    HW123426   8.698   1.317   2.981 -0.2854  0.9347 -2.3746
 7616SOL    HW223427   8.562   1.383   2.996 -1.0676 -1.2115  1.0515
 7617SOL     OW23428   8.032   7.817   2.936 -0.5695  0.1512  0.0452
 7617SOL    HW123429   7.947   7.861   2.948  0.0274  1.3248  0.0915
 7617SOL    HW223430   8.093   7.888   2.918  0.4969 -0.6483  0.4428
 7618SOL     OW23431   2.643   5.582   8.091 -0.1246  0.5925  0.0043
 7618SOL    HW123432   2.573   5.622   8.144  0.3806  0.5671  0.6985
 7618SOL    HW223433   2.715   5.645   8.095 -0.5229  1.2117 -1.7478
 7619SOL     OW23434   7.664   2.735   5.348  0.1801 -0.4254 -0.5016
 7619SOL    HW123435   7.655   2.831   5.342  0.2701 -0.4050 -0.3210
 7619SOL    HW223436   7.698   2.709   5.262  0.2953 -0.2794 -0.5004
 7620SOL     OW23437   5.289   8.193   9.471  0.9504  0.0312  0.1754
 7620SOL    HW123438   5.341   8.127   9.517 -0.5253 -1.3885 -0.1159
 7620SOL    HW223439   5.328   8.198   9.384  0.2707 -1.4768 -0.2437
 7621SOL     OW23440   8.080   3.488   0.345 -0.0719  0.6531 -0.2969
 7621SOL    HW123441   8.098   3.572   0.387 -1.1451  0.8146 -0.1523
 7621SOL    HW223442   7.989   3.494   0.316 -0.8985 -1.2504  1.6093
 7622SOL     OW23443   0.702   6.496   0.521  0.0227 -0.1575 -0.2560
 7622SOL    HW123444   0.744   6.427   0.469 -0.0804 -0.3577 -0.0792
 7622SOL    HW223445   0.638   6.449   0.575  1.2797 -0.2138  1.2854
 7623SOL     OW23446   2.877   6.526   4.937 -0.3623 -0.2588 -0.2555
 7623SOL    HW123447   2.893   6.453   4.996  0.6823 -0.0120 -0.2219
 7623SOL    HW223448   2.931   6.597   4.971 -0.9113  0.3518 -0.6352
 7624SOL     OW23449   2.938   0.811   8.304  0.1310 -0.2501  0.3967
 7624SOL    HW123450   2.909   0.869   8.233 -2.5820  0.4036  1.9262
 7624SOL    HW223451   2.884   0.732   8.294 -0.8241  0.1492  2.1218
 7625SOL     OW23452   0.623   5.629   4.321  0.4919  0.3866 -0.4602
 7625SOL    HW123453   0.678   5.560   4.284 -0.5199 -0.5905 -0.2122
 7625SOL    HW223454   0.563   5.653   4.250  1.2265  1.4481 -0.7339
 7626SOL     OW23455   5.533   8.054   2.779  0.2782 -0.0526 -0.6087
 7626SOL    HW123456   5.544   7.960   2.788 -1.5451 -0.2262  0.2208
 7626SOL    HW223457   5.588   8.092   2.848 -1.8761 -0.7303  1.6297
 7627SOL     OW23458   7.801   6.101   3.754  0.4479 -0.5170 -0.6512
 7627SOL    HW123459   7.883   6.101   3.804 -0.7320  0.9441  1.5004
 7627SOL    HW223460   7.757   6.020   3.780  0.4230 -0.3974 -0.3024
 7628SOL     OW23461   5.635   6.193   7.258  0.0647 -0.1284  0.5605
 7628SOL    HW123462   5.609   6.247   7.333 -0.8173  0.2815 -0.0240
 7628SOL    HW223463   5.552   6.165   7.219  0.4994  0.1784 -0.6250
 7629SOL     OW23464   4.723   7.391   0.719  0.3262 -0.0744 -0.8144
 7629SOL    HW123465   4.762   7.310   0.752  0.6531  0.7232  0.8854
 7629SOL    HW223466   4.790   7.458   0.733 -0.8941  0.9675  0.3561
 7630SOL     OW23467   7.374   9.646   3.576 -0.1455  0.1335  0.2565
 7630SOL    HW123468   7.468   9.664   3.583 -0.5227  1.6913  2.4252
 7630SOL    HW223469   7.353   9.662   3.484  1.7762 -0.7649 -0.3945
 7631SOL     OW23470   2.304   7.655   4.960 -0.0152  0.2341  0.2567
 7631SOL    HW123471   2.250   7.577   4.962  2.6277 -1.7586 -0.6304
 7631SOL    HW223472   2.369   7.639   4.892  0.0804  3.6690 -0.6861
 7632SOL     OW23473   2.536   1.201   1.866 -0.0196  0.2243 -1.1430
 7632SOL    HW123474   2.573   1.126   1.819  0.4110 -0.0939 -0.3306
 7632SOL    HW223475   2.443   1.200   1.843 -0.0214 -0.5656 -1.1480
 7633SOL     OW23476   4.844   2.994   5.834 -0.0474  0.3483  0.0965
 7633SOL    HW123477   4.851   2.899   5.833 -1.9550  0.1833 -0.1163
 7633SOL    HW223478   4.806   3.014   5.920  0.4319  0.9362  0.1802
 7634SOL     OW23479   3.166   9.299   8.871 -0.5141  0.1983 -0.6607
 7634SOL    HW123480   3.213   9.377   8.839  2.2809 -0.5666  1.2025
 7634SOL    HW223481   3.189   9.230   8.809 -2.0060  0.5327 -1.6297
 7635SOL     OW23482   3.083   1.563   6.182  0.6270 -0.2695 -0.8069
 7635SOL    HW123483   3.091   1.501   6.254 -1.7171  0.7147  0.4405
 7635SOL    HW223484   3.148   1.631   6.201 -0.7587  0.6091  1.1722
 7636SOL     OW23485   9.092   4.812   6.425 -0.6330  0.8489  0.4252
 7636SOL    HW123486   9.044   4.795   6.343 -0.4260  0.2644  0.4170
 7636SOL    HW223487   9.039   4.768   6.492  0.7998 -1.3934  0.1806
 7637SOL     OW23488   2.911   1.843   5.152 -0.2343 -0.0568  0.4518
 7637SOL    HW123489   2.905   1.886   5.066 -0.2567 -0.2024  0.3794
 7637SOL    HW223490   2.917   1.915   5.215 -0.1280  0.0509  0.3205
 7638SOL     OW23491   2.797   3.463   1.637 -0.0392  0.4336  0.1071
 7638SOL    HW123492   2.801   3.497   1.726  0.7381 -0.8365  0.5830
 7638SOL    HW223493   2.886   3.476   1.603  0.2599 -1.0191  0.2805
 7639SOL     OW23494   3.207   3.791   8.856  0.4070  0.5485  0.2247
 7639SOL    HW123495   3.218   3.744   8.774  0.3862  0.3776  0.3194
 7639SOL    HW223496   3.229   3.882   8.836  0.3942  0.5070  0.0294
 7640SOL     OW23497   2.158   3.563   5.083 -0.5116 -0.4433 -0.1095
 7640SOL    HW123498   2.063   3.553   5.073 -0.5967  1.8668 -2.7726
 7640SOL    HW223499   2.196   3.512   5.012  0.1769 -0.2409  0.1023
 7641SOL     OW23500   6.681   7.494   8.097 -0.2822  0.1953 -0.0757
 7641SOL    HW123501   6.723   7.576   8.072 -3.6385  2.1513  0.0782
 7641SOL    HW223502   6.643   7.460   8.017 -0.7045 -0.0961  0.2428
 7642SOL     OW23503   8.597   7.105   4.915 -0.7393  0.3326 -0.2574
 7642SOL    HW123504   8.677   7.120   4.966 -0.1675  0.1776 -1.0862
 7642SOL    HW223505   8.553   7.190   4.914  0.6676  1.1034 -1.8604
 7643SOL     OW23506   5.433   8.455   7.891  0.0854 -0.5180  0.1911
 7643SOL    HW123507   5.393   8.371   7.871  1.0452 -0.7051 -1.1023
 7643SOL    HW223508   5.364   8.505   7.934  0.2689 -2.8783  3.6479
 7644SOL     OW23509   9.429   1.175   3.155  0.2941 -0.7066  0.1682
 7644SOL    HW123510   9.493   1.148   3.089 -0.3918 -1.1996 -0.3089
 7644SOL    HW223511   9.475   1.241   3.207  1.5336 -1.7715  0.4688
 7645SOL     OW23512   3.471   6.626   8.934 -0.1974  0.2191  0.0471
 7645SOL    HW123513   3.430   6.567   8.870  1.3202  2.1323 -2.9143
 7645SOL    HW223514   3.400   6.681   8.965 -0.8220 -0.0652 -0.8427
 7646SOL     OW23515   4.876   5.159   1.126  0.2177 -0.4880  0.1874
 7646SOL    HW123516   4.932   5.085   1.151  0.9765 -0.0115 -0.0584
 7646SOL    HW223517   4.877   5.217   1.202  1.4130  0.3044 -0.3987
 7647SOL     OW23518   7.189   9.759   0.869 -0.4926 -0.3339  0.6914
 7647SOL    HW123519   7.147   9.689   0.819 -2.0919  1.2601 -0.2903
 7647SOL    HW223520   7.180   9.731   0.961  0.6686 -2.3088  0.2825
 7648SOL     OW23521   6.034   3.615   5.451  0.1621  0.4587 -0.4503
 7648SOL    HW123522   5.966   3.548   5.454  1.2997 -0.7872 -1.5259
 7648SOL    HW223523   6.103   3.577   5.397  1.7477  1.6773  0.6493
 7649SOL     OW23524   0.557   4.539   5.057 -0.3089  0.2413  0.3024
 7649SOL    HW123525   0.488   4.530   5.123 -1.3086  0.3286 -0.7014
 7649SOL    HW223526   0.551   4.630   5.028  0.0572  0.1770  0.0163
 7650SOL     OW23527   0.963   8.395   3.164 -0.4307  0.0782 -0.0229
 7650SOL    HW123528   0.964   8.307   3.126 -0.8245  0.7063 -1.5467
 7650SOL    HW223529   1.018   8.388   3.242 -1.2349 -1.7385  0.4209
 7651SOL     OW23530   5.577   2.209   9.728 -0.1589 -0.1708 -0.1846
 7651SOL    HW123531   5.527   2.132   9.756  1.9810 -1.4871  0.2213
 7651SOL    HW223532   5.655   2.173   9.686  0.8080  1.7796 -0.1663
 7652SOL     OW23533   6.462   4.758   3.646  0.2406 -0.0555  0.3415
 7652SOL    HW123534   6.466   4.728   3.737  0.3341  1.5633  0.9005
 7652SOL    HW223535   6.370   4.777   3.631  0.2233 -0.3328  0.0866
 7653SOL     OW23536  -0.016   4.668   2.844  0.5238  0.0596 -0.3740
 7653SOL    HW123537   0.067   4.629   2.871 -0.4154 -0.6085  1.7506
 7653SOL    HW223538  -0.047   4.715   2.922  0.7209  3.6741 -2.2497
 7654SOL     OW23539   1.928   9.073   9.781 -0.6645  0.1961  0.4172
 7654SOL    HW123540   1.947   9.128   9.858 -1.3331 -2.7448  2.8987
 7654SOL    HW223541   2.010   9.073   9.731 -0.5763  3.1665  0.3622
 7655SOL     OW23542   5.884   3.301   7.180  0.2753 -0.0983  0.3601
 7655SOL    HW123543   5.907   3.215   7.216 -1.2213 -0.7038 -0.0529
 7655SOL    HW223544   5.955   3.321   7.119  0.8897 -0.8174  0.8185
 7656SOL     OW23545   3.307   9.834   8.482 -0.0118 -0.2793  0.3395
 7656SOL    HW123546   3.300   9.743   8.453 -0.0658 -0.1596 -0.0388
 7656SOL    HW223547   3.240   9.844   8.548 -1.0568 -0.0956 -0.7173
 7657SOL     OW23548   8.316   3.403   9.343 -0.8629  0.1770  0.0281
 7657SOL    HW123549   8.379   3.458   9.390 -1.2487  1.2195 -0.6295
 7657SOL    HW223550   8.324   3.317   9.383  1.6411  0.0304 -0.6252
 7658SOL     OW23551   4.378   9.006   0.058 -0.0642 -0.8429  0.0234
 7658SOL    HW123552   4.461   9.053   0.055 -1.4025  1.6235 -0.8890
 7658SOL    HW223553   4.401   8.916   0.037  2.1316  0.1370 -2.2529
 7659SOL     OW23554   4.419   4.064   7.856 -0.0808 -0.5237 -0.3644
 7659SOL    HW123555   4.338   4.114   7.850 -0.0888 -0.6236 -1.2263
 7659SOL    HW223556   4.460   4.094   7.937 -1.5654 -1.3748  0.7487
 7660SOL     OW23557   7.959   9.300   0.350  0.5928 -0.4218  0.2224
 7660SOL    HW123558   7.964   9.217   0.397 -0.3837 -0.6177  0.0046
 7660SOL    HW223559   8.050   9.322   0.328  0.8774 -1.2820  0.5379
 7661SOL     OW23560   3.120   8.935   1.441 -0.4093  0.0860  0.6166
 7661SOL    HW123561   3.088   9.022   1.465 -0.6436 -0.0620  0.8567
 7661SOL    HW223562   3.207   8.950   1.406 -1.1213  0.6286 -1.0424
 7662SOL     OW23563   1.439   3.301   2.951 -0.1033 -0.8214 -0.6496
 7662SOL    HW123564   1.351   3.334   2.932  0.3543 -1.0147 -3.5177
 7662SOL    HW223565   1.462   3.342   3.035 -2.3851  0.2717 -0.4728
 7663SOL     OW23566   9.162   8.988   1.124  0.2390  0.0979 -0.1222
 7663SOL    HW123567   9.106   8.911   1.121 -0.8633  0.8509  0.3084
 7663SOL    HW223568   9.131   9.043   1.052  0.2544  0.6341  0.2711
 7664SOL     OW23569   0.116   5.542   9.050  0.2462 -0.3146 -0.3867
 7664SOL    HW123570   0.174   5.612   9.081 -2.5607  1.8190  0.5204
 7664SOL    HW223571   0.079   5.505   9.130 -0.5916 -0.7076 -0.9404
 7665SOL     OW23572   7.734   3.529   3.834 -0.3541  0.8231 -0.6024
 7665SOL    HW123573   7.715   3.479   3.755 -2.0393 -0.6828  0.6491
 7665SOL    HW223574   7.795   3.474   3.884  0.5566  1.6757 -0.7503
 7666SOL     OW23575   2.592   4.656   1.256 -0.5020  0.8913 -0.3424
 7666SOL    HW123576   2.605   4.701   1.172  1.3821 -1.0440 -1.1884
 7666SOL    HW223577   2.672   4.673   1.305 -0.3461 -0.3990 -0.1312
 7667SOL     OW23578   2.353   7.138   7.668  0.1740  0.3828  0.0318
 7667SOL    HW123579   2.263   7.153   7.697  0.3965  1.1352  0.3415
 7667SOL    HW223580   2.344   7.099   7.581 -0.4974 -1.8835  1.0527
 7668SOL     OW23581   8.238   1.864   9.082  0.7658  0.0270 -0.4288
 7668SOL    HW123582   8.169   1.926   9.107  0.4099 -0.5778  0.1216
 7668SOL    HW223583   8.194   1.803   9.022  0.6447 -0.7248  0.4001
 7669SOL     OW23584   0.117   4.050   5.715 -0.1807  0.1742  0.0930
 7669SOL    HW123585   0.136   4.137   5.679  1.1942 -0.6515 -1.2919
 7669SOL    HW223586   0.183   4.037   5.783 -0.0100 -0.0224 -0.1096
 7670SOL     OW23587   3.519   7.942   1.929 -0.4798  0.1603  0.1411
 7670SOL    HW123588   3.504   7.886   1.852  0.0508 -0.2483  0.3308
 7670SOL    HW223589   3.553   8.024   1.892  0.7646 -0.3950 -0.0128
 7671SOL     OW23590   5.267   8.885   7.441 -0.2880 -0.3005  0.1811
 7671SOL    HW123591   5.267   8.955   7.506  1.9147 -0.3923  0.3751
 7671SOL    HW223592   5.279   8.805   7.492  0.1169 -0.5064 -0.2238
 7672SOL     OW23593   9.030   1.904   2.935 -0.3513 -0.0081  0.6817
 7672SOL    HW123594   9.125   1.913   2.924 -0.1358 -2.7306 -0.3644
 7672SOL    HW223595   9.004   1.982   2.984  2.1297  1.7756 -0.6196
 7673SOL     OW23596   7.921   8.916   4.557 -0.4124 -0.0575  0.1121
 7673SOL    HW123597   7.958   9.004   4.566  0.1065 -0.3383  0.8258
 7673SOL    HW223598   7.940   8.892   4.466 -0.6481  0.6018 -0.1183
 7674SOL     OW23599   1.393   5.162   6.530  0.2812  0.2615 -0.0050
 7674SOL    HW123600   1.435   5.150   6.445 -0.6932 -0.9286 -0.3458
 7674SOL    HW223601   1.305   5.196   6.510 -0.5442 -1.5246  0.3877
 7675SOL     OW23602   6.824   9.261   2.250  0.1054 -0.1216 -0.2184
 7675SOL    HW123603   6.786   9.340   2.212  1.3419  0.9221  0.6453
 7675SOL    HW223604   6.838   9.283   2.342  0.1440 -1.4719  0.1144
 7676SOL     OW23605   9.374   8.250   9.550 -0.4708  0.4826  0.3795
 7676SOL    HW123606   9.358   8.162   9.584 -0.6188  1.3087  2.6015
 7676SOL    HW223607   9.286   8.286   9.533 -0.4981  0.8360  1.2359
 7677SOL     OW23608   8.428   2.431   1.376 -0.1085 -0.1035  0.3734
 7677SOL    HW123609   8.399   2.414   1.287  1.0535  1.2871 -0.3058
 7677SOL    HW223610   8.468   2.518   1.373 -0.2567  0.0822  2.3056
 7678SOL     OW23611   6.193   5.837   4.874 -0.0963 -0.3783  0.1450
 7678SOL    HW123612   6.276   5.820   4.829 -0.3731 -1.1483 -0.0726
 7678SOL    HW223613   6.155   5.751   4.888 -0.4318 -0.0918  1.0745
 7679SOL     OW23614   3.671   0.946   8.784  0.0835 -0.3514 -0.3330
 7679SOL    HW123615   3.708   0.859   8.796 -1.1300 -0.6485  1.8156
 7679SOL    HW223616   3.576   0.932   8.786 -0.1653  0.8018 -2.0454
 7680SOL     OW23617   6.957   1.371   7.057 -0.1654  0.3770  0.3745
 7680SOL    HW123618   6.962   1.430   7.132 -2.1880 -0.1179  0.9588
 7680SOL    HW223619   6.971   1.284   7.095 -2.3283  0.0095  0.4228
 7681SOL     OW23620   5.592   6.889   3.784 -0.0814 -0.7901  0.1410
 7681SOL    HW123621   5.514   6.945   3.783 -0.5330 -1.3981 -0.5423
 7681SOL    HW223622   5.645   6.920   3.711  2.4998  2.4785  3.0998
 7682SOL     OW23623   6.471   3.635   0.046  0.2472 -0.1128  0.1206
 7682SOL    HW123624   6.493   3.680   0.127  1.0557  0.6271 -0.4935
 7682SOL    HW223625   6.465   3.705  -0.019 -1.6381 -0.5415 -0.2306
 7683SOL     OW23626   9.832   5.919   5.730  0.1226  0.1354  0.2873
 7683SOL    HW123627   9.917   5.901   5.771  0.5236 -1.0169 -0.9795
 7683SOL    HW223628   9.775   5.942   5.803  0.4982 -2.9444  1.7177
 7684SOL     OW23629   0.690   6.525   9.594 -0.1775 -0.2276 -0.0096
 7684SOL    HW123630   0.690   6.454   9.529  0.6285  0.1848 -0.4667
 7684SOL    HW223631   0.694   6.479   9.678 -0.1450 -0.7368 -0.2822
 7685SOL     OW23632   1.403   7.605   2.874 -0.3420 -0.0955 -0.0639
 7685SOL    HW123633   1.464   7.677   2.855  0.5045 -0.4914  1.0482
 7685SOL    HW223634   1.369   7.625   2.961  0.5284 -1.4320  0.6161
 7686SOL     OW23635   8.356   4.017   4.719  0.0023 -0.1934 -0.7614
 7686SOL    HW123636   8.274   3.970   4.736  0.1419 -1.0937 -2.3946
 7686SOL    HW223637   8.330   4.109   4.713 -0.9047 -0.4696 -1.3007
 7687SOL     OW23638   1.758   5.420   1.031 -0.5577  0.4001 -0.0086
 7687SOL    HW123639   1.689   5.469   0.987  0.4005  1.2757 -0.5883
 7687SOL    HW223640   1.805   5.486   1.083  0.7056  0.1174 -0.7431
 7688SOL     OW23641   4.196   8.162   6.869 -0.1787  0.0284 -0.2223
 7688SOL    HW123642   4.208   8.078   6.825 -0.8390 -0.0020 -0.3517
 7688SOL    HW223643   4.223   8.227   6.804 -1.3017 -0.0080 -0.7480
 7689SOL     OW23644   9.250   0.455   3.641 -0.3529  0.3574  0.6255
 7689SOL    HW123645   9.162   0.478   3.669 -0.4168  1.0117 -0.0855
 7689SOL    HW223646   9.295   0.430   3.722 -0.7810  1.3560  1.1972
 7690SOL     OW23647   3.545   2.279   3.121  0.0210  0.1206  0.4835
 7690SOL    HW123648   3.476   2.235   3.071 -0.2979  0.9259  0.1976
 7690SOL    HW223649   3.619   2.283   3.060  0.2051 -0.4023  0.6620
 7691SOL     OW23650   2.869   4.828   5.843 -0.5820  0.1700 -0.3409
 7691SOL    HW123651   2.889   4.775   5.921  0.4163  0.0693 -0.6572
 7691SOL    HW223652   2.847   4.764   5.776 -1.0150  0.2394 -0.2701
 7692SOL     OW23653   7.620   3.749   2.100 -0.2621 -0.0770 -0.5626
 7692SOL    HW123654   7.646   3.677   2.042 -2.4390  1.1959 -3.3301
 7692SOL    HW223655   7.658   3.827   2.061 -0.6326  0.6776  0.5255
 7693SOL     OW23656   1.522   8.475   8.358  0.4898 -0.0093 -0.8442
 7693SOL    HW123657   1.533   8.405   8.294 -1.8648 -1.6844  0.4242
 7693SOL    HW223658   1.598   8.467   8.415 -0.1057 -2.1419 -0.2552
 7694SOL     OW23659   4.625   1.653   0.660  0.0524 -0.1636 -0.8149
 7694SOL    HW123660   4.687   1.650   0.587  2.3245 -1.9485  1.0108
 7694SOL    HW223661   4.591   1.564   0.666  1.7085 -0.7464  1.6012
 7695SOL     OW23662   8.499   2.780   2.580 -0.1604 -0.4840 -0.0731
 7695SOL    HW123663   8.466   2.869   2.590 -1.3651 -0.9956  0.7284
 7695SOL    HW223664   8.576   2.777   2.637 -0.6514 -0.2017  0.6302
 7696SOL     OW23665   0.601   1.724   9.330  0.4005 -0.2433 -0.5176
 7696SOL    HW123666   0.525   1.713   9.387  1.2248 -0.8265  0.5167
 7696SOL    HW223667   0.570   1.699   9.243 -0.7438  0.1230 -0.2260
 7697SOL     OW23668   3.994   6.554   2.912  0.1958  0.7069 -0.4252
 7697SOL    HW123669   4.016   6.564   3.004 -0.4963 -0.2266 -0.1410
 7697SOL    HW223670   3.898   6.550   2.910  0.1348  1.9276 -1.3217
 7698SOL     OW23671   9.696   7.405   8.667  0.4407  0.0613  0.0001
 7698SOL    HW123672   9.700   7.403   8.571  0.8367  1.9961 -0.0691
 7698SOL    HW223673   9.635   7.336   8.690  0.4587 -0.5475 -1.6403
 7699SOL     OW23674   0.104   7.438   5.559  0.1350  0.4827  0.4861
 7699SOL    HW123675   0.163   7.470   5.627  1.5235 -1.6489  0.3605
 7699SOL    HW223676   0.021   7.422   5.604  0.0138  2.2186  0.9419
 7700SOL     OW23677   7.686   1.524   3.710  0.7002  0.4864  0.2525
 7700SOL    HW123678   7.778   1.500   3.704  0.3792 -0.8244  0.2955
 7700SOL    HW223679   7.639   1.441   3.716 -0.5939  1.0616 -1.0717
 7701SOL     OW23680   6.665   8.863   3.134 -0.1984 -0.1116 -0.1683
 7701SOL    HW123681   6.706   8.943   3.168  1.1420 -0.3053 -1.2415
 7701SOL    HW223682   6.580   8.860   3.178  0.1811  1.2914  0.7598
 7702SOL     OW23683   2.726   4.567   1.705  0.2036  0.4242 -0.0321
 7702SOL    HW123684   2.669   4.610   1.769 -0.5550  0.7764 -0.9255
 7702SOL    HW223685   2.733   4.630   1.633  0.6955 -0.1416 -0.4826
 7703SOL     OW23686   3.085   4.205   7.656  0.0330  0.2020 -0.8584
 7703SOL    HW123687   3.023   4.278   7.668  0.1816  0.5466 -1.9870
 7703SOL    HW223688   3.129   4.196   7.740  1.8765  3.1633 -1.3551
 7704SOL     OW23689   4.934   2.997   7.409 -0.2353  0.1428  0.5421
 7704SOL    HW123690   4.879   2.995   7.487 -0.9582 -0.5380  0.0396
 7704SOL    HW223691   4.975   2.910   7.406 -0.8256 -0.1259 -0.2349
 7705SOL     OW23692   9.760   1.479   4.576 -0.3113  0.2750  0.2911
 7705SOL    HW123693   9.711   1.413   4.623  0.8696 -0.6505  0.2702
 7705SOL    HW223694   9.714   1.489   4.493 -1.7365  1.0811  1.1527
 7706SOL     OW23695   1.147   8.234   0.728  0.3389  0.0072 -0.3583
 7706SOL    HW123696   1.164   8.327   0.746 -1.7535 -0.1415  3.4887
 7706SOL    HW223697   1.221   8.188   0.769  0.2746 -0.0740 -0.3331
 7707SOL     OW23698   6.616   6.853   7.927 -0.0372 -0.2499 -0.2943
 7707SOL    HW123699   6.635   6.814   7.841  0.5606 -0.8512  0.1028
 7707SOL    HW223700   6.702   6.873   7.964 -0.3057  0.3700  0.0110
 7708SOL     OW23701   2.501   0.710   8.737  0.0659  0.1656 -0.0360
 7708SOL    HW123702   2.416   0.754   8.744  0.3340  0.4687  2.1106
 7708SOL    HW223703   2.563   0.782   8.721  0.0143  0.0441 -0.7860
 7709SOL     OW23704   3.034   8.670   8.272 -0.0329  0.2746 -0.4451
 7709SOL    HW123705   2.992   8.756   8.276  0.7865  0.6185  1.6679
 7709SOL    HW223706   3.076   8.659   8.357  2.0866 -1.1296 -1.5905
 7710SOL     OW23707   3.735   9.030   1.783  0.5742 -0.3166  0.4235
 7710SOL    HW123708   3.809   8.977   1.812  1.1100  0.2704  0.1425
 7710SOL    HW223709   3.766   9.075   1.704  0.1095  0.3740  0.6215
 7711SOL     OW23710   4.419   0.935   8.807  0.3522  0.3549 -1.0650
 7711SOL    HW123711   4.503   0.929   8.853 -1.0415 -0.3024  1.6048
 7711SOL    HW223712   4.393   1.027   8.816 -0.2763  0.0710  0.2407
 7712SOL     OW23713   9.657   5.970   9.060  0.5099 -0.5988 -0.2483
 7712SOL    HW123714   9.750   5.982   9.082  0.5703 -1.4801  0.0364
 7712SOL    HW223715   9.626   5.907   9.125 -0.0675 -0.9850 -0.8886
 7713SOL     OW23716   1.481   2.792   4.117 -0.0371 -0.1312  0.2556
 7713SOL    HW123717   1.543   2.814   4.186  1.4132 -0.4347 -0.8977
 7713SOL    HW223718   1.428   2.721   4.154 -1.1612  1.5414  2.0246
 7714SOL     OW23719   6.188   5.163   0.668 -0.0742  1.1147 -0.3617
 7714SOL    HW123720   6.170   5.217   0.745 -1.5847  1.2229 -0.7602
 7714SOL    HW223721   6.240   5.090   0.702 -2.2437  0.1746  1.1629
 7715SOL     OW23722   7.294   0.718   2.869  0.0025  0.2730  0.4094
 7715SOL    HW123723   7.383   0.684   2.864  0.1047  0.6473 -0.5637
 7715SOL    HW223724   7.302   0.810   2.845 -0.6989  0.2009 -0.1451
 7716SOL     OW23725   6.724   1.073   3.558 -0.0822 -0.4376 -0.3351
 7716SOL    HW123726   6.728   1.135   3.485 -1.4101 -1.3930 -1.2931
 7716SOL    HW223727   6.632   1.044   3.559 -0.1694 -0.2270  1.9457
 7717SOL     OW23728   9.544   7.591   2.649 -0.1682  0.1351 -0.4230
 7717SOL    HW123729   9.490   7.595   2.569 -0.2252 -0.3138 -0.4128
 7717SOL    HW223730   9.481   7.576   2.719 -0.0851  0.1872 -0.3375
 7718SOL     OW23731   9.121   0.676   6.507  0.3999 -0.5089 -0.1101
 7718SOL    HW123732   9.126   0.634   6.592 -0.6487  0.5635  0.5093
 7718SOL    HW223733   9.087   0.608   6.448 -1.3902 -0.5274  0.8876
 7719SOL     OW23734   7.546   4.770   6.995  0.1214  0.4728  0.2115
 7719SOL    HW123735   7.545   4.696   6.935  0.7544  1.4542 -1.0709
 7719SOL    HW223736   7.624   4.820   6.970 -0.1139  1.4021  1.2433
 7720SOL     OW23737   1.356   5.903   3.179 -0.1516 -0.1098  0.0654
 7720SOL    HW123738   1.424   5.884   3.116  0.8892 -0.0163  1.1255
 7720SOL    HW223739   1.353   5.826   3.236  0.0312  0.4378  0.8384
 7721SOL     OW23740   1.214   1.527   5.952 -0.1589  0.0353 -0.1417
 7721SOL    HW123741   1.271   1.451   5.937 -0.2980 -0.1049  0.0415
 7721SOL    HW223742   1.177   1.513   6.039 -1.3700 -0.4672 -0.7201
 7722SOL     OW23743   5.722   1.108   6.835 -0.2273  0.4605  0.0731
 7722SOL    HW123744   5.737   1.073   6.747 -0.2744  0.1578  0.1826
 7722SOL    HW223745   5.807   1.098   6.879 -0.7471 -1.4199  0.7500
 7723SOL     OW23746   3.770   5.210   2.565  0.5857  0.4232 -0.0514
 7723SOL    HW123747   3.859   5.243   2.556  0.5395  0.4230 -0.5957
 7723SOL    HW223748   3.756   5.159   2.485 -0.1224  0.9425 -0.2683
 7724SOL     OW23749   3.298   9.875   8.020 -0.0210  0.2022 -0.4153
 7724SOL    HW123750   3.305   9.930   8.098  0.0149  1.5757 -1.3496
 7724SOL    HW223751   3.382   9.885   7.976 -0.4408  0.3661 -1.2088
 7725SOL     OW23752   9.698   8.703   7.432  0.1709  0.0272 -0.4579
 7725SOL    HW123753   9.699   8.754   7.512 -1.9770 -2.0493  1.0408
 7725SOL    HW223754   9.635   8.747   7.376 -1.1486 -0.5075  0.5489
 7726SOL     OW23755   7.338   7.740   1.174  0.6951  0.6378 -0.2044
 7726SOL    HW123756   7.416   7.686   1.165  0.7009  0.5266  0.5101
 7726SOL    HW223757   7.354   7.796   1.249 -0.2611 -0.0140  0.5192
 7727SOL     OW23758   9.199   8.250   0.047  0.5891  0.1391  0.6350
 7727SOL    HW123759   9.255   8.175   0.026 -2.5515 -2.3101  0.3104
 7727SOL    HW223760   9.246   8.294   0.118  3.7078 -0.6632 -0.7185
 7728SOL     OW23761   0.666   7.028   2.203 -0.2841 -0.1625  0.0303
 7728SOL    HW123762   0.630   6.987   2.125 -1.7936  1.0332  0.0324
 7728SOL    HW223763   0.740   7.080   2.172  1.1451 -2.1544 -0.0795
 7729SOL     OW23764   3.471   1.114   0.034  0.2435 -0.6356 -0.0167
 7729SOL    HW123765   3.439   1.024   0.031  0.2037 -0.6311  0.2286
 7729SOL    HW223766   3.525   1.123  -0.044 -2.6011  0.2212 -2.0811
 7730SOL     OW23767   6.385   0.892   5.741  0.3770 -0.3311 -0.1396
 7730SOL    HW123768   6.373   0.986   5.728  2.3952  0.3717  2.2722
 7730SOL    HW223769   6.331   0.851   5.673 -1.6311  2.5093 -0.4232
 7731SOL     OW23770   7.068   3.155   5.363  0.1222  0.3147  0.4736
 7731SOL    HW123771   6.984   3.144   5.318  0.1200  1.2154  0.2382
 7731SOL    HW223772   7.046   3.155   5.456 -0.1004  0.2696  0.4216
 7732SOL     OW23773   4.264   2.526   8.396  0.1344 -0.1543 -0.6388
 7732SOL    HW123774   4.173   2.518   8.367  0.3824 -0.5327 -1.3296
 7732SOL    HW223775   4.293   2.435   8.409  0.4802 -0.0468 -0.6394
 7733SOL     OW23776   4.546   7.139   5.028 -0.4574 -0.1243 -0.1299
 7733SOL    HW123777   4.605   7.063   5.031 -1.5683 -1.0278 -0.4438
 7733SOL    HW223778   4.494   7.126   4.949  0.6647  2.0324 -1.3084
 7734SOL     OW23779   0.628   5.069   7.533  0.0351  0.7160  0.0164
 7734SOL    HW123780   0.670   5.012   7.469 -0.1050  0.4209  0.1866
 7734SOL    HW223781   0.539   5.034   7.541  0.0223  0.8138  0.3000
 7735SOL     OW23782   7.305   8.997   0.206 -0.3600  0.0305  0.3494
 7735SOL    HW123783   7.245   8.941   0.158 -0.3021 -1.8081  2.2851
 7735SOL    HW223784   7.250   9.067   0.240 -0.9358 -0.2866  0.0765
 7736SOL     OW23785   5.002   6.158   9.181 -0.2907 -0.2342 -0.6600
 7736SOL    HW123786   5.012   6.251   9.160 -0.1607 -0.2730 -0.7734
 7736SOL    HW223787   4.911   6.139   9.160 -0.2645 -0.1799 -0.8247
 7737SOL     OW23788   6.528   2.738   9.754 -0.1369 -0.8429 -1.0157
 7737SOL    HW123789   6.582   2.775   9.825 -1.8896 -0.5906  0.2540
 7737SOL    HW223790   6.559   2.783   9.675  0.4262  0.4747 -0.0905
 7738SOL     OW23791   9.247   7.432   7.186 -0.2859  0.3277 -0.8485
 7738SOL    HW123792   9.215   7.359   7.133  2.1540 -0.3420 -1.5502
 7738SOL    HW223793   9.289   7.390   7.262 -2.9130  1.2460  1.2714
 7739SOL     OW23794   1.908   5.267   7.374  0.6694  0.5051 -0.0588
 7739SOL    HW123795   1.978   5.232   7.319 -1.5588 -2.5945 -1.1913
 7739SOL    HW223796   1.831   5.268   7.317 -0.7816  1.4169  1.8040
 7740SOL     OW23797   2.863   9.831   7.111 -0.2875 -0.0748 -0.6519
 7740SOL    HW123798   2.899   9.800   7.028  0.9820 -0.1952 -0.0773
 7740SOL    HW223799   2.883   9.924   7.112 -1.4571  0.1931 -1.0463
 7741SOL     OW23800   2.118   4.309   1.635  0.8335  0.7206 -0.5508
 7741SOL    HW123801   2.183   4.379   1.631  2.0967 -0.2269  1.6656
 7741SOL    HW223802   2.070   4.324   1.716  1.0107 -0.8710 -0.1137
 7742SOL     OW23803   6.772   8.431   2.861  0.2469 -1.0476 -0.2084
 7742SOL    HW123804   6.837   8.397   2.800 -0.2219 -1.7886 -0.3115
 7742SOL    HW223805   6.814   8.427   2.947  0.4692 -1.1494 -0.3216
 7743SOL     OW23806   1.539   2.821   0.878  0.3700 -0.1573  0.6188
 7743SOL    HW123807   1.518   2.836   0.786  0.0041 -2.5369  0.2548
 7743SOL    HW223808   1.470   2.867   0.926  0.3811  0.8406 -0.2858
 7744SOL     OW23809   2.714   4.144   1.082 -0.4791  0.2948 -0.5813
 7744SOL    HW123810   2.806   4.125   1.101 -0.2455  1.3017 -0.6780
 7744SOL    HW223811   2.693   4.089   1.006  0.0248  0.0295 -0.5297
 7745SOL     OW23812   7.099   9.739   8.089  0.0415  0.0708  0.1852
 7745SOL    HW123813   7.075   9.664   8.035 -3.9895 -0.2204  2.0521
 7745SOL    HW223814   7.125   9.806   8.026  1.6184 -2.0923 -1.6356
 7746SOL     OW23815   3.372   3.578   8.555 -0.3910  0.7072  0.1711
 7746SOL    HW123816   3.297   3.636   8.569  0.0327  0.9208  1.8354
 7746SOL    HW223817   3.334   3.490   8.553 -0.8511  0.9141 -0.7019
 7747SOL     OW23818   0.238   8.271   6.220  0.2410 -0.0922  0.2606
 7747SOL    HW123819   0.244   8.192   6.273  1.0495 -0.3517 -0.2113
 7747SOL    HW223820   0.252   8.343   6.281 -0.2165 -0.3206  0.6389
 7748SOL     OW23821   0.799   8.560   7.087 -0.3125 -0.1977  0.0091
 7748SOL    HW123822   0.797   8.601   7.173 -0.6720 -1.2053  0.5001
 7748SOL    HW223823   0.876   8.504   7.089  1.1120  1.6046 -1.2362
 7749SOL     OW23824   6.323   4.489   6.791  0.5459  0.1123 -0.2294
 7749SOL    HW123825   6.342   4.463   6.700  0.5815  1.2122 -0.5469
 7749SOL    HW223826   6.258   4.425   6.820  1.1773 -0.7903 -0.7279
 7750SOL     OW23827   7.546   1.066   2.938 -0.0362 -0.2657  0.0668
 7750SOL    HW123828   7.582   1.151   2.961  0.8998 -0.4649 -0.5762
 7750SOL    HW223829   7.554   1.061   2.843  0.2083 -1.1859  0.1211
 7751SOL     OW23830   0.802   6.612   1.809  0.3500  0.2300 -0.3565
 7751SOL    HW123831   0.711   6.603   1.781  0.9198 -0.3647 -2.1479
 7751SOL    HW223832   0.835   6.522   1.813  0.8098  0.4225  0.5252
 7752SOL     OW23833   5.797   5.270   5.665  1.1799  0.0012 -0.1072
 7752SOL    HW123834   5.794   5.199   5.729  2.8126  0.2189  0.2645
 7752SOL    HW223835   5.715   5.319   5.678  0.7554 -0.9051  0.6826
 7753SOL     OW23836   2.404   9.830   6.452  0.4270  0.8385  0.1355
 7753SOL    HW123837   2.460   9.877   6.390  2.4527 -0.4713  0.8652
 7753SOL    HW223838   2.414   9.738   6.427  0.4006  0.3925  1.6825
 7754SOL     OW23839   9.049   6.093   8.629 -0.1978 -0.0431  0.3155
 7754SOL    HW123840   8.968   6.145   8.635 -0.2397 -0.1445  0.6301
 7754SOL    HW223841   9.081   6.110   8.540 -1.1973 -0.9407 -0.2426
 7755SOL     OW23842   9.929   2.150   2.744 -0.0568  0.9491  0.2220
 7755SOL    HW123843   9.940   2.223   2.684 -0.0617  0.2098 -0.6997
 7755SOL    HW223844   9.884   2.188   2.820 -1.7407  1.5373 -1.0102
 7756SOL     OW23845   1.923   6.438   7.184  0.1615 -0.2187  0.7406
 7756SOL    HW123846   1.916   6.406   7.274 -1.0198  2.4152  1.6782
 7756SOL    HW223847   2.001   6.494   7.184  0.2295 -0.3023  0.0772
 7757SOL     OW23848   2.303   9.428   9.807 -0.0840  0.0582  0.1927
 7757SOL    HW123849   2.225   9.417   9.752  0.9146  2.2588 -1.8568
 7757SOL    HW223850   2.359   9.354   9.782 -0.9324 -0.7905  0.7095
 7758SOL     OW23851   6.874   9.199   8.294 -0.0375  0.3201 -0.1634
 7758SOL    HW123852   6.810   9.221   8.226  0.5413 -0.1489 -0.8656
 7758SOL    HW223853   6.906   9.112   8.270  0.4942  0.3309  0.4720
 7759SOL     OW23854   0.843   6.892   8.781 -0.5532  0.5500 -0.0450
 7759SOL    HW123855   0.892   6.898   8.863  0.9463  0.3295 -0.8883
 7759SOL    HW223856   0.908   6.908   8.713 -1.8370  1.0843 -1.1951
 7760SOL     OW23857   5.036   4.688   7.567  0.1213  0.2979  0.2006
 7760SOL    HW123858   5.130   4.675   7.556  0.4299  2.0658  0.3886
 7760SOL    HW223859   4.997   4.650   7.489  1.1996  1.4404 -0.9476
 7761SOL     OW23860   8.321   5.361   2.793 -0.7941  0.3014  0.8869
 7761SOL    HW123861   8.339   5.341   2.885 -2.8763  2.4251  1.8851
 7761SOL    HW223862   8.397   5.412   2.764 -0.2838 -0.0766  1.5360
 7762SOL     OW23863   0.391   4.830   2.006  0.3201  0.0879  0.2693
 7762SOL    HW123864   0.340   4.809   2.084  1.0545 -1.3005  0.4182
 7762SOL    HW223865   0.348   4.782   1.935  0.4038  0.3127  0.0635
 7763SOL     OW23866   2.540   0.878   0.843  0.2904 -0.3796  0.4635
 7763SOL    HW123867   2.476   0.863   0.773  0.9559 -1.0356 -0.0205
 7763SOL    HW223868   2.566   0.969   0.833 -1.7183  0.3973  1.6586
 7764SOL     OW23869   5.055   4.329   7.255  0.2649  0.2022 -0.0685
 7764SOL    HW123870   4.985   4.264   7.248  0.8707 -0.4749  0.0796
 7764SOL    HW223871   5.128   4.290   7.207  1.5299 -0.4585  2.2328
 7765SOL     OW23872   3.120   2.483   1.628 -0.0874  0.1341  0.1236
 7765SOL    HW123873   3.097   2.464   1.537  2.0129  0.5778 -0.5373
 7765SOL    HW223874   3.149   2.399   1.664 -1.3246 -0.1343  0.5499
 7766SOL     OW23875   5.113   5.117   0.589 -0.3385  0.5283 -0.9513
 7766SOL    HW123876   5.032   5.162   0.566 -0.0634  1.8981  0.6410
 7766SOL    HW223877   5.108   5.103   0.683  0.8259 -0.3336 -0.9886
 7767SOL     OW23878   0.592   5.179   6.290  0.3309 -0.3439 -0.3487
 7767SOL    HW123879   0.629   5.198   6.204  0.7694 -0.1088 -0.1077
 7767SOL    HW223880   0.512   5.231   6.294  0.9760  0.6454 -0.1063
 7768SOL     OW23881   3.681   6.916   0.694 -0.1330  0.2673 -0.1061
 7768SOL    HW123882   3.775   6.924   0.711 -0.1024 -0.6843  0.2332
 7768SOL    HW223883   3.664   6.822   0.696 -1.2911  0.4683  0.9599
 7769SOL     OW23884   8.797   0.549   7.617 -0.1502  0.7950  0.0282
 7769SOL    HW123885   8.722   0.604   7.593 -0.0707  0.7858 -0.2421
 7769SOL    HW223886   8.808   0.490   7.543 -0.7277 -0.1247  0.6586
 7770SOL     OW23887   6.624   7.840   2.417 -0.0620  0.2602  0.3130
 7770SOL    HW123888   6.684   7.842   2.491  1.1479  1.2635 -0.6601
 7770SOL    HW223889   6.680   7.845   2.339 -1.3218 -0.2733 -0.6689
 7771SOL     OW23890   7.671   4.264   1.567 -0.3446  0.2953 -0.0641
 7771SOL    HW123891   7.640   4.183   1.527 -2.0354  1.0524 -0.3706
 7771SOL    HW223892   7.756   4.280   1.527  1.1334 -2.4883  1.6602
 7772SOL     OW23893   6.919   8.570   4.751  0.1988 -0.6324 -0.5125
 7772SOL    HW123894   6.840   8.622   4.734  1.4244  0.9301 -1.7820
 7772SOL    HW223895   6.983   8.603   4.688  1.6260 -2.4370 -0.0796
 7773SOL     OW23896   0.513   0.618   8.111  0.0024  0.1195  0.2596
 7773SOL    HW123897   0.516   0.646   8.202 -1.1109  0.9506  0.0681
 7773SOL    HW223898   0.587   0.558   8.101  1.9897  2.3286  0.9203
 7774SOL     OW23899   4.768   5.038   3.987 -0.1512  0.2304  0.0497
 7774SOL    HW123900   4.725   5.098   3.926 -4.6143 -0.9479  1.6669
 7774SOL    HW223901   4.729   4.953   3.969  2.6845 -1.3652  0.8309
 7775SOL     OW23902   1.458   0.014   6.271 -0.1907  0.4929  0.1217
 7775SOL    HW123903   1.549  -0.006   6.293  0.5408  0.0868 -2.9284
 7775SOL    HW223904   1.453   0.109   6.271  0.1097  0.5143  0.6463
 7776SOL     OW23905   7.739   9.499   7.486 -0.3203 -0.1023  0.8162
 7776SOL    HW123906   7.778   9.479   7.401  0.6477 -0.6141  1.3602
 7776SOL    HW223907   7.814   9.519   7.542 -1.0337  1.4379  1.2433
 7777SOL     OW23908   7.779   5.266   2.690 -0.0765  0.5714  0.1007
 7777SOL    HW123909   7.835   5.241   2.764 -0.1213  1.4739  0.4576
 7777SOL    HW223910   7.692   5.236   2.714 -0.0069  0.4589  0.2127
 7778SOL     OW23911   4.918   8.272   2.294  0.0084 -0.1953 -0.3832
 7778SOL    HW123912   4.979   8.200   2.309  0.0376 -0.2337 -0.6784
 7778SOL    HW223913   4.831   8.232   2.300 -0.0635  0.1837  1.8071
 7779SOL     OW23914   8.408   7.789   9.460 -0.1394 -0.1292  0.4891
 7779SOL    HW123915   8.382   7.768   9.550 -1.0855  1.6686  0.6738
 7779SOL    HW223916   8.458   7.870   9.468  2.7347 -1.6537 -0.2786
 7780SOL     OW23917   0.788   1.927   6.962  0.0054 -0.0087 -0.1295
 7780SOL    HW123918   0.810   1.903   7.052 -0.8456 -1.3665 -0.2524
 7780SOL    HW223919   0.760   2.019   6.968  0.0281 -0.0596  0.9820
 7781SOL     OW23920   7.173   8.103   3.630 -0.3785 -0.4626 -0.2405
 7781SOL    HW123921   7.078   8.116   3.639 -0.4995 -1.1230 -0.5481
 7781SOL    HW223922   7.201   8.073   3.716 -0.6851 -1.6532 -0.5390
 7782SOL     OW23923   6.836   5.605   1.906 -0.4719 -0.0771 -0.3272
 7782SOL    HW123924   6.924   5.587   1.873 -0.2605  0.7336 -0.2211
 7782SOL    HW223925   6.836   5.566   1.994  0.2106  0.9814  0.1717
 7783SOL     OW23926   6.593   3.966   1.179  0.1262 -0.0184 -0.1020
 7783SOL    HW123927   6.529   3.969   1.250  0.7173  0.2832  0.4282
 7783SOL    HW223928   6.582   3.879   1.141  0.7401 -0.7177  1.2489
 7784SOL     OW23929   3.762   3.475   4.667 -0.0975  0.2357 -0.0465
 7784SOL    HW123930   3.838   3.522   4.702 -0.7555 -0.2857  2.2271
 7784SOL    HW223931   3.794   3.386   4.650  0.0141  0.2593  0.0422
 7785SOL     OW23932   5.033   5.827   8.607 -0.0384  0.6775  0.2202
 7785SOL    HW123933   5.075   5.790   8.529  0.1184  0.7725  0.2602
 7785SOL    HW223934   4.994   5.751   8.651  0.5015  0.5264  0.4365
 7786SOL     OW23935   4.748   9.602   0.749 -0.3259  0.2374  0.0133
 7786SOL    HW123936   4.717   9.512   0.739  1.8313 -0.9507  2.6845
 7786SOL    HW223937   4.743   9.619   0.843 -0.0347  2.7013 -0.3508
 7787SOL     OW23938   0.429   4.539   8.739 -0.7761  0.3517 -0.1457
 7787SOL    HW123939   0.507   4.524   8.685 -0.6768  1.6496 -0.4025
 7787SOL    HW223940   0.362   4.566   8.676 -1.1546  0.1892  0.1894
 7788SOL     OW23941   0.729   6.165   1.567  0.4995 -0.3701  0.3685
 7788SOL    HW123942   0.688   6.202   1.645 -0.5317  0.6053 -0.5916
 7788SOL    HW223943   0.710   6.072   1.572  1.0943 -0.4408  1.6428
 7789SOL     OW23944   5.468   0.222   4.662 -0.4780 -0.7196  0.1509
 7789SOL    HW123945   5.522   0.225   4.741  0.4656 -0.2177 -0.5039
 7789SOL    HW223946   5.379   0.240   4.694  0.0095  0.2899  1.0000
 7790SOL     OW23947   4.943   1.733   5.290 -0.7002 -0.0019 -0.0899
 7790SOL    HW123948   4.861   1.736   5.242 -0.3220 -0.7234 -0.8020
 7790SOL    HW223949   5.003   1.685   5.234 -0.5884 -1.9846  1.6108
 7791SOL     OW23950   8.438   1.368   6.183  0.0986 -0.1712 -0.0310
 7791SOL    HW123951   8.344   1.349   6.190  0.0762 -0.4772 -0.9937
 7791SOL    HW223952   8.444   1.440   6.121  0.5351 -0.5960 -0.4976
 7792SOL     OW23953   7.652   5.550   0.116  0.1690 -0.3101  0.3468
 7792SOL    HW123954   7.732   5.497   0.124 -0.0254 -0.8859 -1.1739
 7792SOL    HW223955   7.617   5.553   0.205  2.0074  0.1735  1.0958
 7793SOL     OW23956   6.952   9.814   5.910  0.0441  0.1804 -0.3397
 7793SOL    HW123957   6.996   9.895   5.935  0.3971 -0.1497  0.1334
 7793SOL    HW223958   6.898   9.792   5.986 -1.3093  0.8126 -1.0724
 7794SOL     OW23959   1.269   1.142   4.425 -0.2708  0.0016 -0.0942
 7794SOL    HW123960   1.339   1.140   4.360  1.1838 -0.7760  1.4257
 7794SOL    HW223961   1.200   1.195   4.384 -0.7126 -2.8215 -3.4689
 7795SOL     OW23962   1.332   0.419   0.838  0.0104  0.1897  0.2497
 7795SOL    HW123963   1.396   0.488   0.821 -0.0985  0.1791 -0.2262
 7795SOL    HW223964   1.384   0.339   0.839 -0.2694 -0.1530 -2.7463
 7796SOL     OW23965   8.194   8.843   1.855  0.2540 -0.1007  0.9014
 7796SOL    HW123966   8.145   8.811   1.779  1.0012 -1.9687  1.1588
 7796SOL    HW223967   8.285   8.837   1.828  0.4699  0.6414  1.4385
 7797SOL     OW23968   2.945   8.287   2.623  0.3159 -0.4326 -0.1751
 7797SOL    HW123969   3.017   8.285   2.560  0.1762  0.3126 -0.3739
 7797SOL    HW223970   2.987   8.278   2.708  0.3727 -3.1738 -0.4239
 7798SOL     OW23971   0.931   7.974   2.553 -0.7147 -0.0736  0.1081
 7798SOL    HW123972   0.955   7.889   2.591 -0.8726  0.5075  1.5570
 7798SOL    HW223973   0.939   7.960   2.458  0.0178 -1.4772  0.3389
 7799SOL     OW23974   5.191   9.291   1.595 -0.2725 -0.6715 -0.5362
 7799SOL    HW123975   5.112   9.238   1.591 -0.5139 -0.2507 -2.7331
 7799SOL    HW223976   5.258   9.238   1.552  0.3155 -0.4922  0.1377
 7800SOL     OW23977   8.145   8.861   5.333 -0.0833  0.1319  0.3513
 7800SOL    HW123978   8.108   8.820   5.411  1.3603 -0.0133  0.9868
 7800SOL    HW223979   8.127   8.954   5.344  0.3672  0.1457  1.0064
 7801SOL     OW23980   5.826   9.270   0.423  0.2401  0.0778 -0.0762
 7801SOL    HW123981   5.835   9.288   0.329  0.4534  0.5124  0.0271
 7801SOL    HW223982   5.775   9.343   0.457  0.3754  0.0510  0.1903
 7802SOL     OW23983   5.466   1.057   6.336  0.1577 -0.3796  0.1313
 7802SOL    HW123984   5.551   1.101   6.325 -0.0888 -0.2740 -1.5786
 7802SOL    HW223985   5.412   1.091   6.265 -0.7675 -1.7628  0.1431
 7803SOL     OW23986   4.781   1.528   7.840  0.2065 -0.3654  0.1123
 7803SOL    HW123987   4.719   1.598   7.858 -1.2954 -1.6435  0.0549
 7803SOL    HW223988   4.777   1.516   7.745 -0.3285 -1.1988  0.2255
 7804SOL     OW23989   5.377   1.274   6.618  0.2905  0.2342  0.2085
 7804SOL    HW123990   5.423   1.357   6.601  0.2585  0.0640 -0.8060
 7804SOL    HW223991   5.323   1.260   6.540  0.1835 -0.6715  0.4282
 7805SOL     OW23992   1.955   8.293   2.835 -0.0360  0.5504 -0.2297
 7805SOL    HW123993   1.909   8.240   2.900  1.2924  0.6943  0.8728
 7805SOL    HW223994   1.953   8.382   2.871  0.6356  0.6501 -0.4231
 7806SOL     OW23995   7.960   2.664   8.864  0.4596 -0.2805  0.4040
 7806SOL    HW123996   7.894   2.649   8.797  1.9971 -0.5274 -1.1304
 7806SOL    HW223997   7.925   2.734   8.918 -1.0526 -0.4333 -0.3413
 7807SOL     OW23998   7.705   9.141   6.605 -0.3457  0.0745  0.3421
 7807SOL    HW123999   7.786   9.186   6.629 -0.6665  1.8304 -1.5859
 7807SOL    HW224000   7.662   9.123   6.689  2.5763 -2.1455  1.5125
 7808SOL     OW24001   3.948   1.478   9.709  0.0679 -0.0140  0.1208
 7808SOL    HW124002   3.921   1.509   9.623  0.5319 -0.3763 -0.1633
 7808SOL    HW224003   3.973   1.558   9.757  0.0355  0.1677 -0.1637
 7809SOL     OW24004   5.813   1.102   1.893  0.2178  0.3003  0.2861
 7809SOL    HW124005   5.904   1.082   1.871  0.8824  0.7169  2.4142
 7809SOL    HW224006   5.814   1.195   1.915 -0.5446  0.1153  1.1326
 7810SOL     OW24007   0.612   4.250   9.729 -0.4118 -0.4205  0.2916
 7810SOL    HW124008   0.610   4.266   9.635  1.9161  3.4251  0.6905
 7810SOL    HW224009   0.568   4.326   9.767 -0.3302 -1.3392  2.3530
 7811SOL     OW24010   7.519   6.528   1.733  0.3918 -0.1056  0.4572
 7811SOL    HW124011   7.563   6.569   1.659  2.4311 -1.2597  0.9582
 7811SOL    HW224012   7.433   6.503   1.700  1.1923 -0.4377 -1.4792
 7812SOL     OW24013   3.579   4.312   8.760  0.2319 -0.1219  0.7284
 7812SOL    HW124014   3.528   4.339   8.836 -0.1780 -0.4594  0.5759
 7812SOL    HW224015   3.625   4.392   8.732 -2.8001  1.1452 -1.1935
 7813SOL     OW24016   1.370   8.871   0.443  0.3277  0.8464  0.0834
 7813SOL    HW124017   1.403   8.890   0.531  0.7836  1.1812 -0.1584
 7813SOL    HW224018   1.369   8.956   0.399 -2.6886  1.2443  0.6767
 7814SOL     OW24019   7.314   6.252   6.593  0.8076  0.0311 -0.1941
 7814SOL    HW124020   7.268   6.169   6.590  2.2081 -0.8074  0.4670
 7814SOL    HW224021   7.369   6.253   6.514 -0.4343  1.1192 -1.0951
 7815SOL     OW24022   9.172   7.461   6.551  0.3631 -0.0519 -0.6508
 7815SOL    HW124023   9.187   7.471   6.645 -3.9069 -1.0330  0.3603
 7815SOL    HW224024   9.167   7.551   6.518  0.4251  0.3354  0.3514
 7816SOL     OW24025   1.230   5.652   5.888 -0.1139 -0.7350  0.8397
 7816SOL    HW124026   1.236   5.682   5.978  1.3489  1.2082  0.1568
 7816SOL    HW224027   1.304   5.693   5.843 -1.4601 -0.6909 -1.5147
 7817SOL     OW24028   1.892   9.903   2.110 -0.5717 -0.4633 -0.1361
 7817SOL    HW124029   1.937   9.823   2.137  1.5740  0.8295  0.3226
 7817SOL    HW224030   1.880   9.952   2.191 -1.2621 -0.0134 -0.5058
 7818SOL     OW24031   0.991   0.085   5.172  1.0199  0.4713  0.4420
 7818SOL    HW124032   0.907   0.131   5.185  1.1035  0.9672 -0.6518
 7818SOL    HW224033   1.045   0.114   5.245 -0.0253 -0.5161  1.6459
 7819SOL     OW24034   5.673   5.666   8.287  0.2531  0.5545  0.2549
 7819SOL    HW124035   5.744   5.617   8.246  0.0031 -0.2498  0.7527
 7819SOL    HW224036   5.670   5.633   8.377 -1.5367 -0.3758 -0.0790
 7820SOL     OW24037   5.936   1.366   8.523 -0.1753 -0.2429  0.5639
 7820SOL    HW124038   6.009   1.378   8.463 -0.6956 -0.6017 -0.1482
 7820SOL    HW224039   5.934   1.272   8.539 -0.2255 -0.1842  0.9114
 7821SOL     OW24040   2.178   0.476   5.309 -0.1450  0.2676  0.1185
 7821SOL    HW124041   2.159   0.553   5.363 -1.8288 -0.6974  1.0126
 7821SOL    HW224042   2.176   0.508   5.219 -1.6292  1.1594  0.4282
 7822SOL     OW24043   8.085   0.060   2.921 -0.7225 -0.6956  0.6548
 7822SOL    HW124044   8.176   0.080   2.902 -0.9280  0.1977  0.6026
 7822SOL    HW224045   8.036   0.096   2.848 -1.1010 -1.4777  0.5072
 7823SOL     OW24046   8.910   3.477   0.574  0.7711 -0.3882  0.4250
 7823SOL    HW124047   8.967   3.518   0.509 -0.2645 -0.4344 -0.5382
 7823SOL    HW224048   8.947   3.503   0.658  1.4737  0.6177 -0.1763
 7824SOL     OW24049   9.957   3.748   2.035  0.2443  0.3301  0.0597
 7824SOL    HW124050  10.046   3.781   2.025 -1.0202  3.7155 -1.8079
 7824SOL    HW224051   9.936   3.763   2.127  0.7127  2.3274 -0.1095
 7825SOL     OW24052   6.009   5.884   0.462  0.5893  0.0140  0.7007
 7825SOL    HW124053   5.939   5.841   0.511 -0.4519 -0.0399 -0.7582
 7825SOL    HW224054   6.088   5.836   0.486  0.1544  0.0906  2.4012
 7826SOL     OW24055   3.749   7.768   3.425  0.5015 -0.5588 -0.3639
 7826SOL    HW124056   3.679   7.716   3.464  0.6237 -1.6190 -1.4924
 7826SOL    HW224057   3.789   7.814   3.499 -0.4042 -1.1189  0.4990
 7827SOL     OW24058   3.074   9.510   9.402  0.4893 -0.0466  0.2049
 7827SOL    HW124059   3.156   9.470   9.429 -0.0338 -0.3299  1.4245
 7827SOL    HW224060   3.048   9.565   9.476  0.0557  0.7990 -0.5474
 7828SOL     OW24061   9.180   7.198   0.769 -0.4649 -0.0493 -0.7427
 7828SOL    HW124062   9.143   7.271   0.820  3.1524  0.2678  1.8466
 7828SOL    HW224063   9.252   7.238   0.720  0.2172 -1.5026 -0.9703
 7829SOL     OW24064   8.323   9.178   1.464 -0.2607 -0.2224  0.0325
 7829SOL    HW124065   8.388   9.204   1.529 -1.0831 -0.4089  0.9530
 7829SOL    HW224066   8.330   9.244   1.396  0.2870  0.2601  0.5419
 7830SOL     OW24067   6.104   6.687   2.159  0.2372  0.1881  0.3339
 7830SOL    HW124068   6.009   6.679   2.147  0.3979 -1.5520 -0.1152
 7830SOL    HW224069   6.117   6.776   2.191 -1.6682  0.0993  1.5211
 7831SOL     OW24070   3.534   7.059   6.490  0.3902 -0.6798  0.0625
 7831SOL    HW124071   3.487   7.047   6.408  2.2066  0.3947 -1.1971
 7831SOL    HW224072   3.467   7.089   6.552 -0.5804  1.0509 -1.7184
 7832SOL     OW24073   7.030   1.562   1.743  0.6235  0.1658  0.3839
 7832SOL    HW124074   7.047   1.655   1.727 -1.3943  0.3036 -1.4400
 7832SOL    HW224075   7.068   1.518   1.667 -1.0960 -0.1436 -0.3364
 7833SOL     OW24076   1.091   2.067   9.174  0.4297 -0.1021  0.1402
 7833SOL    HW124077   1.058   1.987   9.215  0.8354 -1.1241 -1.4322
 7833SOL    HW224078   1.186   2.063   9.187  0.3487  0.8475  1.2335
 7834SOL     OW24079   6.780   3.014   5.828 -0.1398  0.3538 -0.2872
 7834SOL    HW124080   6.778   2.989   5.736  2.5523 -1.2817 -0.0095
 7834SOL    HW224081   6.746   2.938   5.874 -0.2871  0.6689  0.1287
 7835SOL     OW24082   2.506   6.156   2.435 -0.0571  0.2856 -0.4721
 7835SOL    HW124083   2.484   6.249   2.444 -0.6391  0.3317 -2.1493
 7835SOL    HW224084   2.442   6.111   2.491 -0.7346  0.7933 -0.8288
 7836SOL     OW24085   2.281   1.644   3.513  0.1888 -0.2632  0.2649
 7836SOL    HW124086   2.247   1.689   3.435  1.2943  1.4926  0.7439
 7836SOL    HW224087   2.220   1.667   3.583  0.4990  0.1204  0.4117
 7837SOL     OW24088   0.731   5.434   6.267  0.0304  0.2827  0.2501
 7837SOL    HW124089   0.640   5.447   6.293 -0.1018 -1.4425  0.7577
 7837SOL    HW224090   0.734   5.467   6.177 -1.5844 -1.2931 -0.4487
 7838SOL     OW24091   9.678   1.914   7.219 -0.3234  0.0460 -0.1164
 7838SOL    HW124092   9.596   1.917   7.171 -0.0176  1.0428 -0.5987
 7838SOL    HW224093   9.723   1.836   7.186  0.9450  1.9398 -3.3021
 7839SOL     OW24094   4.266   8.166   3.385 -0.5684  0.0723 -0.2170
 7839SOL    HW124095   4.171   8.177   3.389 -0.5298  0.0378  2.3029
 7839SOL    HW224096   4.300   8.252   3.359 -1.2445  0.0482 -1.2619
 7840SOL     OW24097   8.426   6.585   4.143  0.2647  0.5701 -0.0753
 7840SOL    HW124098   8.389   6.519   4.084  0.6663  1.4658 -1.3792
 7840SOL    HW224099   8.365   6.658   4.138 -1.6136 -0.5392  3.3705
 7841SOL     OW24100   2.380   4.849   7.954  0.2294 -0.3114  0.5546
 7841SOL    HW124101   2.375   4.823   7.862  1.2412 -1.6758  0.8384
 7841SOL    HW224102   2.455   4.908   7.959  0.0008 -0.0124  0.4598
 7842SOL     OW24103   7.450   2.149   3.839 -0.0504 -0.5739  0.3419
 7842SOL    HW124104   7.450   2.244   3.836  0.1597 -0.5558  0.8105
 7842SOL    HW224105   7.439   2.128   3.932 -0.4745 -1.0062  0.1970
 7843SOL     OW24106   0.454   1.015   4.709 -0.0419 -0.0892  0.5937
 7843SOL    HW124107   0.388   0.971   4.656 -1.0915 -0.1670  1.9282
 7843SOL    HW224108   0.512   1.057   4.645  0.0806 -2.0793 -0.6662
 7844SOL     OW24109   3.394   8.405   4.076  0.0237  0.6393  0.1453
 7844SOL    HW124110   3.372   8.438   3.989  2.0807  1.7502 -0.0127
 7844SOL    HW224111   3.486   8.379   4.069 -0.3709 -1.3565  1.4170
 7845SOL     OW24112   5.415   4.419   2.885 -0.3408 -0.5907  0.0128
 7845SOL    HW124113   5.446   4.363   2.957 -0.9995  0.5800  1.2368
 7845SOL    HW224114   5.491   4.473   2.863 -0.6671  0.3400  1.1146
 7846SOL     OW24115   0.120   1.129   7.897 -0.6533 -0.1320 -0.2315
 7846SOL    HW124116   0.173   1.208   7.890 -0.9474 -0.0263 -1.6380
 7846SOL    HW224117   0.090   1.113   7.808 -0.3431 -2.0126 -0.0433
 7847SOL     OW24118   9.477   1.007   4.674 -0.2633  1.0080 -0.6499
 7847SOL    HW124119   9.438   1.077   4.622  0.5188  0.5999 -1.8317
 7847SOL    HW224120   9.466   0.928   4.621  0.5017  0.5646 -0.1736
 7848SOL     OW24121   5.753   9.020   2.544  0.3167 -0.4987 -0.2737
 7848SOL    HW124122   5.775   8.993   2.455  0.7615  0.8142 -0.5739
 7848SOL    HW224123   5.716   8.941   2.584  2.2730 -1.8051 -0.8669
 7849SOL     OW24124   6.233   9.267   0.464  0.3936 -0.2283 -0.4838
 7849SOL    HW124125   6.229   9.176   0.435 -2.0175 -0.0570 -0.8762
 7849SOL    HW224126   6.261   9.262   0.556 -0.6827 -1.4528 -0.1988
 7850SOL     OW24127   7.709   7.769   3.348  0.6907 -0.2386  0.0306
 7850SOL    HW124128   7.654   7.712   3.295 -0.0896 -0.3393  0.9378
 7850SOL    HW224129   7.795   7.766   3.305  1.3162 -3.7836  1.2216
 7851SOL     OW24130   9.905   9.603   9.624 -0.3432  0.4527  0.0707
 7851SOL    HW124131   9.962   9.544   9.576 -0.0450  1.3492 -0.7160
 7851SOL    HW224132   9.861   9.548   9.689 -1.1015 -0.9003 -1.5214
 7852SOL     OW24133   2.599   2.907   2.965 -0.3807  0.4183 -0.5613
 7852SOL    HW124134   2.632   2.953   2.888 -1.8858  2.1523 -0.2469
 7852SOL    HW224135   2.665   2.921   3.032  0.2632  0.1135 -1.1221
 7853SOL     OW24136   3.420   7.077   5.639 -0.2421  0.1849  0.4158
 7853SOL    HW124137   3.508   7.062   5.604 -0.7091 -0.9087 -0.3617
 7853SOL    HW224138   3.433   7.138   5.711  1.4786 -1.7147  1.8480
 7854SOL     OW24139   8.562   3.519   2.392  0.6136 -0.0577 -0.1506
 7854SOL    HW124140   8.647   3.526   2.434  0.3511 -2.3293  0.8936
 7854SOL    HW224141   8.502   3.565   2.450  0.9516  0.6543 -0.3588
 7855SOL     OW24142   8.304   7.462   3.897 -0.6157  0.0320  0.1191
 7855SOL    HW124143   8.378   7.427   3.848 -0.5381 -2.5095  1.8736
 7855SOL    HW224144   8.343   7.522   3.960 -0.3180  0.4114 -0.4154
 7856SOL     OW24145   8.845   9.314   8.478 -0.8275 -0.0899  0.2749
 7856SOL    HW124146   8.838   9.227   8.517  1.8573  0.6154  2.6683
 7856SOL    HW224147   8.814   9.373   8.547 -0.2517  0.9923 -0.3639
 7857SOL     OW24148   0.891   6.605   2.579 -0.1654 -0.5042 -0.5969
 7857SOL    HW124149   0.902   6.691   2.538  0.2801  0.6579  1.8193
 7857SOL    HW224150   0.796   6.599   2.595 -0.0710  0.0956  0.2846
 7858SOL     OW24151   9.666   7.442   7.513 -0.1833 -0.2558 -0.4142
 7858SOL    HW124152   9.753   7.411   7.488  0.2586  0.3566  0.2983
 7858SOL    HW224153   9.683   7.525   7.559 -1.2400  0.5104 -1.3659
 7859SOL     OW24154   6.154   3.617   6.794 -0.3852 -0.6398  0.0546
 7859SOL    HW124155   6.247   3.627   6.812 -0.6785  2.0526  0.4147
 7859SOL    HW224156   6.150   3.565   6.713  1.3794 -1.2351  0.3167
 7860SOL     OW24157   9.795   3.015   5.078  0.3851  0.3029 -0.2563
 7860SOL    HW124158   9.777   2.922   5.090  3.6615 -0.1416  3.0435
 7860SOL    HW224159   9.857   3.037   5.147  0.6052  4.7637 -1.5194
 7861SOL     OW24160   7.093   4.025   7.931 -0.0888  0.0891 -0.7306
 7861SOL    HW124161   7.100   4.112   7.892 -1.4975  0.3982 -0.3525
 7861SOL    HW224162   7.087   3.966   7.856 -1.4426  0.5523 -1.0138
 7862SOL     OW24163   6.574   3.384   9.812 -0.2374 -0.1290  0.4553
 7862SOL    HW124164   6.665   3.382   9.783 -0.1652  0.0719  0.6653
 7862SOL    HW224165   6.576   3.433   9.894 -0.4734 -0.5059  0.6877
 7863SOL     OW24166   8.766   0.112   3.757  0.1629 -0.4967  0.2541
 7863SOL    HW124167   8.707   0.043   3.728 -0.9921  0.2497  0.7616
 7863SOL    HW224168   8.827   0.069   3.816 -0.7492 -1.0433  0.8270
 7864SOL     OW24169   8.286   9.988   0.287 -0.1233  0.6217 -0.6371
 7864SOL    HW124170   8.380   9.971   0.294  0.0115  1.6503  0.4893
 7864SOL    HW224171   8.264   9.969   0.196  0.2513 -4.0166 -0.0026
 7865SOL     OW24172   9.403   3.990   7.084 -0.5988 -0.0719  0.6003
 7865SOL    HW124173   9.446   3.916   7.127 -1.2194 -0.7285  0.1130
 7865SOL    HW224174   9.368   3.953   7.003  1.5852  1.4028 -1.1225
 7866SOL     OW24175   8.889   4.553   0.984 -0.3826 -0.2500  0.6672
 7866SOL    HW124176   8.961   4.523   1.041 -1.9107 -2.5540  1.5334
 7866SOL    HW224177   8.853   4.472   0.946 -2.0211  0.9033 -0.3513
 7867SOL     OW24178   6.615   7.172   9.660  0.0854 -0.1258  0.2665
 7867SOL    HW124179   6.673   7.168   9.736 -0.3112  1.1601  0.6636
 7867SOL    HW224180   6.594   7.081   9.641  1.3659 -0.5507  0.7858
 7868SOL     OW24181   9.586   1.861   2.970  0.4157  0.3452 -0.2675
 7868SOL    HW124182   9.513   1.889   2.915  0.9129  2.2409 -0.0274
 7868SOL    HW224183   9.544   1.818   3.045 -0.7774  3.9564  1.3780
 7869SOL     OW24184   4.371   5.910   7.591  0.2766 -0.7558 -0.1840
 7869SOL    HW124185   4.277   5.910   7.611  0.1353 -1.0690 -0.8480
 7869SOL    HW224186   4.413   5.907   7.677 -0.3120  0.0852  0.1497
 7870SOL     OW24187   9.948   3.706   9.685  0.4538 -0.4614  0.6037
 7870SOL    HW124188  10.038   3.726   9.710  1.2516  0.1468 -2.3851
 7870SOL    HW224189   9.955   3.631   9.626 -1.1056 -0.8695  0.8956
 7871SOL     OW24190   8.220   2.298   2.517  0.0773 -0.2139  0.0151
 7871SOL    HW124191   8.227   2.341   2.432  0.6303  0.8155  0.5585
 7871SOL    HW224192   8.306   2.261   2.533 -0.3758 -1.5056 -0.4149
 7872SOL     OW24193   4.130   9.662   0.282  0.5392  0.2834 -0.1160
 7872SOL    HW124194   4.199   9.680   0.346 -0.1216  1.8449  0.2179
 7872SOL    HW224195   4.103   9.749   0.251 -3.0386  0.0115  1.6889
 7873SOL     OW24196   8.626   8.892   4.681 -0.0813  0.3713  0.2022
 7873SOL    HW124197   8.559   8.860   4.621 -1.9927  1.4291  1.6463
 7873SOL    HW224198   8.704   8.841   4.660 -1.0908 -0.3375 -2.1169
 7874SOL     OW24199   3.259   9.781   4.907 -0.1727  0.2908 -0.2269
 7874SOL    HW124200   3.264   9.712   4.972 -0.9980 -0.8630 -1.3390
 7874SOL    HW224201   3.302   9.856   4.948  0.3834 -0.7472  1.1612
 7875SOL     OW24202   9.554   3.121   4.200  0.0047 -0.4453 -0.0513
 7875SOL    HW124203   9.551   3.138   4.106 -1.5981  1.1600  0.2469
 7875SOL    HW224204   9.531   3.204   4.241 -1.5843 -1.6518  1.7040
 7876SOL     OW24205   3.684   5.751   1.126 -0.0512  0.1448 -0.5113
 7876SOL    HW124206   3.611   5.741   1.065 -1.1377 -2.0147  0.9616
 7876SOL    HW224207   3.642   5.755   1.212  1.4262  2.7311  0.2176
 7877SOL     OW24208   9.048   5.828   7.955 -0.3829 -0.1232 -0.1731
 7877SOL    HW124209   9.021   5.920   7.959  0.0438 -0.0390  0.8456
 7877SOL    HW224210   9.038   5.795   8.044  3.9140  0.2055  0.6429
 7878SOL     OW24211   2.823   1.044   5.783 -0.1036  0.0427  0.0953
 7878SOL    HW124212   2.755   1.033   5.717  0.2595 -0.7541 -0.1494
 7878SOL    HW224213   2.819   1.137   5.806 -0.1594  0.3535 -1.1259
 7879SOL     OW24214   5.305   4.139   2.132 -0.0258  0.3534 -0.2645
 7879SOL    HW124215   5.322   4.050   2.162  0.5712  0.4045 -0.4287
 7879SOL    HW224216   5.355   4.194   2.192  1.5643  0.4321 -1.5795
 7880SOL     OW24217   1.077   3.725   6.606 -0.7395  0.1075  0.9056
 7880SOL    HW124218   1.164   3.760   6.585 -0.2346 -1.4727  0.1390
 7880SOL    HW224219   1.025   3.741   6.527 -0.9612  0.4753  1.1235
 7881SOL     OW24220   9.392   4.659   6.138  0.3490 -0.4026  0.1218
 7881SOL    HW124221   9.344   4.739   6.119  0.6623  0.0751  1.2445
 7881SOL    HW224222   9.362   4.633   6.225  0.6742 -1.1849  0.0080
 7882SOL     OW24223   7.504   9.490   6.600 -0.3323 -0.2598  0.3083
 7882SOL    HW124224   7.567   9.463   6.533  0.0583  0.5305  0.3362
 7882SOL    HW224225   7.528   9.581   6.620  2.2995 -1.5632  4.4994
 7883SOL     OW24226   4.366   8.384   1.143 -0.9035 -0.1587  0.3715
 7883SOL    HW124227   4.419   8.437   1.084  0.0179 -1.1804  0.2542
 7883SOL    HW224228   4.422   8.369   1.219 -1.3077 -0.6211  0.5869
 7884SOL     OW24229   0.632   0.912   9.918 -0.4396  0.0824 -0.0440
 7884SOL    HW124230   0.595   0.895  10.005 -1.4795  0.0634 -0.4809
 7884SOL    HW224231   0.626   0.829   9.872 -1.8349  0.5798 -0.8268
 7885SOL     OW24232   8.756   3.388   9.467  0.1558 -0.6815  0.1033
 7885SOL    HW124233   8.823   3.440   9.422  1.7677 -0.1895  2.8544
 7885SOL    HW224234   8.755   3.304   9.420 -1.3970  1.1243 -3.4513
 7886SOL     OW24235   0.707   5.340   4.807  0.3448  0.3568  0.0047
 7886SOL    HW124236   0.785   5.334   4.863 -0.9959  0.1514  1.9453
 7886SOL    HW224237   0.659   5.259   4.825 -0.7613  0.8938 -0.4645
 7887SOL     OW24238   2.311   0.353   1.169  0.3949 -0.2071 -0.0419
 7887SOL    HW124239   2.323   0.351   1.074 -1.6949 -1.2144 -0.3246
 7887SOL    HW224240   2.219   0.376   1.182  0.8521  0.8545  1.7870
 7888SOL     OW24241   6.051   4.963   0.493 -0.1149  0.3942 -0.0963
 7888SOL    HW124242   6.102   4.917   0.427  0.1148  0.6048 -0.0700
 7888SOL    HW224243   6.108   5.036   0.520  0.0890 -0.1047  0.8526
 7889SOL     OW24244   1.697   4.479   4.419  0.0059  0.2972 -0.2962
 7889SOL    HW124245   1.646   4.515   4.347  0.5386  1.1797 -0.2442
 7889SOL    HW224246   1.777   4.531   4.421  0.2521 -0.0881  0.5738
 7890SOL     OW24247   2.141   0.883   5.598  0.2653 -0.1867 -0.5004
 7890SOL    HW124248   2.215   0.943   5.589 -0.5657  1.4541  2.3309
 7890SOL    HW224249   2.139   0.862   5.691 -2.0870 -1.1497 -0.7137
 7891SOL     OW24250   6.593   3.075   1.425  0.2538 -0.2891 -0.1754
 7891SOL    HW124251   6.607   3.167   1.404 -1.6462 -0.0423 -0.5548
 7891SOL    HW224252   6.532   3.076   1.499 -1.4254 -1.2230 -1.4845
 7892SOL     OW24253   9.947   6.546   6.901  0.1132 -0.0633 -0.4581
 7892SOL    HW124254   9.946   6.451   6.914  2.4680 -0.2142 -1.0019
 7892SOL    HW224255   9.996   6.580   6.976 -0.2624  0.6972 -0.5467
 7893SOL     OW24256   1.270   6.580   8.383 -0.3813 -0.4578  0.2772
 7893SOL    HW124257   1.290   6.672   8.402  0.7841 -0.6351  0.0046
 7893SOL    HW224258   1.205   6.584   8.312 -1.7470  0.1486  1.5026
 7894SOL     OW24259   7.559   2.083   8.348  0.5714 -0.2511 -0.5108
 7894SOL    HW124260   7.602   2.147   8.405 -1.2576  0.1442  0.5069
 7894SOL    HW224261   7.629   2.022   8.325  1.5769 -0.0098  1.5782
 7895SOL     OW24262   7.873   7.785   8.247 -0.1164  0.2059 -0.1419
 7895SOL    HW124263   7.796   7.731   8.265 -0.8006  1.5754  1.3600
 7895SOL    HW224264   7.838   7.860   8.199  0.1481  1.0987  1.0144
 7896SOL     OW24265   8.707   8.392   3.612 -0.0770  0.2105 -0.0314
 7896SOL    HW124266   8.782   8.423   3.561 -1.5226  2.2535 -1.0521
 7896SOL    HW224267   8.695   8.301   3.584  0.0424  0.8434 -2.3158
 7897SOL     OW24268   5.895   3.065   6.868 -0.0541 -0.3464  0.0843
 7897SOL    HW124269   5.902   2.983   6.916  2.0275  1.5907  3.5062
 7897SOL    HW224270   5.978   3.073   6.822 -0.9972 -0.9300 -1.8307
 7898SOL     OW24271   3.523   9.718   4.692 -0.8252 -0.8691 -0.0214
 7898SOL    HW124272   3.519   9.811   4.715 -1.3988 -0.9026  0.0357
 7898SOL    HW224273   3.582   9.714   4.617 -0.0912 -0.5753  0.5372
 7899SOL     OW24274   8.860   7.046   9.754 -0.0283 -0.4553  0.1885
 7899SOL    HW124275   8.778   6.999   9.742 -0.2542 -0.7104  2.3794
 7899SOL    HW224276   8.833   7.136   9.775  0.3079 -0.1326 -0.7359
 7900SOL     OW24277   2.347   3.308   9.902  0.3608 -0.3592 -0.2001
 7900SOL    HW124278   2.267   3.293   9.952 -0.0387  0.8247 -0.4498
 7900SOL    HW224279   2.377   3.394   9.931  1.7112 -0.9074  0.0994
 7901SOL     OW24280   3.693   0.066   7.931  0.5624  0.4581 -0.1396
 7901SOL    HW124281   3.762   0.082   7.995  0.3645  1.0895 -0.0835
 7901SOL    HW224282   3.625   0.129   7.953 -0.3579 -0.6296  0.2688
 7902SOL     OW24283   2.896   1.529   7.703  0.0054 -0.2632 -0.3485
 7902SOL    HW124284   2.916   1.622   7.718  1.9974 -0.6767 -0.2118
 7902SOL    HW224285   2.830   1.530   7.633  0.2515  1.2288 -0.6057
 7903SOL     OW24286   6.972   8.604   7.613 -1.2196  0.0660  0.7242
 7903SOL    HW124287   7.065   8.593   7.594 -0.5135  2.6619  2.2059
 7903SOL    HW224288   6.937   8.515   7.611  1.0770 -0.9209 -0.7250
 7904SOL     OW24289   8.878   8.213   2.313  0.0150  0.0701 -0.1182
 7904SOL    HW124290   8.907   8.122   2.307  0.9546  0.3628 -0.3021
 7904SOL    HW224291   8.795   8.210   2.361  1.1439 -0.6838  1.9141
 7905SOL     OW24292   5.761   9.740   3.792  0.2712 -0.2520 -0.6962
 7905SOL    HW124293   5.797   9.755   3.705 -0.5051  0.6330 -0.8786
 7905SOL    HW224294   5.744   9.827   3.827  1.2669 -0.5804  0.6507
 7906SOL     OW24295   0.832   8.338   4.910  0.5154  0.1349  0.1585
 7906SOL    HW124296   0.806   8.289   4.988  0.2458 -0.4846 -0.3061
 7906SOL    HW224297   0.925   8.318   4.899  0.4045 -0.2812 -0.0332
 7907SOL     OW24298   8.866   7.536   4.531  0.2186 -0.1084 -0.4895
 7907SOL    HW124299   8.921   7.612   4.548  0.0134  0.5838 -2.5659
 7907SOL    HW224300   8.882   7.477   4.605  0.1796  2.0362  1.3190
 7908SOL     OW24301   1.233   3.586   3.188  0.2015 -0.1016 -0.0833
 7908SOL    HW124302   1.146   3.602   3.151 -0.2883  0.6822  1.3147
 7908SOL    HW224303   1.253   3.495   3.165 -0.1653  0.2642 -1.9843
 7909SOL     OW24304   1.992   3.404   0.751 -0.0449  0.0337  0.1575
 7909SOL    HW124305   1.970   3.436   0.839  0.4676 -0.0426  0.3118
 7909SOL    HW224306   2.086   3.390   0.753 -0.2283 -1.2917  0.0175
 7910SOL     OW24307   8.792   3.748   5.392 -0.2852  0.2856  0.3346
 7910SOL    HW124308   8.861   3.687   5.416  0.4208  0.3457 -1.3670
 7910SOL    HW224309   8.836   3.832   5.378 -1.1225  1.0133  1.8446
 7911SOL     OW24310   4.646   5.118   2.364 -0.2632 -0.2332 -0.5645
 7911SOL    HW124311   4.703   5.127   2.287 -0.2610 -0.2525 -0.5648
 7911SOL    HW224312   4.557   5.119   2.328 -0.2592 -0.3344 -0.5750
 7912SOL     OW24313   2.330   5.069   3.496 -0.1990  0.0305 -0.1299
 7912SOL    HW124314   2.390   5.035   3.562 -1.1259  1.2122  1.3836
 7912SOL    HW224315   2.380   5.137   3.451  0.2068 -0.2833 -0.1607
 7913SOL     OW24316   9.608   4.978   7.690 -0.7245  0.3310 -1.2514
 7913SOL    HW124317   9.605   4.941   7.779 -0.3214  1.5181 -0.7287
 7913SOL    HW224318   9.666   4.919   7.642  0.6702  0.7800 -0.1842
 7914SOL     OW24319   7.134   8.775   6.877  0.1143  0.9683 -0.2116
 7914SOL    HW124320   7.058   8.807   6.828  0.2418  2.1861  0.3361
 7914SOL    HW224321   7.118   8.682   6.887 -0.6327  0.9603 -1.2879
 7915SOL     OW24322   7.241   7.701   3.277  0.4640 -0.3637 -0.2768
 7915SOL    HW124323   7.147   7.711   3.293  0.4590  0.9870 -0.9769
 7915SOL    HW224324   7.268   7.786   3.242  2.1332 -0.4140  0.7722
 7916SOL     OW24325   8.706   4.295   9.746  0.1624  0.4472 -0.5521
 7916SOL    HW124326   8.694   4.389   9.730  1.2933  0.6865 -0.1108
 7916SOL    HW224327   8.646   4.275   9.818  0.3286  0.9675 -0.2642
 7917SOL     OW24328   9.618   5.674   9.513 -0.1872 -0.0925 -0.5632
 7917SOL    HW124329   9.647   5.764   9.498  0.5201 -0.2587 -0.2389
 7917SOL    HW224330   9.540   5.683   9.567 -1.2819  0.3959 -2.1617
 7918SOL     OW24331   4.714   8.342   6.556  0.1913  0.5386 -0.2581
 7918SOL    HW124332   4.649   8.408   6.535 -1.7214 -1.0402  0.3982
 7918SOL    HW224333   4.798   8.381   6.529 -1.0629  2.3534 -1.7859
 7919SOL     OW24334   7.721   9.949   3.041 -0.5461  0.0578 -0.8755
 7919SOL    HW124335   7.766   9.864   3.039 -0.3537  0.1721 -1.4700
 7919SOL    HW224336   7.780  10.006   3.089 -1.6423 -0.6775  1.5101
 7920SOL     OW24337   6.203   0.086   4.155 -0.3952  0.3582 -0.3739
 7920SOL    HW124338   6.235   0.160   4.104 -0.2078  1.1391  0.8179
 7920SOL    HW224339   6.275   0.064   4.214 -0.3163 -1.0290 -0.9585
 7921SOL     OW24340   3.621   3.389   9.028 -0.5387  0.6865 -1.0468
 7921SOL    HW124341   3.545   3.384   8.969 -0.8947 -1.7572 -0.4814
 7921SOL    HW224342   3.585   3.425   9.109 -1.7028 -2.2596 -0.0916
 7922SOL     OW24343   9.172   6.350   0.843  0.5480  0.6961 -0.4620
 7922SOL    HW124344   9.140   6.440   0.834  0.9429  0.7137 -2.0376
 7922SOL    HW224345   9.098   6.300   0.875  0.8669  1.9181  2.4180
 7923SOL     OW24346   2.883   6.803   2.660 -0.0478  0.2133  0.4627
 7923SOL    HW124347   2.816   6.863   2.628 -1.6271 -0.7242  1.8806
 7923SOL    HW224348   2.923   6.767   2.580 -0.7326  1.3073 -0.3994
 7924SOL     OW24349   3.633   7.130   7.806  0.0103 -0.0242 -0.0989
 7924SOL    HW124350   3.630   7.067   7.733 -1.9698 -0.1000 -0.0088
 7924SOL    HW224351   3.606   7.079   7.882 -0.1798  0.5923  0.2487
 7925SOL     OW24352   0.643   9.261   8.140 -0.5437  0.6683  0.1591
 7925SOL    HW124353   0.731   9.296   8.126 -0.6255  1.1143  0.7246
 7925SOL    HW224354   0.650   9.168   8.117  0.4996  0.2972  1.7974
 7926SOL     OW24355   3.018   4.291   6.693 -0.0582 -0.8212 -0.1761
 7926SOL    HW124356   3.111   4.281   6.714 -0.3967 -0.7276  1.4798
 7926SOL    HW224357   3.002   4.225   6.626  1.1489 -0.9978 -0.3175
 7927SOL     OW24358   3.469   5.109   2.891  0.2382  0.1664  0.0001
 7927SOL    HW124359   3.385   5.091   2.851 -0.0550  1.6464 -0.1110
 7927SOL    HW224360   3.472   5.204   2.900  1.0065  0.0132  1.9326
 7928SOL     OW24361   9.794   5.057   6.500 -0.3082  0.2698  0.0627
 7928SOL    HW124362   9.881   5.064   6.539  0.3780  0.1677 -1.3541
 7928SOL    HW224363   9.808   5.079   6.408 -1.8693  0.6578 -0.1011
 7929SOL     OW24364   0.171   6.196   9.349 -0.8236  0.1771  0.5134
 7929SOL    HW124365   0.246   6.232   9.396 -1.6175 -0.2319  2.1566
 7929SOL    HW224366   0.121   6.273   9.320  1.0226  0.5300 -2.1094
 7930SOL     OW24367   8.610   0.516   6.160 -0.1877  0.3988 -0.0783
 7930SOL    HW124368   8.547   0.443   6.162  0.7863 -0.4474  1.5994
 7930SOL    HW224369   8.563   0.588   6.202 -0.3741  0.0546  0.3162
 7931SOL     OW24370   5.629   9.545   8.209  0.0645 -0.2727  0.7050
 7931SOL    HW124371   5.640   9.637   8.232  1.3627 -0.8366  2.6163
 7931SOL    HW224372   5.690   9.499   8.267  0.5799 -2.2208 -1.2485
 7932SOL     OW24373   3.282   8.582   1.259  0.7896  0.0684 -0.3178
 7932SOL    HW124374   3.199   8.582   1.212  1.6962 -3.1115 -2.2543
 7932SOL    HW224375   3.258   8.577   1.351 -1.2691 -2.2180 -0.8873
 7933SOL     OW24376   7.447   3.039   0.271 -0.1084  0.0008 -0.5142
 7933SOL    HW124377   7.404   2.967   0.224  1.4321 -0.7377 -0.8717
 7933SOL    HW224378   7.538   3.034   0.242  0.0443  2.0769 -0.4900
 7934SOL     OW24379   9.082   9.055   2.048  0.1785 -0.4670  0.6650
 7934SOL    HW124380   9.161   9.051   2.102 -0.1696  0.2468  1.2482
 7934SOL    HW224381   9.017   9.005   2.098  0.3593 -1.3966 -0.0085
 7935SOL     OW24382   4.959   0.995   5.571 -0.4762 -0.2601  0.0089
 7935SOL    HW124383   4.873   0.954   5.568 -0.4415 -0.3468  0.1534
 7935SOL    HW224384   5.004   0.962   5.493 -1.0096  0.7801 -0.7735
 7936SOL     OW24385   0.744   0.971   9.024  0.1039 -0.2031 -0.0862
 7936SOL    HW124386   0.791   1.046   8.988 -0.9819  0.4348 -0.1842
 7936SOL    HW224387   0.708   0.926   8.948 -2.0252  1.0377  0.1297
 7937SOL     OW24388   5.526   0.356   7.118 -0.6443  0.7777 -0.6248
 7937SOL    HW124389   5.531   0.448   7.090 -0.9696  0.9293 -0.2100
 7937SOL    HW224390   5.593   0.348   7.186 -0.1691  0.5341 -1.1218
 7938SOL     OW24391   2.104   4.096   4.105 -0.4400  0.4698  0.1738
 7938SOL    HW124392   2.138   4.117   4.192 -1.2433 -0.3083  0.6869
 7938SOL    HW224393   2.132   4.006   4.089  0.2772  0.8209 -0.6731
 7939SOL     OW24394   2.724   2.652   7.237 -0.2122  0.5099  0.3941
 7939SOL    HW124395   2.798   2.605   7.197  0.8800  2.0844  0.4738
 7939SOL    HW224396   2.648   2.599   7.216  0.7392 -0.3448 -1.0809
 7940SOL     OW24397   1.643   8.593   5.599 -0.0601 -0.1319 -0.0390
 7940SOL    HW124398   1.627   8.508   5.640 -0.4384  0.0919  0.2863
 7940SOL    HW224399   1.716   8.629   5.647 -0.5873  0.1874  0.5387
 7941SOL     OW24400   0.664   2.243   2.333 -0.4432 -0.4448 -0.6056
 7941SOL    HW124401   0.634   2.277   2.417 -0.6746  1.1188 -1.2817
 7941SOL    HW224402   0.747   2.200   2.353 -0.1823  0.4434  0.3410
 7942SOL     OW24403   9.824   9.198   0.138 -0.3485  0.4492 -0.0397
 7942SOL    HW124404   9.792   9.109   0.118  0.6200  0.3265 -1.1727
 7942SOL    HW224405   9.747   9.254   0.125 -0.2710  0.1255 -2.4351
 7943SOL     OW24406   0.514   0.151   7.590  0.2092  0.1078  0.3366
 7943SOL    HW124407   0.506   0.207   7.668 -0.5421  1.9199 -0.9703
 7943SOL    HW224408   0.425   0.145   7.556  0.7553  0.7192 -1.2874
 7944SOL     OW24409   4.914   6.131   3.929 -0.2893  0.1260  0.3655
 7944SOL    HW124410   4.880   6.060   3.984 -1.0139 -0.8143 -1.2162
 7944SOL    HW224411   4.931   6.203   3.990 -1.3222 -0.7636  1.7655
 7945SOL     OW24412   5.344   7.708   4.111 -0.5759 -0.0747 -0.2524
 7945SOL    HW124413   5.303   7.777   4.060 -0.5225  0.6893  0.7224
 7945SOL    HW224414   5.399   7.662   4.048 -0.9550  0.4873 -1.0090
 7946SOL     OW24415   2.013   1.195   1.600  0.3253 -0.2248 -0.5398
 7946SOL    HW124416   2.062   1.126   1.555  1.2288  0.3713 -0.5001
 7946SOL    HW224417   1.964   1.148   1.668 -0.3309 -1.0135 -1.5313
 7947SOL     OW24418   8.999   1.976   9.619  0.5330  0.1339 -0.0165
 7947SOL    HW124419   8.976   1.953   9.529  0.9587  1.5505 -0.5133
 7947SOL    HW224420   8.918   2.010   9.657  0.7131  0.9168 -0.3344
 7948SOL     OW24421   5.495   5.055   7.109  0.4394  0.3672 -0.1042
 7948SOL    HW124422   5.496   5.039   7.014  0.7135  1.1020 -0.2390
 7948SOL    HW224423   5.420   5.006   7.141 -0.8234  1.6273 -0.9918
 7949SOL     OW24424   2.608   1.295   3.998  0.5200  0.0629 -0.0452
 7949SOL    HW124425   2.657   1.377   3.994  0.4171  0.0837 -1.1572
 7949SOL    HW224426   2.638   1.245   3.922  0.3823 -0.8194  0.4704
 7950SOL     OW24427   6.791   2.505   2.835 -0.0564  0.1617 -0.2637
 7950SOL    HW124428   6.827   2.591   2.856  1.8074 -0.5813 -0.2536
 7950SOL    HW224429   6.808   2.494   2.741  0.2568 -0.4266 -0.1446
 7951SOL     OW24430   4.481   5.263   2.679 -0.3062 -0.1108 -0.0432
 7951SOL    HW124431   4.550   5.292   2.620 -1.4868 -2.4962 -2.8270
 7951SOL    HW224432   4.522   5.194   2.731 -0.7086 -2.3901 -2.5281
 7952SOL     OW24433   7.657   7.436   6.387 -0.3808  0.8085  0.0595
 7952SOL    HW124434   7.692   7.384   6.460 -0.9624 -0.4780 -0.5435
 7952SOL    HW224435   7.654   7.375   6.313  0.9581  2.2875 -1.2983
 7953SOL     OW24436   6.886   9.387   8.660  0.7245  0.2336  0.0922
 7953SOL    HW124437   6.964   9.425   8.620  0.4447  1.9074  1.0333
 7953SOL    HW224438   6.846   9.334   8.591  1.3903  1.3277 -1.1551
 7954SOL     OW24439   4.702   6.714   8.313 -0.0627 -0.6554 -0.8249
 7954SOL    HW124440   4.734   6.779   8.376 -1.7594 -1.9883  1.5708
 7954SOL    HW224441   4.666   6.765   8.241 -0.1555  1.0090  0.3544
 7955SOL     OW24442   3.532   9.611   0.452  0.2188  0.1482  0.2262
 7955SOL    HW124443   3.443   9.645   0.446  0.1950 -0.0748 -1.0855
 7955SOL    HW224444   3.533   9.558   0.532 -0.4564  1.1641  0.9294
 7956SOL     OW24445   5.401   0.788   4.688 -0.0845  0.1198 -0.5880
 7956SOL    HW124446   5.437   0.875   4.700  0.5358 -0.1243 -0.6539
 7956SOL    HW224447   5.470   0.739   4.643 -0.5507 -0.3122 -0.8486
 7957SOL     OW24448   7.473   8.607   9.925 -0.1086 -0.3522 -0.1594
 7957SOL    HW124449   7.402   8.551   9.953 -0.9688  1.4617  1.5263
 7957SOL    HW224450   7.430   8.685   9.890  1.0390  0.2296 -0.3473
 7958SOL     OW24451   6.385   2.987   5.393 -0.1239 -0.6832  0.8669
 7958SOL    HW124452   6.344   3.071   5.413  0.0154  0.0868 -1.7035
 7958SOL    HW224453   6.478   3.001   5.405  0.2921  0.7125 -2.7145
 7959SOL     OW24454   3.052   8.342   0.967  0.1055 -0.3437 -0.1515
 7959SOL    HW124455   3.000   8.285   0.910 -0.8257  0.5389 -0.2232
 7959SOL    HW224456   3.139   8.342   0.928 -0.3126 -0.3882 -1.1157
 7960SOL     OW24457   3.984   2.046   1.023 -0.2562 -0.2737 -0.0232
 7960SOL    HW124458   3.914   2.012   0.967  1.5142 -0.8490 -2.0324
 7960SOL    HW224459   3.989   2.139   1.002  0.1169 -0.4024 -0.5311
 7961SOL     OW24460   2.187   8.267   2.100 -0.1625 -0.4361 -0.5073
 7961SOL    HW124461   2.272   8.223   2.100  0.4087  0.6034  0.6024
 7961SOL    HW224462   2.133   8.216   2.161 -0.0344 -0.5502 -0.4890
 7962SOL     OW24463   5.900   4.019   5.451 -0.4991  0.8737 -0.2473
 7962SOL    HW124464   5.867   3.948   5.505 -0.3849  0.5826 -0.5614
 7962SOL    HW224465   5.917   3.980   5.365 -2.4384  1.7226 -1.0718
 7963SOL     OW24466   5.550   3.998   1.283  0.2371  0.0547 -0.0957
 7963SOL    HW124467   5.591   4.041   1.207 -0.3287 -0.7915 -0.9085
 7963SOL    HW224468   5.605   4.024   1.357  0.8693  0.8260 -0.8018
 7964SOL     OW24469   0.414   1.820   8.368  0.2596  0.0023  0.2311
 7964SOL    HW124470   0.368   1.799   8.449 -0.1288  0.1180  0.0436
 7964SOL    HW224471   0.411   1.739   8.317  1.5717 -0.4548  0.8204
 7965SOL     OW24472   4.026   7.215   1.044 -0.8493 -0.3763 -0.0782
 7965SOL    HW124473   3.963   7.237   1.113  0.2480  0.9163  0.5467
 7965SOL    HW224474   4.049   7.124   1.061 -1.0549 -0.2589  0.8948
 7966SOL     OW24475   8.246   0.165   6.516  0.2838  0.4285  0.6379
 7966SOL    HW124476   8.264   0.171   6.422  1.0643  1.1798  0.8187
 7966SOL    HW224477   8.154   0.139   6.521  0.3180  0.0761 -0.3297
 7967SOL     OW24478   4.923   7.293   1.765 -0.1235  0.4477 -0.1248
 7967SOL    HW124479   4.954   7.250   1.685  0.8411  0.6083  0.1402
 7967SOL    HW224480   4.895   7.222   1.821 -0.0727  0.2754 -0.3141
 7968SOL     OW24481   7.307   2.702   3.020  0.5787  0.2980  0.7332
 7968SOL    HW124482   7.231   2.646   3.031  1.4403 -0.4536  3.7467
 7968SOL    HW224483   7.340   2.717   3.109  2.9098  2.0755 -0.2916
 7969SOL     OW24484   5.615   6.695   4.547  0.3871 -0.7159 -0.6121
 7969SOL    HW124485   5.680   6.682   4.478  0.0178 -0.9969 -0.9108
 7969SOL    HW224486   5.654   6.655   4.625  1.7175  1.3769 -0.1024
 7970SOL     OW24487   0.714   2.930   6.538  0.7119 -0.3821  0.6106
 7970SOL    HW124488   0.688   2.918   6.447  1.0906  1.2231  0.2568
 7970SOL    HW224489   0.776   2.859   6.555  0.2413 -1.0082 -0.2154
 7971SOL     OW24490   3.627   8.280   0.600  0.2768 -0.4708 -0.1764
 7971SOL    HW124491   3.536   8.288   0.573 -0.0940 -0.7262  0.9284
 7971SOL    HW224492   3.624   8.227   0.680  0.7691  3.4562  2.7821
 7972SOL     OW24493   0.883   8.109   1.963 -0.0964  0.3491  0.0176
 7972SOL    HW124494   0.832   8.117   2.044 -3.0912 -0.4941 -1.6284
 7972SOL    HW224495   0.879   8.196   1.924 -0.0905  0.3326 -0.0201
 7973SOL     OW24496   2.913   2.862   1.725  0.2716  0.4464 -0.2825
 7973SOL    HW124497   2.830   2.821   1.749  1.2092 -0.2690  2.1680
 7973SOL    HW224498   2.894   2.956   1.720 -1.0901  0.1279 -2.0093
 7974SOL     OW24499   5.965   2.539   2.472  0.2077 -0.3023 -0.3702
 7974SOL    HW124500   5.873   2.512   2.472  0.6837 -2.4762 -3.5050
 7974SOL    HW224501   6.008   2.474   2.527 -0.2018  1.6880  2.5192
 7975SOL     OW24502   3.697   1.547   1.002  0.2704 -0.6352 -0.2620
 7975SOL    HW124503   3.662   1.491   0.933 -0.4700 -0.7693  0.2154
 7975SOL    HW224504   3.655   1.632   0.987  0.2883 -0.6008 -0.1130
 7976SOL     OW24505   6.583   3.449   9.170  0.1170 -0.0506  0.1927
 7976SOL    HW124506   6.582   3.526   9.226  0.2942  0.1318 -0.0560
 7976SOL    HW224507   6.562   3.482   9.083  0.3422 -0.2615  0.0575
 7977SOL     OW24508   1.988   6.845   9.728 -0.5860  0.3882  0.4324
 7977SOL    HW124509   1.992   6.875   9.818  0.9191  1.1027  0.1516
 7977SOL    HW224510   2.031   6.914   9.677 -0.4545 -0.4927 -0.6998
 7978SOL     OW24511   3.257   6.820   1.471 -0.2857 -0.5600  0.1501
 7978SOL    HW124512   3.187   6.848   1.412  0.3474  0.3234 -0.1939
 7978SOL    HW224513   3.240   6.726   1.484 -1.0823 -0.5272 -0.5447
 7979SOL     OW24514   3.320   5.226   4.328  0.1987  0.3881 -0.1489
 7979SOL    HW124515   3.389   5.234   4.393 -0.0454 -0.5169  0.2277
 7979SOL    HW224516   3.327   5.306   4.276  1.7365  0.1682 -0.3198
 7980SOL     OW24517   7.565   2.267   9.217 -0.6099 -0.6637 -0.2357
 7980SOL    HW124518   7.601   2.353   9.238  0.3728 -1.2025  0.3536
 7980SOL    HW224519   7.529   2.235   9.300 -1.8411 -0.4345 -0.6571
 7981SOL     OW24520   9.356   3.100   4.519 -0.6369  0.5022 -0.0159
 7981SOL    HW124521   9.274   3.150   4.526 -1.4862 -0.7819 -0.3551
 7981SOL    HW224522   9.327   3.009   4.511  0.8146  0.1033 -1.0683
 7982SOL     OW24523   0.387   8.020   7.758  0.7550  0.1122 -0.6411
 7982SOL    HW124524   0.454   7.994   7.822 -0.3548  0.3528  0.6730
 7982SOL    HW224525   0.328   7.945   7.754  0.1715  0.5517 -0.4727
 7983SOL     OW24526   3.561   3.289   0.626  0.0504 -0.1090 -0.1514
 7983SOL    HW124527   3.618   3.278   0.703 -1.2482 -3.2495  0.5099
 7983SOL    HW224528   3.492   3.348   0.656  0.7817  0.5129  0.3414
 7984SOL     OW24529   3.813   6.750   2.121 -0.1771 -0.6724  0.4065
 7984SOL    HW124530   3.748   6.766   2.189 -0.1875 -0.5778  0.3753
 7984SOL    HW224531   3.828   6.837   2.082 -1.1203 -0.9092 -0.5669
 7985SOL     OW24532   9.158   0.710   9.133 -0.4487  0.5373  0.1208
 7985SOL    HW124533   9.217   0.658   9.187  0.5096  0.7363 -0.6864
 7985SOL    HW224534   9.150   0.793   9.179  0.3245  0.6889  0.0042
 7986SOL     OW24535   8.295   5.464   8.310 -0.1434 -0.4065  0.0734
 7986SOL    HW124536   8.251   5.542   8.275 -0.0958 -1.0479 -1.5144
 7986SOL    HW224537   8.372   5.498   8.354  0.6109  0.4089 -1.7542
 7987SOL     OW24538   4.245   9.705   1.188 -0.2137 -0.2063 -0.9534
 7987SOL    HW124539   4.283   9.792   1.180  0.3594 -0.5501 -2.2499
 7987SOL    HW224540   4.264   9.662   1.104 -1.8774 -1.0377 -0.9433
 7988SOL     OW24541   0.808   7.965   3.629 -0.1845  0.7779 -0.2392
 7988SOL    HW124542   0.766   8.045   3.661  0.9980  0.5949  1.9816
 7988SOL    HW224543   0.840   7.988   3.542 -0.9007  2.3468 -0.1154
 7989SOL     OW24544   6.690   2.889   0.330  0.0681  0.1570 -0.1299
 7989SOL    HW124545   6.596   2.900   0.316  0.1010  0.1997 -0.3246
 7989SOL    HW224546   6.697   2.818   0.393 -0.0386 -1.0449 -1.4180
 7990SOL     OW24547   1.830   2.254   6.674 -0.6154 -0.0673  0.4402
 7990SOL    HW124548   1.860   2.240   6.584  1.0087 -0.1417  0.9579
 7990SOL    HW224549   1.802   2.167   6.703 -0.3633 -0.2151  0.2550
 7991SOL     OW24550   8.320   6.181   6.178 -0.2343 -0.2111 -0.2184
 7991SOL    HW124551   8.386   6.120   6.210 -1.1928 -0.0182  2.3036
 7991SOL    HW224552   8.262   6.128   6.124  1.3136 -0.5875 -1.6126
 7992SOL     OW24553   4.217   3.131   9.888  0.0153  0.4010 -0.9825
 7992SOL    HW124554   4.224   3.182   9.807  0.5320 -0.9911 -1.8550
 7992SOL    HW224555   4.288   3.163   9.943 -2.0037  3.3135  0.1181
 7993SOL     OW24556   1.580   0.637   0.102  0.2341  0.2504 -0.2951
 7993SOL    HW124557   1.612   0.727   0.114  0.2271  0.2252 -0.0686
 7993SOL    HW224558   1.514   0.627   0.172  0.9294 -0.2618  0.2983
 7994SOL     OW24559   5.846   4.361   8.168  0.0744  0.0384  0.0367
 7994SOL    HW124560   5.770   4.404   8.207  1.0246  1.6130  0.2168
 7994SOL    HW224561   5.863   4.411   8.089  2.6787  1.6319  1.4863
 7995SOL     OW24562   9.134   2.983   5.214 -1.0071  0.3556  0.0651
 7995SOL    HW124563   9.226   2.967   5.195 -1.2980  1.7625 -3.3330
 7995SOL    HW224564   9.091   2.900   5.197 -0.6297  0.3597 -0.9627
 7996SOL     OW24565   9.485   2.995   4.938  0.1454  0.0331  0.3900
 7996SOL    HW124566   9.392   2.982   4.919 -0.7058  1.3418  3.1474
 7996SOL    HW224567   9.494   3.090   4.949  1.9763 -0.0009 -0.4436
 7997SOL     OW24568   1.465   8.645   3.854 -0.1386  0.1853 -0.4262
 7997SOL    HW124569   1.554   8.650   3.819  0.5930  1.9965  1.4446
 7997SOL    HW224570   1.477   8.609   3.942 -1.5825 -1.7979 -0.9940
 7998SOL     OW24571   4.738   9.117   3.824 -0.8362 -0.3386  0.7435
 7998SOL    HW124572   4.807   9.061   3.861  0.5894 -0.6596 -2.1234
 7998SOL    HW224573   4.662   9.060   3.818  0.4425 -1.9757 -1.6354
 7999SOL     OW24574   9.380   2.715   5.674  0.2854  0.2803 -0.5567
 7999SOL    HW124575   9.373   2.688   5.766  0.1227  1.8078 -0.0900
 7999SOL    HW224576   9.392   2.634   5.626 -0.2211 -0.6052  0.7594
 8000SOL     OW24577   4.186   7.425   1.170 -0.1651  0.0720 -0.2321
 8000SOL    HW124578   4.134   7.351   1.139  1.2702 -1.3313  0.5623
 8000SOL    HW224579   4.276   7.402   1.146  0.1988  2.1667 -1.0944
 8001SOL     OW24580   7.430   9.859   8.878  0.0779  0.7882  0.8061
 8001SOL    HW124581   7.339   9.877   8.852  0.7065  2.2044 -0.6318
 8001SOL    HW224582   7.480   9.930   8.837  1.7494  0.5036  2.2487
 8002SOL     OW24583   2.095   5.930   6.293  0.1450 -0.1077  0.3143
 8002SOL    HW124584   2.014   5.976   6.271  0.2609 -0.2439 -0.4441
 8002SOL    HW224585   2.094   5.922   6.388 -0.5548  0.2148  0.3359
 8003SOL     OW24586   2.200   1.477   8.241  0.1732  0.2651  0.5428
 8003SOL    HW124587   2.234   1.548   8.296  0.0928  1.8727 -1.3744
 8003SOL    HW224588   2.106   1.475   8.260  0.1500  0.7809  0.4997
 8004SOL     OW24589   5.528   6.373   6.133  0.5703 -0.2717 -0.4745
 8004SOL    HW124590   5.433   6.371   6.139  0.6223 -1.3388  0.3443
 8004SOL    HW224591   5.546   6.391   6.041 -0.4136  0.4457 -0.5373
 8005SOL     OW24592   4.431   9.276   8.027 -0.0028  0.0566 -0.0289
 8005SOL    HW124593   4.509   9.233   8.061 -0.3475  0.3927  1.2535
 8005SOL    HW224594   4.412   9.231   7.945  1.4891 -0.0679 -0.3224
 8006SOL     OW24595   1.295   5.675   0.336 -0.1789  0.1718  0.1413
 8006SOL    HW124596   1.280   5.722   0.418  1.4765  2.3882 -0.7271
 8006SOL    HW224597   1.378   5.630   0.349 -0.4452 -0.3518  0.0430
 8007SOL     OW24598   8.308   8.679   6.922 -0.2516  0.5129 -0.3350
 8007SOL    HW124599   8.375   8.636   6.869  0.0236  1.0036 -0.3948
 8007SOL    HW224600   8.229   8.673   6.868  0.1606  1.5391 -1.0938
 8008SOL     OW24601   6.524   6.597   2.580  0.1176  0.3095 -0.0964
 8008SOL    HW124602   6.475   6.647   2.646 -0.7425 -0.0002 -0.4795
 8008SOL    HW224603   6.547   6.515   2.624  0.2329  0.4264  0.0634
 8009SOL     OW24604   5.128   5.819   6.738  0.1331 -0.4967  0.5969
 8009SOL    HW124605   5.064   5.805   6.807  0.3960 -0.3120  0.8788
 8009SOL    HW224606   5.092   5.891   6.686 -0.8239 -1.6355 -0.3805
 8010SOL     OW24607   6.655   3.760   5.314  0.0704  0.2949  0.4871
 8010SOL    HW124608   6.695   3.766   5.227 -2.4471 -1.8939 -0.9650
 8010SOL    HW224609   6.716   3.707   5.365 -0.1509 -1.6320 -1.1546
 8011SOL     OW24610   4.374   4.615   8.789  0.2519  0.0447 -0.0396
 8011SOL    HW124611   4.426   4.685   8.828  0.4537 -1.5441  2.9074
 8011SOL    HW224612   4.438   4.545   8.770 -0.3236 -0.5366  0.1195
 8012SOL     OW24613   0.644   7.573   9.606 -0.6651  0.0507  0.5660
 8012SOL    HW124614   0.601   7.657   9.624 -2.4416 -1.0615  1.8839
 8012SOL    HW224615   0.652   7.571   9.511 -4.0824  0.1660  0.1553
 8013SOL     OW24616   5.118   7.779   3.719  0.9769  0.2967 -0.1677
 8013SOL    HW124617   5.152   7.701   3.764  1.8636  0.4300 -0.5909
 8013SOL    HW224618   5.023   7.772   3.728  1.0917 -0.2627  0.7518
 8014SOL     OW24619   5.059   7.843   8.655  0.4934  0.5835 -0.4931
 8014SOL    HW124620   5.058   7.906   8.727  1.8522  0.3101 -0.1910
 8014SOL    HW224621   4.976   7.796   8.663 -0.3009  1.9499 -0.3946
 8015SOL     OW24622   3.778   9.223   8.130 -0.3143 -0.3112  0.2066
 8015SOL    HW124623   3.744   9.287   8.193 -0.8099  1.5667 -1.8419
 8015SOL    HW224624   3.872   9.237   8.130 -0.3138 -0.3088  0.5167
 8016SOL     OW24625   4.082   2.261   3.648 -0.4078  0.8257 -0.2210
 8016SOL    HW124626   4.065   2.224   3.735  0.2610  2.0389  0.4575
 8016SOL    HW224627   4.158   2.318   3.661 -1.1653  2.1395 -1.2824
 8017SOL     OW24628   2.282   4.348   3.080 -0.6017 -0.9296 -0.3521
 8017SOL    HW124629   2.202   4.390   3.113  0.1154  0.6851 -0.6173
 8017SOL    HW224630   2.276   4.357   2.985  0.6087  0.5793 -0.3114
 8018SOL     OW24631   0.545   4.406   6.203  0.6814 -0.6358  0.0283
 8018SOL    HW124632   0.559   4.435   6.294 -0.8655 -0.1966  0.1490
 8018SOL    HW224633   0.552   4.487   6.152 -3.2285  0.0921  0.3199
 8019SOL     OW24634   7.507   2.143   9.716  0.3789 -0.3470  0.5633
 8019SOL    HW124635   7.435   2.204   9.732  1.8278  1.0473  2.1678
 8019SOL    HW224636   7.548   2.131   9.801  2.7586 -0.1756 -0.4913
 8020SOL     OW24637   6.814   9.683   6.575  0.0570 -0.0039  0.2027
 8020SOL    HW124638   6.905   9.711   6.575 -0.2402  1.0638 -0.8577
 8020SOL    HW224639   6.774   9.730   6.648  0.4846 -1.0478  1.1484
 8021SOL     OW24640   1.581   0.509   5.217 -0.3310  0.3030  0.2790
 8021SOL    HW124641   1.551   0.555   5.138  1.3854 -0.4299 -0.8525
 8021SOL    HW224642   1.631   0.434   5.184  0.9396  0.3091  2.0503
 8022SOL     OW24643   2.467   5.786   4.691 -0.2921  0.1437 -0.4664
 8022SOL    HW124644   2.544   5.822   4.647  0.4355  0.3368  0.8875
 8022SOL    HW224645   2.436   5.858   4.747 -0.6704 -0.3426 -0.0416
 8023SOL     OW24646   1.707   8.717   8.190  0.0639  0.5252 -0.2649
 8023SOL    HW124647   1.708   8.737   8.283  0.8044  1.9942 -0.5621
 8023SOL    HW224648   1.681   8.799   8.148 -0.2139 -0.0983 -1.3555
 8024SOL     OW24649   2.550   7.662   8.701  0.5551 -0.2679  0.2978
 8024SOL    HW124650   2.544   7.717   8.780 -2.1787 -2.8140  2.0814
 8024SOL    HW224651   2.635   7.619   8.708  1.2501  1.0921  0.6796
 8025SOL     OW24652   9.017   4.523   8.895  0.1375 -0.3748  0.5142
 8025SOL    HW124653   9.011   4.458   8.965 -0.9884  1.4387  2.2159
 8025SOL    HW224654   9.106   4.511   8.860 -0.3037 -3.3161  0.1464
 8026SOL     OW24655   2.084   8.823   7.117  0.3230  0.3403 -0.5062
 8026SOL    HW124656   2.058   8.846   7.028  0.2028  0.8026 -0.3553
 8026SOL    HW224657   2.052   8.895   7.170  2.4901  1.2887 -0.3963
 8027SOL     OW24658   5.764   7.789   2.642 -0.1308 -0.2085  0.1179
 8027SOL    HW124659   5.788   7.879   2.619 -1.3733  0.4029  1.1160
 8027SOL    HW224660   5.798   7.736   2.569 -0.2813  1.1708 -0.9968
 8028SOL     OW24661   8.432   4.426   0.849  0.1154 -0.2087 -0.2384
 8028SOL    HW124662   8.513   4.403   0.803 -0.1785 -2.1239  0.0897
 8028SOL    HW224663   8.363   4.410   0.785 -0.1451 -0.8822  0.1956
 8029SOL     OW24664   9.632   3.410   3.372  0.3985  0.2202 -0.3146
 8029SOL    HW124665   9.727   3.407   3.382  0.4469  0.2038 -0.7581
 8029SOL    HW224666   9.616   3.486   3.317 -0.0147  1.6187  1.6126
 8030SOL     OW24667   3.349   6.203   4.637 -0.2346  0.1920 -0.1251
 8030SOL    HW124668   3.274   6.228   4.692  0.1606 -0.7951  0.8996
 8030SOL    HW224669   3.318   6.216   4.547 -0.9213  1.7843  0.3112
 8031SOL     OW24670   0.959   3.743   4.316  0.4682 -0.6475 -0.3493
 8031SOL    HW124671   1.030   3.704   4.366  0.1421  0.3403  0.9785
 8031SOL    HW224672   1.002   3.787   4.243  1.3371  0.4513  0.7638
 8032SOL     OW24673   4.196   3.556   8.350 -0.6035  0.2756 -0.1487
 8032SOL    HW124674   4.290   3.568   8.360 -0.4214 -1.0421 -0.1570
 8032SOL    HW224675   4.183   3.544   8.256 -0.8528  0.9091 -0.2036
 8033SOL     OW24676   6.913   9.581   7.582 -0.0850  0.1953 -0.7517
 8033SOL    HW124677   6.949   9.635   7.652 -0.6072  1.1284 -1.1689
 8033SOL    HW224678   6.882   9.645   7.517 -0.8668 -0.6137 -1.1935
 8034SOL     OW24679   0.755   4.101   6.264 -0.1900  0.1774  0.1678
 8034SOL    HW124680   0.758   4.175   6.324  0.8401 -0.0023  0.3642
 8034SOL    HW224681   0.847   4.079   6.249 -0.4557 -0.3061 -0.8258
 8035SOL     OW24682   7.954   7.783   3.220 -0.2285  0.5973 -0.3139
 8035SOL    HW124683   8.013   7.842   3.267 -0.3715 -0.1493  0.8288
 8035SOL    HW224684   7.998   7.767   3.137  0.6452  0.9473  0.0689
 8036SOL     OW24685   9.430   8.781   6.699 -0.0788  0.5418  0.4700
 8036SOL    HW124686   9.523   8.765   6.682 -0.4147 -1.8585  0.5694
 8036SOL    HW224687   9.422   8.777   6.794 -0.3011  0.6775  0.4577
 8037SOL     OW24688   8.963   3.478   9.727 -0.2623 -0.7361  0.2369
 8037SOL    HW124689   9.046   3.437   9.704 -0.0951 -1.1222  1.4661
 8037SOL    HW224690   8.986   3.570   9.743 -0.1946 -0.6961 -0.0898
 8038SOL     OW24691   3.935   4.058   9.188 -0.1089 -0.7582 -0.8091
 8038SOL    HW124692   4.009   4.113   9.163  1.0156 -1.3451  1.0286
 8038SOL    HW224693   3.967   4.008   9.263 -2.7705 -0.0362  0.9369
 8039SOL     OW24694   2.324   6.722   0.503  0.4931  0.0198  0.1416
 8039SOL    HW124695   2.367   6.730   0.417 -0.7505  1.5168 -0.3889
 8039SOL    HW224696   2.238   6.760   0.490 -0.5135 -1.6277  1.5543
 8040SOL     OW24697   3.612   3.928   0.883 -0.0576 -0.0258  0.3386
 8040SOL    HW124698   3.538   3.951   0.826  0.2387 -0.2442 -0.1362
 8040SOL    HW224699   3.584   3.956   0.970 -1.5056 -1.7978  0.5089
 8041SOL     OW24700   0.989   7.225   4.493 -0.0949  0.2891 -0.7071
 8041SOL    HW124701   1.041   7.145   4.500  0.6143  0.6107 -1.9356
 8041SOL    HW224702   1.026   7.284   4.559  0.3172  0.0975 -0.7679
 8042SOL     OW24703   1.288   5.016   5.824 -0.5875 -0.4975  0.2612
 8042SOL    HW124704   1.367   4.979   5.786 -0.2403 -0.0840  0.5646
 8042SOL    HW224705   1.218   4.958   5.795 -0.6110  0.7209 -2.4069
 8043SOL     OW24706   8.508   6.782   0.328 -0.2069  0.0441 -0.3324
 8043SOL    HW124707   8.581   6.721   0.345 -0.0933  0.0055 -0.9216
 8043SOL    HW224708   8.497   6.779   0.233 -1.0376 -0.0088 -0.2381
 8044SOL     OW24709   2.735   2.645   8.729 -0.1138 -0.2864  0.0811
 8044SOL    HW124710   2.760   2.736   8.714  0.8371 -0.2595  1.7079
 8044SOL    HW224711   2.641   2.643   8.710  0.2964  0.4607 -2.3555
 8045SOL     OW24712   1.943   0.340   2.935 -0.5350 -0.0015  0.4218
 8045SOL    HW124713   1.951   0.368   3.026  0.5549 -1.3311  0.7731
 8045SOL    HW224714   2.020   0.376   2.891 -0.6512 -0.0115  0.2076
 8046SOL     OW24715   7.905   8.452   4.093  0.1496 -0.0819 -0.3710
 8046SOL    HW124716   7.986   8.479   4.050  0.8047  0.3008  1.0480
 8046SOL    HW224717   7.897   8.358   4.073  2.0306 -0.6175  1.0862
 8047SOL     OW24718   1.296   4.084   9.329  0.4357 -0.2248 -0.6236
 8047SOL    HW124719   1.210   4.043   9.321  0.4360 -0.2189 -0.6568
 8047SOL    HW224720   1.278   4.170   9.368  0.3128  0.1977 -1.5957
 8048SOL     OW24721   2.850   7.022   3.371  0.1312  0.6035 -0.1050
 8048SOL    HW124722   2.940   7.017   3.338 -0.5581 -0.0771 -2.0059
 8048SOL    HW224723   2.797   6.983   3.302 -1.7072  1.5513  0.7114
 8049SOL     OW24724   8.005   1.397   0.606 -0.2529  0.4551  0.0489
 8049SOL    HW124725   7.911   1.378   0.609 -0.0152 -0.6452  0.9892
 8049SOL    HW224726   8.012   1.488   0.634 -1.1238  0.9376 -1.1770
 8050SOL     OW24727   8.854   1.551   4.166  0.0496 -0.4466  0.0387
 8050SOL    HW124728   8.835   1.605   4.089 -1.4898 -1.0817 -0.0618
 8050SOL    HW224729   8.796   1.475   4.157 -2.1014  0.6061  3.0395
 8051SOL     OW24730   9.827   3.503   1.665  0.4300  0.3574 -0.2376
 8051SOL    HW124731   9.767   3.544   1.602  0.0505 -0.8456 -0.6831
 8051SOL    HW224732   9.798   3.536   1.750  0.7512  1.7675 -0.6396
 8052SOL     OW24733   1.919   7.492   0.026  0.4679  0.4021  0.2139
 8052SOL    HW124734   1.939   7.559   0.091 -0.6551  0.4612  0.5294
 8052SOL    HW224735   1.857   7.434   0.070  0.1664  0.0902 -0.5966
 8053SOL     OW24736   7.077   5.431   8.737  0.4244  0.2043  0.8180
 8053SOL    HW124737   7.130   5.503   8.703  0.6687  0.1890  1.1532
 8053SOL    HW224738   6.993   5.471   8.759 -0.6971 -0.2681 -2.2104
 8054SOL     OW24739   3.270   4.217   9.408 -0.0154  0.0362 -0.1065
 8054SOL    HW124740   3.270   4.251   9.498  1.7668 -0.7851  0.2526
 8054SOL    HW224741   3.222   4.134   9.414 -0.9534  0.5570 -0.1867
 8055SOL     OW24742   5.342   3.941   0.997 -0.2168 -0.0125 -0.6558
 8055SOL    HW124743   5.319   3.904   1.082 -1.2037 -1.5187 -1.5311
 8055SOL    HW224744   5.258   3.954   0.953  0.3355 -2.8148 -2.7901
 8056SOL     OW24745   5.211   0.456   1.843 -0.1429 -0.0782  0.2379
 8056SOL    HW124746   5.137   0.508   1.876 -1.0673  0.6766 -2.7188
 8056SOL    HW224747   5.288   0.511   1.860 -0.7044  0.7657  0.1382
 8057SOL     OW24748   6.816   6.423   7.927 -0.9941 -0.1291  0.1485
 8057SOL    HW124749   6.805   6.493   7.863 -0.9538  1.0151  1.3552
 8057SOL    HW224750   6.911   6.414   7.936 -0.9827  1.0110  1.3927
 8058SOL     OW24751   6.241   8.228   2.783 -0.1805  1.0896 -0.4163
 8058SOL    HW124752   6.266   8.174   2.858 -0.0052  0.3630 -0.9868
 8058SOL    HW224753   6.323   8.269   2.756 -0.3766  1.9326  0.2323
 8059SOL     OW24754   5.728   5.445   3.392 -0.4421  0.3650  0.4971
 8059SOL    HW124755   5.668   5.518   3.375 -0.1600  0.4087 -0.3675
 8059SOL    HW224756   5.757   5.458   3.482  0.0678  1.6732  0.1643
 8060SOL     OW24757  -0.003   6.683   1.035  0.2133  0.2042 -0.2235
 8060SOL    HW124758   0.058   6.612   1.019  0.4822  0.4879 -0.4725
 8060SOL    HW224759   0.051   6.754   1.071  0.4219  1.1919 -2.3302
 8061SOL     OW24760   7.834   9.018   8.963  0.4508  0.4986 -0.5616
 8061SOL    HW124761   7.782   9.093   8.991  1.5365  1.3943 -0.8469
 8061SOL    HW224762   7.924   9.040   8.989  0.5549 -1.5570  1.1044
 8062SOL     OW24763   1.211   3.401   2.798 -0.2213 -0.3627 -0.4264
 8062SOL    HW124764   1.180   3.490   2.813 -0.9764 -0.6442 -0.2648
 8062SOL    HW224765   1.249   3.402   2.711 -0.6269  0.0128 -0.6000
 8063SOL     OW24766   3.370   4.337   5.685 -0.0772 -0.1591 -0.1625
 8063SOL    HW124767   3.344   4.317   5.595  0.7375  2.4585 -1.0669
 8063SOL    HW224768   3.293   4.313   5.737  0.3280 -4.1771 -1.0869
 8064SOL     OW24769   9.395   1.594   1.150 -0.2673  0.1061  0.2108
 8064SOL    HW124770   9.409   1.595   1.055  1.8019 -1.8368  0.4069
 8064SOL    HW224771   9.431   1.677   1.181 -2.2652  1.4174 -0.7781
 8065SOL     OW24772   3.618   0.519   5.675 -0.0880  0.0328 -0.2286
 8065SOL    HW124773   3.554   0.587   5.697  0.0412  0.1654 -0.2597
 8065SOL    HW224774   3.626   0.466   5.754 -0.3733 -0.0926 -0.2855
 8066SOL     OW24775   3.534   3.515   4.813  0.0965 -0.0861  0.1490
 8066SOL    HW124776   3.474   3.450   4.776  0.3651 -1.0754  1.3556
 8066SOL    HW224777   3.621   3.484   4.788  0.2420 -0.3974  0.9727
 8067SOL     OW24778   7.535   3.469   8.154  0.2672  0.0488  0.4264
 8067SOL    HW124779   7.532   3.374   8.141  0.6824  0.2200 -1.0851
 8067SOL    HW224780   7.624   3.486   8.185  0.7620  0.0935 -0.9292
 8068SOL     OW24781   3.697   6.761   8.735 -0.0444  0.2199  0.9248
 8068SOL    HW124782   3.740   6.677   8.721 -1.1135 -0.4364  1.4444
 8068SOL    HW224783   3.646   6.749   8.816 -0.8266  1.1116  0.5918
 8069SOL     OW24784   2.180   4.792   3.261 -0.6769  0.5546 -0.0748
 8069SOL    HW124785   2.240   4.764   3.191  0.0522 -2.4807  1.6015
 8069SOL    HW224786   2.095   4.758   3.235 -0.2580 -1.2594  0.7985
 8070SOL     OW24787   1.943   9.320   4.788  0.1785  0.0783 -0.1230
 8070SOL    HW124788   1.997   9.243   4.768  0.4980  0.2715 -0.0118
 8070SOL    HW224789   2.004   9.394   4.785  0.3956  0.0619  2.1955
 8071SOL     OW24790   2.053   2.533   6.032  0.5099  0.9160 -0.0686
 8071SOL    HW124791   2.076   2.519   6.124  1.7979  1.0996 -0.3437
 8071SOL    HW224792   1.959   2.515   6.028  0.4472  0.8366  1.2646
 8072SOL     OW24793   7.026   8.072   6.548  0.6517 -0.6010  0.6958
 8072SOL    HW124794   7.019   8.154   6.499 -0.5417 -0.5495  0.9183
 8072SOL    HW224795   7.105   8.030   6.514 -0.8948 -1.2640 -2.3707
 8073SOL     OW24796   8.705   9.830   7.100  0.4299 -0.0542 -0.3893
 8073SOL    HW124797   8.747   9.744   7.100  1.1719  0.2697  1.0701
 8073SOL    HW224798   8.615   9.813   7.074  0.9878 -1.0219 -1.8015
 8074SOL     OW24799   7.544   6.006   0.288  0.0438 -0.4578 -0.2739
 8074SOL    HW124800   7.639   6.003   0.306 -0.0288  0.9762  0.4611
 8074SOL    HW224801   7.538   6.032   0.196  0.3688  1.0402  0.1099
 8075SOL     OW24802   4.815   0.666   1.460  0.5793 -0.1374  0.4890
 8075SOL    HW124803   4.812   0.619   1.543  1.3963 -1.2182 -0.0663
 8075SOL    HW224804   4.885   0.623   1.410  1.9383  2.1708  0.2442
 8076SOL     OW24805   2.718   8.223   5.180 -0.4048 -0.3901 -0.1918
 8076SOL    HW124806   2.810   8.229   5.202 -0.1568  1.7818 -1.5089
 8076SOL    HW224807   2.674   8.208   5.263  0.8600  2.3752  1.1083
 8077SOL     OW24808   3.135   6.584   5.135  0.4850 -0.4203 -0.3506
 8077SOL    HW124809   3.097   6.499   5.155  0.4840  0.0734  2.1149
 8077SOL    HW224810   3.102   6.642   5.205  3.0721  0.8064 -0.0318
 8078SOL     OW24811   6.811   2.943   9.942  0.4304 -0.8810  0.0069
 8078SOL    HW124812   6.837   3.005   9.874  0.8847 -2.9971 -1.8813
 8078SOL    HW224813   6.718   2.959   9.955  0.2311 -0.7393 -1.4841
 8079SOL     OW24814   0.819   2.679   6.561  0.4275 -0.0315 -0.0385
 8079SOL    HW124815   0.865   2.621   6.621  0.2954  0.5958  0.6756
 8079SOL    HW224816   0.875   2.683   6.483  0.5718 -0.8831  0.0212
 8080SOL     OW24817   9.601   7.030   8.250 -0.1538 -0.1702 -0.1313
 8080SOL    HW124818   9.649   6.953   8.280  0.3118  0.6805  1.3966
 8080SOL    HW224819   9.645   7.055   8.169  1.0980 -0.2284  0.5140
 8081SOL     OW24820   9.510   0.142   4.169 -0.3029 -0.0235  0.5476
 8081SOL    HW124821   9.436   0.199   4.187 -1.7945 -1.7042  0.0228
 8081SOL    HW224822   9.522   0.148   4.074  0.3470  0.3223  0.6393
 8082SOL     OW24823   8.991   6.013   3.788 -0.3942 -0.1015  0.2363
 8082SOL    HW124824   9.040   6.073   3.731 -0.0047  1.2676  1.9292
 8082SOL    HW224825   8.969   6.066   3.864 -1.1603 -1.7957  1.2399
 8083SOL     OW24826   9.379   2.739   9.469 -0.6413  0.3208  0.2020
 8083SOL    HW124827   9.299   2.746   9.522  0.4601 -0.7492  2.0993
 8083SOL    HW224828   9.439   2.689   9.523  1.1406  0.6007 -1.4307
 8084SOL     OW24829   1.292   8.631   2.690  0.3900  0.0660 -0.8071
 8084SOL    HW124830   1.262   8.561   2.748 -3.1694  3.4217  1.9341
 8084SOL    HW224831   1.230   8.630   2.617  0.1225  0.5386 -0.5891
 8085SOL     OW24832   3.131   6.304   4.773  0.3472  0.0039  0.4288
 8085SOL    HW124833   3.166   6.391   4.793  0.5703 -0.0517  0.2875
 8085SOL    HW224834   3.039   6.319   4.752  0.5476  0.3017 -0.2718
 8086SOL     OW24835   2.828   9.378   1.140 -0.5581  0.2866  0.4679
 8086SOL    HW124836   2.833   9.296   1.189 -1.0900  0.4192  0.7461
 8086SOL    HW224837   2.907   9.426   1.166  1.5707 -1.4596 -2.1455
 8087SOL     OW24838   2.188   6.661   2.775 -0.1754  0.0088  0.1554
 8087SOL    HW124839   2.246   6.713   2.719  0.6635 -1.8409 -0.7472
 8087SOL    HW224840   2.238   6.648   2.856 -0.4169  0.6048  0.4143
 8088SOL     OW24841   9.080   3.102   5.568 -0.2512 -0.2998  0.0044
 8088SOL    HW124842   9.044   3.023   5.528  0.0132 -0.0914 -0.6530
 8088SOL    HW224843   9.051   3.173   5.511 -0.5748  0.0927  0.6495
 8089SOL     OW24844   0.991   2.991   7.387  0.1926 -0.1919  0.4153
 8089SOL    HW124845   0.995   2.929   7.315  0.0336  0.6528 -0.3285
 8089SOL    HW224846   1.080   2.995   7.421 -0.2263 -2.7684  2.1813
 8090SOL     OW24847   1.393   3.533   1.697 -0.1474  0.4617 -0.0896
 8090SOL    HW124848   1.447   3.491   1.630 -0.3744  2.1386 -1.3779
 8090SOL    HW224849   1.456   3.575   1.756  0.0671 -1.2740  1.0202
 8091SOL     OW24850   9.189   0.273   7.471 -0.4147 -0.1291  0.5078
 8091SOL    HW124851   9.240   0.211   7.522 -0.1569 -0.9395 -0.6770
 8091SOL    HW224852   9.113   0.223   7.441 -0.0886  0.0449 -0.6562
 8092SOL     OW24853   8.555   5.050   8.908 -0.0514  0.2028  0.1657
 8092SOL    HW124854   8.498   4.996   8.963 -1.1859 -1.3609 -2.3547
 8092SOL    HW224855   8.564   5.132   8.956 -0.7246 -1.1311  2.7588
 8093SOL     OW24856   6.197   0.500   7.215 -0.5006  0.0473  0.4498
 8093SOL    HW124857   6.186   0.405   7.220 -0.2804  0.0409  0.8633
 8093SOL    HW224858   6.185   0.530   7.305  0.0610  0.3387  0.4326
 8094SOL     OW24859   3.993   0.420   4.211  0.4177 -0.5058 -0.7739
 8094SOL    HW124860   3.935   0.357   4.168 -0.1637 -0.7798  0.3921
 8094SOL    HW224861   4.070   0.369   4.235  0.4898 -0.4815 -0.9482
 8095SOL     OW24862   7.070   6.914   6.379  0.1550 -0.0286  0.4010
 8095SOL    HW124863   6.998   6.976   6.390 -0.9833 -1.3486  0.7428
 8095SOL    HW224864   7.034   6.846   6.322  2.0421  0.6146 -1.6820
 8096SOL     OW24865   4.444   7.015   9.633  0.3418  0.0552 -0.3491
 8096SOL    HW124866   4.368   7.003   9.690 -0.4268 -0.2889 -1.4272
 8096SOL    HW224867   4.456   7.110   9.628 -0.0448  0.1128 -0.2039
 8097SOL     OW24868   8.700   4.055   9.611 -0.2701 -0.5313  0.0237
 8097SOL    HW124869   8.705   4.136   9.662  2.3434 -2.0081  2.4071
 8097SOL    HW224870   8.738   4.078   9.526 -2.8910  1.5095 -0.7490
 8098SOL     OW24871   6.139   2.803   7.152  0.1953  0.1353 -0.0205
 8098SOL    HW124872   6.100   2.777   7.235 -0.5552 -0.5341 -0.5739
 8098SOL    HW224873   6.229   2.770   7.157  0.5215  1.1164  0.9912
 8099SOL     OW24874   1.924   7.488   3.461  0.3233 -0.3841 -0.1189
 8099SOL    HW124875   1.950   7.571   3.500  0.1609 -0.1206 -0.5717
 8099SOL    HW224876   1.858   7.511   3.397 -0.9684 -1.0342  0.9314
 8100SOL     OW24877   1.251   6.270   2.827  0.1634 -0.0429  0.1101
 8100SOL    HW124878   1.193   6.197   2.846  1.2623 -0.5977  1.4818
 8100SOL    HW224879   1.197   6.330   2.775 -0.8962 -1.5933 -0.6844
 8101SOL     OW24880   5.207   0.890   6.158 -0.3873  0.4735  0.5976
 8101SOL    HW124881   5.208   0.980   6.125  1.0286 -0.2849 -1.6613
 8101SOL    HW224882   5.119   0.858   6.139 -0.9355  1.3516  1.5117
 8102SOL     OW24883   2.474   0.527   0.592  0.4047  0.4081  0.0595
 8102SOL    HW124884   2.399   0.468   0.589  0.6370  0.1214 -0.0762
 8102SOL    HW224885   2.548   0.474   0.562  0.3510  1.1646 -1.5200
 8103SOL     OW24886   4.857   6.373   6.635 -0.4231  0.3377 -0.0522
 8103SOL    HW124887   4.879   6.462   6.665  0.2177 -0.6221  2.5536
 8103SOL    HW224888   4.892   6.370   6.546 -0.1905  2.5961 -0.1099
 8104SOL     OW24889   2.655   5.295   9.257 -0.4758 -0.5583  0.0475
 8104SOL    HW124890   2.576   5.343   9.234  0.4517  0.4164 -1.2937
 8104SOL    HW224891   2.643   5.271   9.349 -0.5539  3.2097  1.1784
 8105SOL     OW24892   1.939   2.212   2.251  0.6896  0.5738  0.3971
 8105SOL    HW124893   1.940   2.220   2.347  0.4715 -1.7926  0.6511
 8105SOL    HW224894   2.023   2.172   2.230  0.0381 -0.5054 -0.2091
 8106SOL     OW24895   3.014   4.508   1.147  0.4712 -0.4990  0.1406
 8106SOL    HW124896   3.092   4.539   1.100 -0.2907  0.1590 -0.7354
 8106SOL    HW224897   2.992   4.424   1.106  1.2446 -1.1545  1.0226
 8107SOL     OW24898   9.511   5.212   7.601 -0.2845  0.6917  0.0697
 8107SOL    HW124899   9.528   5.122   7.627  1.8649  1.2564  0.7768
 8107SOL    HW224900   9.527   5.264   7.680 -0.3969  1.8060 -0.6121
 8108SOL     OW24901   1.533   0.459   5.894  0.0575 -0.5199 -0.1659
 8108SOL    HW124902   1.563   0.370   5.878 -2.3295 -1.6447  1.0376
 8108SOL    HW224903   1.501   0.458   5.984 -0.2731  1.4978 -0.2028
 8109SOL     OW24904   1.320   9.721   6.515  0.1024 -0.0583  0.1915
 8109SOL    HW124905   1.316   9.780   6.439  1.2702  1.9143  1.5767
 8109SOL    HW224906   1.229   9.696   6.530 -0.1303 -0.9072 -2.1058
 8110SOL     OW24907   5.571   8.184   2.143 -0.2831 -0.3915  0.3200
 8110SOL    HW124908   5.545   8.103   2.187  0.2844 -0.8160 -0.1082
 8110SOL    HW224909   5.538   8.254   2.199  2.0085 -0.8801  2.4430
 8111SOL     OW24910   2.696   7.406   6.421  0.2447  0.1644 -0.2188
 8111SOL    HW124911   2.612   7.417   6.375  0.8208 -0.5036 -1.5042
 8111SOL    HW224912   2.738   7.492   6.415 -0.2355  0.4292  0.1936
 8112SOL     OW24913   3.457   3.302   9.712  0.1401 -0.4225 -0.0421
 8112SOL    HW124914   3.517   3.374   9.731 -1.0275  0.4434  0.5511
 8112SOL    HW224915   3.510   3.223   9.723  0.8115  0.2326  2.0523
 8113SOL     OW24916   5.529   3.358   9.613  0.1312  0.1778 -0.0657
 8113SOL    HW124917   5.473   3.283   9.594  0.9369 -0.0789 -1.5732
 8113SOL    HW224918   5.540   3.357   9.708 -1.8292 -0.1705  0.1966
 8114SOL     OW24919   0.391   1.710   6.543  0.5006  0.0475 -0.5988
 8114SOL    HW124920   0.466   1.676   6.494  2.3995  0.9265  1.5367
 8114SOL    HW224921   0.397   1.805   6.534 -1.6067  0.1127 -2.0424
 8115SOL     OW24922   7.407   4.822   2.784 -0.3359  0.7690  0.4243
 8115SOL    HW124923   7.371   4.759   2.722 -0.0153  1.2084 -0.2172
 8115SOL    HW224924   7.366   4.906   2.760  0.2659  1.0600  0.3922
 8116SOL     OW24925   3.106   0.270   8.714 -0.3991 -0.6287 -0.0597
 8116SOL    HW124926   3.051   0.195   8.737 -0.3390 -0.4060  0.8776
 8116SOL    HW224927   3.158   0.286   8.793  0.2215 -0.1490 -0.5528
 8117SOL     OW24928   8.081   7.995   7.126  0.2128 -0.3927 -0.8472
 8117SOL    HW124929   8.157   7.987   7.069  1.0635 -1.3336  0.3842
 8117SOL    HW224930   8.114   8.034   7.207 -0.7418 -0.1907 -0.5335
 8118SOL     OW24931   1.562   9.083   8.091  0.1232  0.5630 -0.4937
 8118SOL    HW124932   1.540   9.117   8.178  0.2170 -1.2615  0.2925
 8118SOL    HW224933   1.490   9.112   8.035 -0.3037  1.1661  0.3503
 8119SOL     OW24934   5.721   5.360   5.235 -0.1464 -0.4191  0.2440
 8119SOL    HW124935   5.703   5.329   5.146 -0.2257  0.4331 -0.0530
 8119SOL    HW224936   5.769   5.289   5.277 -0.3345 -0.9324 -0.3987
 8120SOL     OW24937   8.128   2.337   5.969 -0.2354  0.4180 -0.9251
 8120SOL    HW124938   8.122   2.254   5.922  1.6004  0.6489 -1.6321
 8120SOL    HW224939   8.171   2.396   5.907 -0.9743  1.7348 -0.2123
 8121SOL     OW24940   0.509   7.599   9.281  0.1144  0.0345  0.2810
 8121SOL    HW124941   0.490   7.631   9.193  0.4638 -1.0551 -0.2131
 8121SOL    HW224942   0.599   7.568   9.276 -0.8764 -3.2801 -0.0506
 8122SOL     OW24943   9.263   5.437   7.025 -0.2846  0.1060  0.1410
 8122SOL    HW124944   9.183   5.418   7.075 -0.1505  1.6553  1.0287
 8122SOL    HW224945   9.334   5.417   7.086 -0.0258 -0.2473 -0.2735
 8123SOL     OW24946   4.631   8.408   4.335  0.1318  0.2703  0.0908
 8123SOL    HW124947   4.708   8.414   4.392 -0.2168  2.1440  0.4325
 8123SOL    HW224948   4.667   8.403   4.246  0.6608 -1.9610  0.3611
 8124SOL     OW24949   1.381   0.249   7.373  0.4081 -0.0503 -0.4415
 8124SOL    HW124950   1.459   0.288   7.335  0.1300  2.3968  1.2642
 8124SOL    HW224951   1.312   0.315   7.361 -0.7094 -0.9963  0.4850
 8125SOL     OW24952   0.125   7.128   4.900 -0.7573 -0.2916  0.7554
 8125SOL    HW124953   0.167   7.150   4.816 -0.9528 -2.4955  0.0288
 8125SOL    HW224954   0.031   7.133   4.882 -0.7993 -0.8582  0.7861
 8126SOL     OW24955   4.987   6.174   9.818  0.3693 -0.4408  0.1715
 8126SOL    HW124956   4.933   6.128   9.882  0.8750 -0.5457  0.5322
 8126SOL    HW224957   5.058   6.113   9.799  2.4102  1.0279  2.4686
 8127SOL     OW24958   0.722   9.140   6.292 -0.0871 -0.1558  0.3392
 8127SOL    HW124959   0.777   9.143   6.214  0.9734 -0.0943  1.0661
 8127SOL    HW224960   0.773   9.184   6.359 -0.5458 -1.0777  1.3292
 8128SOL     OW24961   1.165   2.102   3.146 -0.1517  0.7186 -0.0609
 8128SOL    HW124962   1.118   2.151   3.213  0.7175 -0.2475  1.3281
 8128SOL    HW224963   1.193   2.168   3.083  0.0522  1.8751  1.1790
 8129SOL     OW24964   3.332   5.292   0.187  0.2909  0.1878 -0.3712
 8129SOL    HW124965   3.358   5.363   0.246 -0.0805  0.3116 -0.3539
 8129SOL    HW224966   3.385   5.305   0.109  1.1112 -0.2375  0.0978
 8130SOL     OW24967   2.785   7.318   7.818 -0.3936  0.4669 -0.0703
 8130SOL    HW124968   2.797   7.223   7.813 -1.3917  0.2860  0.6557
 8130SOL    HW224969   2.874   7.353   7.822 -0.0054 -0.4093 -0.7654
 8131SOL     OW24970   7.127   6.735   8.351 -0.3134 -0.2139 -0.4413
 8131SOL    HW124971   7.075   6.664   8.312  1.2609 -0.6820 -1.7591
 8131SOL    HW224972   7.154   6.789   8.276  1.1974 -0.0566  0.1921
 8132SOL     OW24973   0.101  10.000   5.595  0.1190  0.3549 -0.2975
 8132SOL    HW124974   0.045  10.036   5.665  1.8663 -0.0786  1.4336
 8132SOL    HW224975   0.065   9.913   5.578  1.5980 -1.0322  2.6841
 8133SOL     OW24976   9.379   1.099   0.186 -0.9126  0.6992  0.1276
 8133SOL    HW124977   9.412   1.071   0.100  0.9441  1.8208  0.4000
 8133SOL    HW224978   9.332   1.024   0.220  0.1512 -0.5229 -0.9856
 8134SOL     OW24979   5.887   8.359   6.515 -0.4794 -0.4398 -0.4548
 8134SOL    HW124980   5.940   8.346   6.436  1.9021 -1.8437  1.2492
 8134SOL    HW224981   5.910   8.447   6.545 -1.0546 -0.0752 -1.0619
 8135SOL     OW24982   4.106   9.599   7.567  0.2582  0.0619  0.3838
 8135SOL    HW124983   4.193   9.594   7.605  0.5066 -0.3296 -0.2219
 8135SOL    HW224984   4.048   9.566   7.635  0.4951  0.9501  1.0430
 8136SOL     OW24985   6.265   9.683   2.732  0.1818  0.2484  0.0448
 8136SOL    HW124986   6.318   9.640   2.664 -0.7097  1.0518 -1.2097
 8136SOL    HW224987   6.220   9.754   2.685  1.6862  2.6868  2.0292
 8137SOL     OW24988   9.247   2.845   3.510 -0.3100  0.2571  0.3482
 8137SOL    HW124989   9.302   2.767   3.511  1.4658  1.3830 -1.1650
 8137SOL    HW224990   9.263   2.887   3.594 -0.0471 -0.2085  0.5335
 8138SOL     OW24991   5.533   7.215   6.891  0.3861  0.0471 -0.2039
 8138SOL    HW124992   5.627   7.202   6.904  0.0310 -2.1715  0.4621
 8138SOL    HW224993   5.499   7.235   6.979  0.1225  0.1886 -0.3341
 8139SOL     OW24994   3.939   0.501   4.595  0.2023 -0.7277  0.4527
 8139SOL    HW124995   3.879   0.531   4.663  1.5148  0.7822  0.9927
 8139SOL    HW224996   3.920   0.557   4.520  0.6253 -0.5509  0.4763
 8140SOL     OW24997   3.335   8.570   6.298  0.7159  0.2475 -0.5094
 8140SOL    HW124998   3.321   8.630   6.224 -1.1460 -0.4011 -0.7280
 8140SOL    HW224999   3.417   8.525   6.276  0.4081  0.3463 -1.9777
 8141SOL     OW25000   8.061   5.322   0.724 -0.0030  0.0339 -0.1121
 8141SOL    HW125001   8.015   5.402   0.750  0.3894 -0.0859  1.0091
 8141SOL    HW225002   8.112   5.348   0.647  0.1585  0.8840  0.2682
 8142SOL     OW25003   6.069   2.907   0.668  0.3279 -0.2643 -0.0394
 8142SOL    HW125004   6.121   2.972   0.621 -0.2174 -1.2385 -2.1419
 8142SOL    HW225005   5.988   2.901   0.617 -1.1146 -0.0752  2.1200
 8143SOL     OW25006   4.351   4.799   2.318  0.7666 -0.0292 -0.4050
 8143SOL    HW125007   4.417   4.814   2.385  0.0414  0.1548  0.2921
 8143SOL    HW225008   4.400   4.773   2.241  1.6985  0.8066 -0.1140
 8144SOL     OW25009   5.637   7.970   6.741  1.0416  0.3629 -0.3690
 8144SOL    HW125010   5.589   8.053   6.745  0.0258  0.0567 -3.4194
 8144SOL    HW225011   5.727   7.996   6.722  0.5583  0.8342 -2.2370
 8145SOL     OW25012   5.674   4.019   6.666 -0.1675 -0.3308 -0.7831
 8145SOL    HW125013   5.594   4.002   6.715  1.3014 -0.2780  1.8295
 8145SOL    HW225014   5.719   3.935   6.662  1.3631  0.3003  1.2293
 8146SOL     OW25015   4.665   7.458   7.361  0.0748  0.1344  0.2373
 8146SOL    HW125016   4.676   7.543   7.319  1.6850 -0.1187  0.0778
 8146SOL    HW225017   4.594   7.471   7.424  0.1247  1.5159  0.0407
 8147SOL     OW25018   5.067   9.631   7.783 -0.0077 -0.1174  0.5512
 8147SOL    HW125019   5.140   9.585   7.740 -0.9976  1.0059 -2.6021
 8147SOL    HW225020   4.990   9.580   7.759 -0.7101  1.0969  0.2084
 8148SOL     OW25021   7.692   6.475   7.154  0.2172  0.6747  0.3021
 8148SOL    HW125022   7.613   6.428   7.181  2.0470 -1.9914  1.3353
 8148SOL    HW225023   7.730   6.507   7.236  1.9171 -0.9972  0.2147
 8149SOL     OW25024   5.300   2.325   8.213  0.0694 -0.0259  0.1945
 8149SOL    HW125025   5.309   2.238   8.252  1.6903  0.2706  0.5700
 8149SOL    HW225026   5.249   2.311   8.134  0.7492 -1.4109 -0.0282
 8150SOL     OW25027   3.953   6.221   7.794  0.5884  0.5518 -0.3575
 8150SOL    HW125028   4.034   6.189   7.835 -1.2316 -1.9036  1.6314
 8150SOL    HW225029   3.909   6.270   7.863  0.0845  1.3443 -1.2322
 8151SOL     OW25030   0.751   6.013   1.129  0.2682 -0.0901  0.2777
 8151SOL    HW125031   0.671   6.059   1.155 -1.4543 -2.9711  0.4431
 8151SOL    HW225032   0.797   5.996   1.212  1.0351  1.3681  0.1994
 8152SOL     OW25033   1.569   1.881   5.525  0.2800 -0.6647  0.1170
 8152SOL    HW125034   1.568   1.855   5.433 -0.7228  0.7008 -0.2881
 8152SOL    HW225035   1.478   1.869   5.554  0.1394  0.7879  0.3527
 8153SOL     OW25036   5.484   9.961   0.269 -0.0845  0.3376  0.3619
 8153SOL    HW125037   5.499   9.922   0.355  0.6822 -0.2894 -0.0430
 8153SOL    HW225038   5.457  10.051   0.288 -0.8659 -0.0664  1.2805
 8154SOL     OW25039   2.409   6.449   0.439 -0.0310 -0.2564 -0.3305
 8154SOL    HW125040   2.350   6.506   0.488 -0.3497  1.0559 -2.1265
 8154SOL    HW225041   2.394   6.472   0.348  1.0664 -2.0807 -1.0204
 8155SOL     OW25042   3.508   4.778   9.449 -0.9686  0.5332 -0.2340
 8155SOL    HW125043   3.582   4.726   9.418 -0.1289  1.2903  0.4362
 8155SOL    HW225044   3.517   4.779   9.544 -0.9163  1.9220 -0.2264
 8156SOL     OW25045   9.688   5.070   8.379  0.3807 -0.4577  0.5670
 8156SOL    HW125046   9.724   5.119   8.305  1.3700 -0.7014  0.8837
 8156SOL    HW225047   9.758   5.067   8.443  0.7200 -3.1045  0.1820
 8157SOL     OW25048   3.575   2.440   0.418  0.2087  0.1139 -0.3378
 8157SOL    HW125049   3.650   2.387   0.447  0.6334  1.2626  0.7447
 8157SOL    HW225050   3.500   2.382   0.429  0.5156  0.0616  1.9628
 8158SOL     OW25051   9.959   8.509   5.729  0.7078 -0.4648  0.2325
 8158SOL    HW125052   9.871   8.484   5.703  1.2303 -0.6882 -1.3968
 8158SOL    HW225053   9.952   8.526   5.823 -0.6456 -2.3374  0.5208
 8159SOL     OW25054   6.935   0.778   8.828  0.3375 -0.5170  0.0418
 8159SOL    HW125055   6.921   0.689   8.861 -0.2969 -0.4602 -0.0594
 8159SOL    HW225056   6.900   0.777   8.740 -2.0237  0.4768  0.8962
 8160SOL     OW25057   4.149   5.525   0.443 -0.4488 -0.1397  0.0243
 8160SOL    HW125058   4.077   5.471   0.409  1.1477 -0.5685 -3.0781
 8160SOL    HW225059   4.112   5.613   0.449 -1.8453 -0.7477  0.8095
 8161SOL     OW25060   7.240   2.078   2.020 -0.7141  0.1911  0.2814
 8161SOL    HW125061   7.214   2.157   2.069 -1.3363 -0.1619  0.5233
 8161SOL    HW225062   7.210   2.005   2.074 -1.4569 -0.2075 -0.6612
 8162SOL     OW25063   8.742   6.828   5.932  0.1512 -0.2020 -0.1494
 8162SOL    HW125064   8.726   6.919   5.908 -1.2658 -0.7264 -1.3532
 8162SOL    HW225065   8.813   6.800   5.874  0.8261  0.1884  0.4539
 8163SOL     OW25066   3.198   1.176   7.986 -0.0113 -0.3374 -0.3913
 8163SOL    HW125067   3.284   1.191   7.948 -0.1524 -2.2536 -1.6043
 8163SOL    HW225068   3.202   1.086   8.020 -0.3489  0.7716  2.9790
 8164SOL     OW25069   4.545   9.072   5.744 -0.1379 -0.4970  0.2408
 8164SOL    HW125070   4.598   9.040   5.818  0.7709 -0.1915 -0.2640
 8164SOL    HW225071   4.549   9.167   5.750 -1.0946 -0.4600  0.5065
 8165SOL     OW25072   1.469   7.745   3.233 -0.3306 -0.3038 -0.2140
 8165SOL    HW125073   1.425   7.741   3.318  1.7502  2.2732  1.1238
 8165SOL    HW225074   1.538   7.679   3.239  1.7942  1.9079  1.4757
 8166SOL     OW25075   5.310   9.648   6.411 -0.2253  0.3011 -0.5468
 8166SOL    HW125076   5.242   9.581   6.408  0.4694 -0.3967 -1.1799
 8166SOL    HW225077   5.389   9.604   6.379  0.2747  1.3884 -0.8752
 8167SOL     OW25078   8.642   7.500   2.645 -0.2380 -0.7736  0.3214
 8167SOL    HW125079   8.585   7.576   2.651 -0.0122 -0.6190  0.5526
 8167SOL    HW225080   8.586   7.430   2.612 -0.8445 -0.9235  1.6137
 8168SOL     OW25081   2.305   8.125   8.965 -0.0138 -0.0636  0.5516
 8168SOL    HW125082   2.320   8.171   9.048 -1.6222 -0.0667  0.8741
 8168SOL    HW225083   2.218   8.086   8.974 -0.0154 -0.4868 -0.9609
 8169SOL     OW25084   3.344   0.235   8.437 -0.0038 -0.1103 -0.0464
 8169SOL    HW125085   3.325   0.219   8.529  0.3581  1.1470  0.2643
 8169SOL    HW225086   3.424   0.287   8.438 -0.3974  0.5366 -1.0410
 8170SOL     OW25087   5.008   3.446   0.584  0.1431  0.0561  0.4354
 8170SOL    HW125088   5.052   3.370   0.622 -0.2055 -0.1954  0.3439
 8170SOL    HW225089   5.003   3.509   0.656  1.0538  0.2647  0.3175
 8171SOL     OW25090   3.474   3.048   8.089  0.2269  0.1838 -0.1100
 8171SOL    HW125091   3.460   2.955   8.069  1.8342 -0.1312  0.1007
 8171SOL    HW225092   3.562   3.052   8.126 -0.0459  1.7232  0.4620
 8172SOL     OW25093   4.345   2.068   7.782  0.2522 -0.1097 -0.0172
 8172SOL    HW125094   4.286   2.059   7.857 -1.0835  1.4473 -0.8147
 8172SOL    HW225095   4.328   2.156   7.749  1.3610 -0.4836 -1.6928
 8173SOL     OW25096   5.223   3.120   4.675  0.5058  0.1625  0.3320
 8173SOL    HW125097   5.176   3.135   4.757  1.7764  0.6578  0.9997
 8173SOL    HW225098   5.185   3.184   4.614 -2.2261 -1.8650 -0.2964
 8174SOL     OW25099   4.996   8.974   1.888 -0.4891  0.3110  0.3305
 8174SOL    HW125100   5.017   9.057   1.931 -1.9663  1.1602 -0.5139
 8174SOL    HW225101   4.989   8.911   1.960  2.9782  0.2905  0.8330
 8175SOL     OW25102   1.476   3.615   0.609  0.0692 -0.0719 -0.1914
 8175SOL    HW125103   1.426   3.545   0.650 -0.8754  0.0023 -1.1705
 8175SOL    HW225104   1.488   3.680   0.678  1.3352 -1.3555  0.8613
 8176SOL     OW25105   2.764   3.582   1.244 -0.0713 -0.2667 -0.6225
 8176SOL    HW125106   2.854   3.609   1.263 -0.3682 -0.2162  0.7718
 8176SOL    HW225107   2.709   3.654   1.276 -0.6369 -0.4245 -1.2046
 8177SOL     OW25108   2.453   8.179   0.547 -0.6953  0.5149  0.3283
 8177SOL    HW125109   2.393   8.108   0.569  1.1444 -0.4312  2.7502
 8177SOL    HW225110   2.410   8.258   0.580 -1.6954  0.2174 -0.2346
 8178SOL     OW25111   4.300   8.990   2.895  0.2706  0.2186  0.3754
 8178SOL    HW125112   4.335   9.076   2.920  0.8566  0.1116 -0.0497
 8178SOL    HW225113   4.259   9.006   2.810  0.0786  0.1500  0.4553
 8179SOL     OW25114   4.779   5.505   9.254 -0.2879  0.5519  0.1596
 8179SOL    HW125115   4.715   5.554   9.202 -0.1173 -1.3724 -2.0170
 8179SOL    HW225116   4.857   5.561   9.255 -0.8076  1.3068 -0.3600
 8180SOL     OW25117   9.310   5.676   7.185  0.1344  0.5694 -0.1119
 8180SOL    HW125118   9.362   5.601   7.216 -1.4829 -0.8558 -0.6867
 8180SOL    HW225119   9.282   5.720   7.265  0.0490 -0.1971  0.2890
 8181SOL     OW25120   1.229   8.125   0.477 -0.7915  0.4352  0.6609
 8181SOL    HW125121   1.202   8.166   0.559 -2.0130  0.7303  0.1345
 8181SOL    HW225122   1.160   8.062   0.457 -0.7290  0.6537 -0.3349
 8182SOL     OW25123   6.940   5.799   2.328  0.0217 -0.1035  0.1358
 8182SOL    HW125124   6.971   5.878   2.283 -0.7779  0.1382 -0.0142
 8182SOL    HW225125   6.992   5.728   2.291  0.8132  0.3591  0.3334
 8183SOL     OW25126   5.860   4.093   0.343  0.4583 -0.4395 -0.4654
 8183SOL    HW125127   5.948   4.131   0.346  0.1765  0.1650  0.3061
 8183SOL    HW225128   5.831   4.091   0.435 -0.9822  0.8922 -0.8600
 8184SOL     OW25129   1.317   2.918   4.636  0.0832  0.1419 -0.2673
 8184SOL    HW125130   1.230   2.888   4.660 -0.0797 -0.1498 -1.2168
 8184SOL    HW225131   1.337   2.987   4.700 -1.8907  2.0324 -1.5849
 8185SOL     OW25132   1.602   8.074   3.945 -0.2646 -0.0840 -0.2368
 8185SOL    HW125133   1.644   8.126   4.013  0.6478  0.5570 -1.2583
 8185SOL    HW225134   1.603   7.984   3.979 -1.5610  0.4601  1.4044
 8186SOL     OW25135   7.959   7.238   1.034 -0.6580 -0.2890  0.5775
 8186SOL    HW125136   7.873   7.201   1.011  0.1981 -1.3664 -1.0464
 8186SOL    HW225137   8.022   7.172   1.008  0.7811  1.2047  0.0694
 8187SOL     OW25138   1.442   7.625   4.353 -0.0193  0.4766  0.1121
 8187SOL    HW125139   1.466   7.601   4.263 -0.0500  1.7384 -0.2630
 8187SOL    HW225140   1.348   7.607   4.358 -0.6433  2.8877 -1.0521
 8188SOL     OW25141   5.155   6.082   2.265 -0.9110 -0.5295  0.3926
 8188SOL    HW125142   5.142   5.995   2.229 -0.8349 -0.0786 -0.7916
 8188SOL    HW225143   5.219   6.123   2.206 -2.1632  0.8697 -0.0602
 8189SOL     OW25144   9.580   9.100   1.651 -0.4015 -0.0702 -0.1505
 8189SOL    HW125145   9.548   9.093   1.740  2.1757  0.2621  0.9052
 8189SOL    HW225146   9.659   9.044   1.650  0.6370  1.3283 -1.6666
 8190SOL     OW25147   6.553   4.227   3.494  0.2324  0.2445  0.0464
 8190SOL    HW125148   6.561   4.259   3.404 -0.2265 -0.9962 -0.4634
 8190SOL    HW225149   6.572   4.303   3.549  1.3472  0.8152 -1.0930
 8191SOL     OW25150   6.990   3.032   1.644  0.5897 -0.4571 -0.6782
 8191SOL    HW125151   7.009   2.954   1.695  0.1330 -0.8850 -1.1462
 8191SOL    HW225152   6.935   3.001   1.572 -2.4943  0.7801  0.9755
 8192SOL     OW25153   0.767   7.673   2.443  0.6306  0.5595 -0.0364
 8192SOL    HW125154   0.821   7.603   2.406  2.8365  1.2088  1.7115
 8192SOL    HW225155   0.715   7.629   2.512  1.1630  0.4337  0.2890
 8193SOL     OW25156   9.358   9.639   7.949  0.0092 -0.0200  0.0570
 8193SOL    HW125157   9.286   9.662   8.007 -0.4322  0.4476 -0.6636
 8193SOL    HW225158   9.421   9.594   8.005  0.6570  2.4006  1.4379
 8194SOL     OW25159   2.351   3.170   7.338  0.2893 -0.0875 -0.3118
 8194SOL    HW125160   2.430   3.162   7.391  1.0456  0.8766 -1.2461
 8194SOL    HW225161   2.287   3.212   7.395  1.2322  1.3422 -0.2603
 8195SOL     OW25162   5.293   0.919   0.963 -0.2696  0.2677  0.7023
 8195SOL    HW125163   5.259   0.969   0.889 -1.2763 -0.6173  0.5315
 8195SOL    HW225164   5.290   0.828   0.934  3.2327  0.1349  0.3235
 8196SOL     OW25165   6.200   7.619   1.522  0.0980 -0.2284  0.0612
 8196SOL    HW125166   6.153   7.678   1.581 -0.3306  0.2473 -0.7343
 8196SOL    HW225167   6.131   7.577   1.470  0.5312  2.0759 -2.6258
 8197SOL     OW25168   6.833   8.958   1.431  0.1689  0.0314  0.1529
 8197SOL    HW125169   6.856   8.866   1.444  1.6368  0.5561  1.4662
 8197SOL    HW225170   6.895   9.006   1.485 -2.2367  1.6889  1.5954
 8198SOL     OW25171   7.602   8.148   1.006  0.2406  0.4169  0.1477
 8198SOL    HW125172   7.647   8.081   0.953 -1.9025  0.0164 -1.2802
 8198SOL    HW225173   7.642   8.140   1.093  0.3673 -2.4687 -0.0717
 8199SOL     OW25174   6.092   4.815   4.999 -0.6557  0.1903  0.6406
 8199SOL    HW125175   6.120   4.729   4.966 -1.4461 -0.1274  0.7605
 8199SOL    HW225176   5.997   4.816   4.984 -0.7147  0.8827  1.0173
 8200SOL     OW25177   6.362   7.830   6.992 -0.0778 -0.1397  0.3167
 8200SOL    HW125178   6.271   7.832   6.962 -0.2401  2.7173  0.7128
 8200SOL    HW225179   6.412   7.802   6.916 -1.2437 -2.1148  0.1886
 8201SOL     OW25180   0.260   4.651   4.106  0.0697  0.0035 -0.1740
 8201SOL    HW125181   0.172   4.624   4.080  0.4384 -1.8736  0.4243
 8201SOL    HW225182   0.314   4.638   4.028 -0.0077  0.4122 -0.3032
 8202SOL     OW25183   3.036   0.677   1.822  0.5000  0.3648  0.3328
 8202SOL    HW125184   2.982   0.676   1.901  1.5114 -1.1926  1.0657
 8202SOL    HW225185   3.105   0.742   1.840  0.8713 -0.1624  0.8571
 8203SOL     OW25186   6.709   7.423   4.350 -0.1368  0.1761 -0.5965
 8203SOL    HW125187   6.769   7.357   4.314 -0.0190 -1.1818  1.8189
 8203SOL    HW225188   6.622   7.389   4.330 -0.1312  0.9205 -2.0176
 8204SOL     OW25189   3.599   1.744   8.249 -0.2608 -0.4791 -0.0628
 8204SOL    HW125190   3.536   1.745   8.178  0.0664 -0.6756 -0.3569
 8204SOL    HW225191   3.553   1.785   8.323  0.0046  1.4018 -0.8953
 8205SOL     OW25192   5.921   7.270   0.634 -0.5102  0.5486  0.3239
 8205SOL    HW125193   5.894   7.182   0.660 -1.3983  0.7311  0.0495
 8205SOL    HW225194   5.866   7.328   0.687  3.3101  1.1220  4.2490
 8206SOL     OW25195   9.349   5.323   6.295 -0.3001 -0.3365  0.6425
 8206SOL    HW125196   9.297   5.298   6.219 -0.6821 -0.8024  1.0449
 8206SOL    HW225197   9.383   5.240   6.328  1.9753  0.0770 -0.4965
 8207SOL     OW25198   5.259   2.906   3.709  0.2505 -0.2832 -0.3165
 8207SOL    HW125199   5.337   2.938   3.665  0.7280  0.3615  0.9541
 8207SOL    HW225200   5.289   2.833   3.763 -0.0410 -0.0855  0.1199
 8208SOL     OW25201   5.976   3.733   1.884  0.0058 -0.5664  0.3989
 8208SOL    HW125202   5.952   3.808   1.938 -0.8930  0.9173 -1.8768
 8208SOL    HW225203   5.928   3.659   1.923 -1.0919  0.5502  1.2550
 8209SOL     OW25204   5.927   6.162   0.512 -0.2636  0.1171 -0.2581
 8209SOL    HW125205   5.856   6.146   0.575  1.2125  1.2712  1.7835
 8209SOL    HW225206   5.959   6.074   0.491 -0.5640 -0.2869  0.8661
 8210SOL     OW25207   3.946   9.303   6.698  0.1113  0.7780  0.0044
 8210SOL    HW125208   3.927   9.317   6.605 -0.3351 -0.2015 -0.0578
 8210SOL    HW225209   4.015   9.367   6.717  1.7090 -0.3601 -1.5256
 8211SOL     OW25210   4.673   6.995   5.703 -0.3483 -0.1752  0.1943
 8211SOL    HW125211   4.659   6.901   5.692 -0.4177 -0.0007 -1.3345
 8211SOL    HW225212   4.759   7.001   5.745  1.2191 -0.8895 -2.6402
 8212SOL     OW25213   1.792   1.438   4.760  0.6517  0.1382 -0.3471
 8212SOL    HW125214   1.865   1.448   4.821  0.2852  0.3934  0.0558
 8212SOL    HW225215   1.796   1.516   4.705  1.2138 -0.2752 -0.9102
 8213SOL     OW25216   2.579   9.446   1.036  0.1389 -0.3025  0.4814
 8213SOL    HW125217   2.663   9.438   1.081 -0.9526  0.5582  2.8466
 8213SOL    HW225218   2.553   9.537   1.049 -0.1005  0.1341 -2.3503
 8214SOL     OW25219   0.299   2.730   7.541  0.0709 -0.7070  0.3880
 8214SOL    HW125220   0.206   2.713   7.559 -0.1191  0.1836  0.2976
 8214SOL    HW225221   0.341   2.645   7.553 -0.7315 -1.0934  0.5854
 8215SOL     OW25222   2.376   0.971   6.694  0.1893 -0.9688 -0.3272
 8215SOL    HW125223   2.444   0.968   6.762 -0.3069 -1.8137  0.1575
 8215SOL    HW225224   2.362   0.879   6.670 -1.6603 -0.9528  0.4994
 8216SOL     OW25225   7.399   7.817   6.707  0.0960 -0.0498  0.0535
 8216SOL    HW125226   7.388   7.822   6.802  0.8755  0.3489  0.1396
 8216SOL    HW225227   7.421   7.726   6.689  1.1744  0.1242  0.4188
 8217SOL     OW25228   8.280   0.975   2.186  0.2663  0.3740 -0.0583
 8217SOL    HW125229   8.241   0.949   2.103  0.3339 -1.1144  0.3477
 8217SOL    HW225230   8.211   1.023   2.232 -1.0203 -1.8466  0.4745
 8218SOL     OW25231   5.330   5.928   1.964  0.1874 -0.7451  0.0646
 8218SOL    HW125232   5.261   5.984   1.927  0.6086 -1.0171 -1.1653
 8218SOL    HW225233   5.283   5.871   2.025 -0.5450 -0.3737 -0.1331
 8219SOL     OW25234   6.639   1.259   5.858 -0.1729 -0.3232 -0.7398
 8219SOL    HW125235   6.675   1.177   5.890  0.3192  1.0636  2.6815
 8219SOL    HW225236   6.544   1.246   5.861 -0.0909 -1.1585 -1.4727
 8220SOL     OW25237   4.811   6.404   8.491  0.1820 -0.3596 -0.2244
 8220SOL    HW125238   4.904   6.401   8.469  0.4553  1.1083  0.5896
 8220SOL    HW225239   4.807   6.456   8.572 -1.2734 -1.0420  0.1754
 8221SOL     OW25240   7.883   3.302   8.620 -0.1751 -0.3526 -0.6774
 8221SOL    HW125241   7.923   3.217   8.602 -0.8920 -0.9954  0.5791
 8221SOL    HW225242   7.797   3.298   8.578  0.4975  0.5175 -2.2395
 8222SOL     OW25243   0.400   6.615   3.117 -0.3899 -0.4300 -0.4437
 8222SOL    HW125244   0.351   6.677   3.171  2.6095  2.7440 -0.9916
 8222SOL    HW225245   0.335   6.581   3.055 -2.4059  1.6269  0.3602
 8223SOL     OW25246   4.231   7.326   9.817 -0.9733  0.0076  0.1881
 8223SOL    HW125247   4.173   7.363   9.750  0.7582 -0.3720 -1.6307
 8223SOL    HW225248   4.230   7.232   9.801 -1.1052 -0.1772  1.2128
 8224SOL     OW25249   6.510   6.141   8.416  0.6932 -0.3565 -0.7061
 8224SOL    HW125250   6.519   6.161   8.509 -0.7227 -0.2424 -0.5676
 8224SOL    HW225251   6.427   6.182   8.391  0.0867 -2.0133 -1.5503
 8225SOL     OW25252   2.947   3.714   5.136  1.0007 -0.0904  0.9584
 8225SOL    HW125253   2.981   3.685   5.221  1.8676 -1.1894  0.2727
 8225SOL    HW225254   2.921   3.633   5.092  0.9182  0.4280  0.0339
 8226SOL     OW25255   1.032   9.712   3.062  0.0833 -0.0068  0.4867
 8226SOL    HW125256   1.108   9.682   3.111  1.6625 -0.1318 -1.9055
 8226SOL    HW225257   1.023   9.649   2.990 -0.8734  1.2864 -0.5876
 8227SOL     OW25258   7.097   6.454   9.538  0.0694  0.6511  0.8541
 8227SOL    HW125259   7.134   6.442   9.450 -1.1824  1.8837  0.1235
 8227SOL    HW225260   7.132   6.380   9.589 -1.5032 -1.8847 -1.4531
 8228SOL     OW25261   5.351   3.200   6.063  0.1319 -0.3866  0.0829
 8228SOL    HW125262   5.265   3.159   6.052 -0.9367  1.7536  0.0161
 8228SOL    HW225263   5.394   3.188   5.979 -0.2106 -1.1793  0.0083
 8229SOL     OW25264   2.276   0.453   8.933 -0.4781  0.4583 -0.1561
 8229SOL    HW125265   2.271   0.358   8.921 -2.5722  0.6763 -1.3455
 8229SOL    HW225266   2.367   0.475   8.911  0.0941 -1.2742  0.3497
 8230SOL     OW25267   3.503   9.885   8.864 -0.5851 -0.2244 -0.0261
 8230SOL    HW125268   3.537   9.933   8.940  0.6358  1.0825 -1.3267
 8230SOL    HW225269   3.416   9.855   8.891  0.3063 -0.9336  2.3271
 8231SOL     OW25270   7.649   3.315   3.167  0.2071 -0.4067  0.8874
 8231SOL    HW125271   7.626   3.321   3.260 -0.5636  0.5491  0.6525
 8231SOL    HW225272   7.615   3.230   3.139 -1.5592  0.2154  0.9775
 8232SOL     OW25273   5.972   8.859   3.404  0.2266 -0.5146 -0.0071
 8232SOL    HW125274   5.883   8.829   3.420  0.2861  0.0085  1.4744
 8232SOL    HW225275   6.009   8.794   3.344 -2.1816  1.0578 -3.5314
 8233SOL     OW25276   5.134   1.909   6.179 -0.7520  0.1321  0.1476
 8233SOL    HW125277   5.189   1.936   6.252  1.0992 -0.2130 -1.0430
 8233SOL    HW225278   5.074   1.983   6.165 -0.2793  0.7332  1.1919
 8234SOL     OW25279   4.722   2.804   0.269 -0.7872 -0.4266 -0.3743
 8234SOL    HW125280   4.634   2.830   0.296 -0.9057 -0.6535 -0.5345
 8234SOL    HW225281   4.747   2.735   0.331 -1.7420 -2.1661 -1.8267
 8235SOL     OW25282   4.078   3.198   7.905  0.6320 -0.0556  0.1057
 8235SOL    HW125283   4.069   3.153   7.822 -0.8327  0.6655 -0.1595
 8235SOL    HW225284   3.989   3.207   7.938  1.1567 -0.1277  1.6625
 8236SOL     OW25285   4.126   2.265   7.381 -0.0023  0.2430  0.1735
 8236SOL    HW125286   4.094   2.230   7.465  3.3590 -2.0270  0.6846
 8236SOL    HW225287   4.093   2.203   7.316  1.4615 -0.8958  0.4641
 8237SOL     OW25288   0.251   2.844   7.784 -0.0040 -0.2469 -0.3151
 8237SOL    HW125289   0.252   2.836   7.688  1.5534  2.0862 -0.5794
 8237SOL    HW225290   0.166   2.882   7.804  0.6181  1.7082 -1.1196
 8238SOL     OW25291   5.808   5.513   3.085 -0.2608 -0.1461 -0.3671
 8238SOL    HW125292   5.888   5.539   3.130  0.3779 -0.6485 -1.2079
 8238SOL    HW225293   5.764   5.455   3.148 -0.3816  0.7554  0.4170
 8239SOL     OW25294   9.612   7.441   2.109 -0.0668  0.5113 -0.4615
 8239SOL    HW125295   9.593   7.367   2.166 -2.0698  0.1411 -1.5295
 8239SOL    HW225296   9.693   7.415   2.064 -0.7378 -1.0815 -0.8387
 8240SOL     OW25297   5.861   9.199   5.103 -0.2381 -0.0714 -0.7760
 8240SOL    HW125298   5.786   9.144   5.126 -0.8615 -0.0081 -2.5059
 8240SOL    HW225299   5.829   9.289   5.113  0.1147 -0.0243 -0.0047
 8241SOL     OW25300   0.236   6.999   6.149  0.6702  0.0821  0.2222
 8241SOL    HW125301   0.310   7.025   6.205  0.7654  0.3043 -0.0045
 8241SOL    HW225302   0.159   7.036   6.192  0.7730  0.4973  0.0585
 8242SOL     OW25303   0.848   1.548   8.561 -0.2045 -0.2550  0.1681
 8242SOL    HW125304   0.895   1.629   8.580 -0.5268 -0.2729  1.0663
 8242SOL    HW225305   0.800   1.566   8.480  1.6849 -0.3873 -1.0284
 8243SOL     OW25306   0.675   0.136   9.006 -0.0389  0.5543  0.3751
 8243SOL    HW125307   0.615   0.141   9.081  0.0495  0.9871  0.4151
 8243SOL    HW225308   0.631   0.077   8.945  0.0107 -0.0261  0.8813
 8244SOL     OW25309   0.344   8.271   8.605  0.0738  0.0647 -0.2395
 8244SOL    HW125310   0.261   8.280   8.651 -1.0485 -2.6970 -1.4594
 8244SOL    HW225311   0.411   8.278   8.674 -1.2183  0.9767  0.9787
 8245SOL     OW25312   9.943   5.402   4.675 -0.3149 -0.4724  0.8296
 8245SOL    HW125313   9.848   5.402   4.662 -0.2364  1.2360 -0.0989
 8245SOL    HW225314   9.959   5.474   4.737  0.4875  0.5532 -0.5036
 8246SOL     OW25315   3.905   9.860   9.845  0.1695 -0.0381  0.2912
 8246SOL    HW125316   3.857   9.777   9.839  0.1626 -0.2115  2.1617
 8246SOL    HW225317   3.836   9.927   9.848  0.1705  0.0482 -0.9575
 8247SOL     OW25318   0.308   6.369   0.097 -0.4704 -0.0455  0.6394
 8247SOL    HW125319   0.402   6.353   0.089 -0.2725  0.9890  0.6801
 8247SOL    HW225320   0.272   6.288   0.132  0.5057 -0.2349  1.2346
 8248SOL     OW25321   0.032   5.297   7.416  0.1252 -0.4004  0.3334
 8248SOL    HW125322  -0.038   5.237   7.444 -0.3017 -0.5338 -0.9597
 8248SOL    HW225323   0.092   5.301   7.491 -1.0122 -0.6611  1.2922
 8249SOL     OW25324   4.770   4.366   4.125 -0.3345  0.0543  0.5426
 8249SOL    HW125325   4.813   4.426   4.186 -0.4855 -1.2856  2.0230
 8249SOL    HW225326   4.701   4.324   4.176 -0.5329 -1.0522 -0.5674
 8250SOL     OW25327   0.944   8.379   0.526 -0.1042 -0.5786 -0.4583
 8250SOL    HW125328   0.877   8.402   0.590 -0.3797 -0.1526 -0.8853
 8250SOL    HW225329   1.025   8.374   0.576 -0.1264  0.7924 -0.2395
 8251SOL     OW25330   9.224   3.956   3.733  0.0941  0.0067 -0.3753
 8251SOL    HW125331   9.189   4.033   3.687 -1.5678 -0.2954  0.3386
 8251SOL    HW225332   9.317   3.976   3.744  0.1839  0.8966 -2.2236
 8252SOL     OW25333   4.947   6.153   1.610  0.3289 -0.0377  0.7421
 8252SOL    HW125334   4.891   6.076   1.601 -0.6094  0.6841  0.2271
 8252SOL    HW225335   4.958   6.186   1.521  3.2528 -1.2624  0.5282
 8253SOL     OW25336   9.484   0.968   8.109  0.0776 -0.7297  0.3887
 8253SOL    HW125337   9.575   0.939   8.099 -0.3099 -1.6136 -0.8444
 8253SOL    HW225338   9.437   0.925   8.038 -0.9814  1.2025 -0.1637
 8254SOL     OW25339   1.911   4.775   2.081  0.0979 -0.6755  0.3782
 8254SOL    HW125340   1.839   4.743   2.134  0.4967 -2.1017  0.0913
 8254SOL    HW225341   1.884   4.863   2.054 -0.8743 -0.6232  1.4573
 8255SOL     OW25342   5.831   8.101   3.786 -0.0884  0.0972 -0.3035
 8255SOL    HW125343   5.858   8.024   3.835 -1.6391  0.7329  1.7355
 8255SOL    HW225344   5.786   8.067   3.709 -2.2660 -1.1793  1.4069
 8256SOL     OW25345   1.485   7.936   7.958  0.2276  0.0210  0.0527
 8256SOL    HW125346   1.569   7.908   7.923  0.2531 -0.3340  0.3906
 8256SOL    HW225347   1.503   7.959   8.050 -0.4156 -2.0175  0.7545
 8257SOL     OW25348   8.706   4.935   0.177 -0.1926 -0.4496  0.7268
 8257SOL    HW125349   8.613   4.956   0.179 -0.1778 -0.3416  2.6878
 8257SOL    HW225350   8.722   4.903   0.088 -1.8270  0.6327 -0.0047
 8258SOL     OW25351   6.767   5.187   8.339  0.4815 -0.5421  0.2082
 8258SOL    HW125352   6.684   5.233   8.326  1.6718  1.4529 -0.8810
 8258SOL    HW225353   6.754   5.136   8.419 -0.9513  1.6810  1.5010
 8259SOL     OW25354   6.444   0.534   2.942  0.2714  0.1402 -0.0704
 8259SOL    HW125355   6.390   0.460   2.969  0.1918  0.0782 -0.3987
 8259SOL    HW225356   6.405   0.564   2.860  0.7081  0.1243 -0.2843
 8260SOL     OW25357   4.908   3.133  -0.025 -0.2787 -0.1630  0.0781
 8260SOL    HW125358   5.000   3.141  -0.001 -0.1742  2.2139 -0.8992
 8260SOL    HW225359   4.865   3.108   0.057  1.0658 -0.2055  0.8044
 8261SOL     OW25360   9.182   4.062   3.125  0.7098  0.5249  0.1449
 8261SOL    HW125361   9.275   4.043   3.136  0.5738 -0.7071 -0.5815
 8261SOL    HW225362   9.179   4.146   3.080  1.4975  0.2457 -0.4555
 8262SOL     OW25363   9.384   4.035   2.827  0.4585 -0.2704  0.1436
 8262SOL    HW125364   9.385   4.069   2.737 -0.7285 -0.5539  0.0012
 8262SOL    HW225365   9.385   4.114   2.882  0.0819 -0.0614 -0.1423
 8263SOL     OW25366   0.595   0.849   2.461 -0.3632 -0.5406 -0.0966
 8263SOL    HW125367   0.682   0.880   2.485  0.8767 -2.9621 -1.1664
 8263SOL    HW225368   0.537   0.886   2.528  1.7038 -0.1438  1.5779
 8264SOL     OW25369   6.101   3.873   3.854  0.5449 -0.1244  0.6368
 8264SOL    HW125370   6.082   3.829   3.936  1.4787  0.3193  1.1155
 8264SOL    HW225371   6.022   3.923   3.835 -0.0984 -1.1042  0.6687
 8265SOL     OW25372   8.582   6.060   5.577  0.1282  0.0548 -0.1674
 8265SOL    HW125373   8.514   6.101   5.629  0.5901 -0.1743  0.6269
 8265SOL    HW225374   8.631   6.006   5.639  1.1826  0.4042 -0.6700
 8266SOL     OW25375   7.744   4.589   0.584  0.1191  0.1027 -0.3118
 8266SOL    HW125376   7.650   4.575   0.584  0.0952  0.2186  0.3766
 8266SOL    HW225377   7.755   4.684   0.580  0.1680  0.1748  0.9755
 8267SOL     OW25378   8.767   0.080   5.404  0.7149 -0.0128  0.0445
 8267SOL    HW125379   8.711   0.044   5.335  1.3769 -0.7968 -0.1026
 8267SOL    HW225380   8.836   0.126   5.356  1.0560 -0.3751  0.1857
 8268SOL     OW25381   2.507   8.451   8.282 -0.4957  0.0121  0.2647
 8268SOL    HW125382   2.508   8.357   8.299 -0.9386 -0.1460 -0.5277
 8268SOL    HW225383   2.599   8.478   8.283 -0.3404 -0.5143  0.0390
 8269SOL     OW25384   2.314   2.732   4.603  0.3905 -0.4428  0.3037
 8269SOL    HW125385   2.265   2.810   4.629 -1.2925 -1.5531  0.6374
 8269SOL    HW225386   2.323   2.740   4.508 -0.0927 -0.0241  0.2870
 8270SOL     OW25387   2.798   6.063   9.613 -0.0421  0.2040 -0.0547
 8270SOL    HW125388   2.848   5.991   9.652  0.5883  0.1526 -0.9363
 8270SOL    HW225389   2.771   6.116   9.688 -0.0805 -0.6682  0.5666
 8271SOL     OW25390   8.412   8.215   5.011 -0.7251  0.2221 -0.6525
 8271SOL    HW125391   8.465   8.288   5.042 -1.1750  0.5982 -0.7594
 8271SOL    HW225392   8.453   8.137   5.049  0.9100  0.3223 -2.0716
 8272SOL     OW25393   4.916   0.168   6.547 -0.2855 -0.3066 -0.6023
 8272SOL    HW125394   4.923   0.262   6.566 -1.7301 -0.2029 -0.4767
 8272SOL    HW225395   4.923   0.162   6.451 -1.0971  0.0409 -0.6926
 8273SOL     OW25396   5.469   6.768   8.954 -0.1493 -0.0477  0.3178
 8273SOL    HW125397   5.462   6.857   8.920 -0.9960  1.2455  3.4675
 8273SOL    HW225398   5.563   6.753   8.962  0.0345  0.0712 -1.2843
 8274SOL     OW25399   8.793   5.276   5.116  0.0591  0.2217  0.0113
 8274SOL    HW125400   8.822   5.306   5.030 -1.2406 -1.0865 -0.9394
 8274SOL    HW225401   8.823   5.185   5.121  3.2097  1.2274  2.4776
 8275SOL     OW25402   1.327   2.347   6.610  0.0186  0.1679  0.0581
 8275SOL    HW125403   1.415   2.379   6.631  0.1741  0.0138 -0.3514
 8275SOL    HW225404   1.341   2.256   6.585  0.1751  0.9004 -2.9327
 8276SOL     OW25405   0.954   2.795   3.843 -0.3630 -0.5294 -0.6638
 8276SOL    HW125406   0.862   2.792   3.870 -0.2907 -0.6225 -0.4254
 8276SOL    HW225407   0.952   2.781   3.749 -0.4944 -1.9711 -0.4669
 8277SOL     OW25408   0.238   1.456   8.046  0.0776  0.4671 -0.0783
 8277SOL    HW125409   0.245   1.430   7.954 -1.4551 -0.8813  0.1286
 8277SOL    HW225410   0.300   1.528   8.056  1.9990 -0.8896 -1.5840
 8278SOL     OW25411   9.808   6.316   3.050  0.2814  0.0863  0.2001
 8278SOL    HW125412   9.831   6.351   2.964  1.7190 -2.4668 -0.5598
 8278SOL    HW225413   9.868   6.359   3.110  1.0816 -0.0542 -0.4788
 8279SOL     OW25414   5.691   6.262   1.506  0.4126  0.3060 -0.0225
 8279SOL    HW125415   5.694   6.192   1.440  1.6529  0.1153  0.2144
 8279SOL    HW225416   5.625   6.234   1.568  2.2608 -1.6994  1.1718
 8280SOL     OW25417   7.399   9.084   4.902  0.0268  0.5320 -0.6834
 8280SOL    HW125418   7.468   9.099   4.836  0.7044 -0.2302 -0.1561
 8280SOL    HW225419   7.395   8.989   4.911  0.1206  0.6342  0.5585
 8281SOL     OW25420   1.884   8.973   6.801  0.6083  0.0904 -0.6374
 8281SOL    HW125421   1.817   8.905   6.793  0.6428 -0.0665  0.2394
 8281SOL    HW225422   1.834   9.053   6.821  0.7176 -0.2463  1.1595
 8282SOL     OW25423   6.533   1.217   9.138  0.2359  0.4257 -0.0408
 8282SOL    HW125424   6.440   1.238   9.126  0.0415  0.1698  1.0040
 8282SOL    HW225425   6.578   1.288   9.092 -0.4622  0.6689 -0.3824
 8283SOL     OW25426   7.149   9.501   9.248 -0.2004 -0.2131 -0.5549
 8283SOL    HW125427   7.190   9.441   9.310  0.0888 -1.3342 -1.7950
 8283SOL    HW225428   7.223   9.543   9.203 -0.3588  2.0120  1.0970
 8284SOL     OW25429   8.788   4.915   3.558  0.0185  0.1604 -0.4656
 8284SOL    HW125430   8.730   4.946   3.489 -0.3376 -0.3862 -0.4142
 8284SOL    HW225431   8.835   4.841   3.520 -1.6600 -1.4879  0.4764
 8285SOL     OW25432   9.215   0.835   8.452  0.4825 -0.0335 -0.5506
 8285SOL    HW125433   9.309   0.852   8.452  0.3948  0.4604  0.2589
 8285SOL    HW225434   9.193   0.816   8.543  0.0204 -1.4663 -0.9287
 8286SOL     OW25435   1.597   2.517   4.960 -0.4335 -0.6256  0.0590
 8286SOL    HW125436   1.616   2.610   4.967 -0.3171 -0.7345  1.3664
 8286SOL    HW225437   1.545   2.496   5.037  0.0660 -1.7670  0.1145
 8287SOL     OW25438   8.144   9.031   5.766 -0.2265 -0.5687  0.3165
 8287SOL    HW125439   8.157   8.957   5.825  0.4595 -0.7055  0.0025
 8287SOL    HW225440   8.102   8.993   5.689 -0.7328 -0.4641  0.5404
 8288SOL     OW25441   8.222   9.521   6.162 -0.2050 -0.4145 -1.2111
 8288SOL    HW125442   8.211   9.479   6.248 -0.6418  1.4891 -0.2904
 8288SOL    HW225443   8.306   9.566   6.169 -0.5803  0.3380 -1.5219
 8289SOL     OW25444   6.172   9.485   4.738  0.5443  0.2009  0.2328
 8289SOL    HW125445   6.137   9.568   4.706 -0.7704 -0.7585 -0.8621
 8289SOL    HW225446   6.201   9.439   4.660  0.2469 -0.8369  0.7191
 8290SOL     OW25447   5.216   9.366   6.098  0.1675 -0.7203  0.0680
 8290SOL    HW125448   5.141   9.331   6.049 -0.3603 -0.1517  0.4571
 8290SOL    HW225449   5.232   9.452   6.059  0.0801 -0.4888  0.5396
 8291SOL     OW25450   2.053   3.780   7.360  0.0270  0.0034  0.1652
 8291SOL    HW125451   2.105   3.772   7.280 -0.3430 -0.8144  0.0025
 8291SOL    HW225452   2.112   3.824   7.421  0.7124 -0.3701 -0.2089
 8292SOL     OW25453   8.303   1.354   2.112 -0.1971  0.6062  0.0321
 8292SOL    HW125454   8.210   1.378   2.113 -0.5397 -0.6450  0.3075
 8292SOL    HW225455   8.331   1.372   2.022 -1.3483 -1.1887 -0.7638
 8293SOL     OW25456   7.576   5.466   3.703 -0.4481  0.3513  0.0477
 8293SOL    HW125457   7.575   5.514   3.786  0.5587  0.7246 -0.1429
 8293SOL    HW225458   7.490   5.485   3.664  0.4162  3.3004 -0.7311
 8294SOL     OW25459   2.153   3.598   2.381  0.1315 -0.1907  0.3792
 8294SOL    HW125460   2.162   3.610   2.475 -1.0007 -2.3445  0.8151
 8294SOL    HW225461   2.117   3.681   2.349  1.3777  0.8990  1.6546
 8295SOL     OW25462   8.353   7.693   2.028  0.0338  0.1762 -0.7412
 8295SOL    HW125463   8.265   7.696   2.066 -0.1301 -0.2877 -1.0788
 8295SOL    HW225464   8.339   7.712   1.935  0.2732 -0.0055 -0.8146
 8296SOL     OW25465   4.899   2.368   2.251 -0.2320  0.1267  0.0736
 8296SOL    HW125466   4.884   2.294   2.309  1.3201  2.1888  3.4108
 8296SOL    HW225467   4.985   2.352   2.212 -0.3366 -0.2380 -0.0143
 8297SOL     OW25468   8.356   0.015   5.904 -1.1884  0.0403 -0.0140
 8297SOL    HW125469   8.292  -0.056   5.899 -2.4183  1.1527 -0.8013
 8297SOL    HW225470   8.324   0.080   5.841  1.1191  0.3457 -0.9838
 8298SOL     OW25471   5.517   5.568   7.166 -0.1696  0.2585  0.5611
 8298SOL    HW125472   5.426   5.593   7.151 -0.0775  1.0443  1.2615
 8298SOL    HW225473   5.554   5.558   7.078  0.1382  3.9585  0.1229
 8299SOL     OW25474   4.716   1.287   0.488  0.3239  0.0368  0.0336
 8299SOL    HW125475   4.633   1.317   0.524  0.3103  1.3908 -1.0277
 8299SOL    HW225476   4.692   1.216   0.428 -0.0090  0.0782  0.1170
 8300SOL     OW25477   7.165   9.811   2.721  0.2557  0.4708  0.3361
 8300SOL    HW125478   7.102   9.841   2.787 -0.2233 -1.2252  0.6942
 8300SOL    HW225479   7.249   9.807   2.767 -0.2870 -1.8928  1.2940
 8301SOL     OW25480   7.243   4.076   4.218  0.3972 -0.1286 -0.5881
 8301SOL    HW125481   7.177   4.037   4.274 -0.8383  2.7922  0.1528
 8301SOL    HW225482   7.324   4.073   4.270 -0.1151  0.0389  0.2331
 8302SOL     OW25483   8.807   3.841   0.183 -0.4125  0.1526  0.0753
 8302SOL    HW125484   8.837   3.888   0.104 -1.6520  0.7528 -0.0685
 8302SOL    HW225485   8.794   3.751   0.153  0.2036  0.1172 -0.1132
 8303SOL     OW25486   5.838   7.928   5.501 -0.0527 -0.1801 -0.5342
 8303SOL    HW125487   5.789   7.869   5.443 -0.1344  0.8163 -1.5077
 8303SOL    HW225488   5.895   7.977   5.442  2.7576 -1.8267  0.6271
 8304SOL     OW25489   2.819   4.935   6.529  0.1144  0.1431 -0.7325
 8304SOL    HW125490   2.754   4.865   6.519  0.2456 -0.1745  0.5687
 8304SOL    HW225491   2.882   4.919   6.458  0.8892 -1.9030  0.3435
 8305SOL     OW25492   4.648   5.946   9.351  0.4539 -0.2550  0.0254
 8305SOL    HW125493   4.622   5.866   9.396  1.2213  1.1161  3.1490
 8305SOL    HW225494   4.743   5.938   9.342  0.3500 -0.3553 -1.1127
 8306SOL     OW25495   7.644   3.155   6.934  0.1928 -0.9216  0.3656
 8306SOL    HW125496   7.630   3.212   7.010 -0.6067 -0.2541 -0.2638
 8306SOL    HW225497   7.619   3.208   6.859  0.2129 -1.8387 -0.3119
 8307SOL     OW25498   0.085   3.113   8.262  0.4547  0.2148  0.2412
 8307SOL    HW125499   0.074   3.180   8.195 -2.8974  1.1213  1.4971
 8307SOL    HW225500  -0.002   3.073   8.271  1.0134 -0.5794  3.2721
 8308SOL     OW25501   0.328   4.489   2.241 -0.6426 -0.1756 -0.6484
 8308SOL    HW125502   0.357   4.421   2.180  1.2542  1.6271 -1.9336
 8308SOL    HW225503   0.272   4.546   2.189 -1.0487  0.0231 -0.0028
 8309SOL     OW25504   2.225   1.122   2.561 -0.0773 -0.0372 -0.0741
 8309SOL    HW125505   2.186   1.061   2.624  0.3341 -0.6078 -0.3646
 8309SOL    HW225506   2.311   1.084   2.541  0.4396  0.9517  0.1957
 8310SOL     OW25507   9.154   1.417   7.501  0.2329  0.2959 -0.6933
 8310SOL    HW125508   9.200   1.431   7.584 -0.2694 -1.4759 -0.0728
 8310SOL    HW225509   9.140   1.322   7.497 -2.1459  0.6088 -1.4943
 8311SOL     OW25510   6.592   7.282   1.727 -0.3084  0.4067 -0.4368
 8311SOL    HW125511   6.603   7.371   1.696  1.2042  0.4415  0.0900
 8311SOL    HW225512   6.544   7.291   1.809  2.9518  1.1989  1.5842
 8312SOL     OW25513   5.018   9.322   3.017  0.0546 -1.0766  0.5039
 8312SOL    HW125514   4.946   9.260   3.024  1.5889 -2.8126  2.5451
 8312SOL    HW225515   5.056   9.306   2.931 -0.8820 -1.4687  0.1586
 8313SOL     OW25516   5.793   3.238   9.916 -0.2464  0.3123  0.0282
 8313SOL    HW125517   5.823   3.304   9.979  1.3327  1.4816 -1.8340
 8313SOL    HW225518   5.855   3.244   9.844 -2.0687 -0.8658 -1.7425
 8314SOL     OW25519   5.642   5.544   4.589 -0.6901  0.3471 -0.0968
 8314SOL    HW125520   5.560   5.536   4.638 -1.2848 -1.1383 -1.2450
 8314SOL    HW225521   5.684   5.458   4.600  0.5900  0.9935  0.2370
 8315SOL     OW25522   7.139   7.161   9.174 -0.7543 -0.1792  0.3746
 8315SOL    HW125523   7.054   7.126   9.202 -0.4822 -0.8341  0.4146
 8315SOL    HW225524   7.177   7.197   9.254 -0.5666 -0.8061  0.5766
 8316SOL     OW25525   4.432   2.441   9.757  0.5023 -0.2770  0.2249
 8316SOL    HW125526   4.422   2.451   9.662 -0.0149 -0.3685  0.2672
 8316SOL    HW225527   4.516   2.483   9.776  1.4775 -1.8311 -0.5091
 8317SOL     OW25528   7.058   5.644   3.823 -0.2517  0.4416  0.3410
 8317SOL    HW125529   7.115   5.568   3.831  0.8628  1.2303  0.1012
 8317SOL    HW225530   7.037   5.648   3.730 -0.8371  0.0631  0.4526
 8318SOL     OW25531   0.244   7.432   9.230 -0.0061  0.1264 -0.1291
 8318SOL    HW125532   0.262   7.351   9.183  1.2537  1.1345 -1.4554
 8318SOL    HW225533   0.223   7.496   9.161 -1.0356  0.9400  0.8879
 8319SOL     OW25534   3.395   9.009   1.487 -0.0150  0.2989 -0.1848
 8319SOL    HW125535   3.487   8.987   1.474  0.4618  1.0353  1.5463
 8319SOL    HW225536   3.375   8.978   1.576 -0.8675  1.8218  0.1944
 8320SOL     OW25537   2.046   8.159   2.297  0.2586 -0.2129  0.3732
 8320SOL    HW125538   2.011   8.173   2.385  0.0313 -0.2361  0.2868
 8320SOL    HW225539   2.002   8.080   2.267 -2.3738  1.6537 -1.1320
 8321SOL     OW25540   2.854   1.918   1.182 -0.6106 -0.0028 -0.0673
 8321SOL    HW125541   2.902   1.996   1.155 -1.5163  0.9884  1.1076
 8321SOL    HW225542   2.806   1.891   1.103 -1.6876  1.6960 -0.0498
 8322SOL     OW25543   5.821   9.353   6.038 -0.1593  0.2257 -0.1868
 8322SOL    HW125544   5.732   9.363   6.006  0.1806  1.7860 -0.7263
 8322SOL    HW225545   5.836   9.430   6.093  1.3818  0.8885 -1.4398
 8323SOL     OW25546   8.387   0.364   1.931  0.4626 -0.4530  0.4625
 8323SOL    HW125547   8.303   0.405   1.908  0.1094 -2.3375 -2.1559
 8323SOL    HW225548   8.435   0.431   1.979 -2.0770  1.0936  1.0354
 8324SOL     OW25549   1.890   3.991   4.740  0.3790  0.0130 -0.2995
 8324SOL    HW125550   1.920   4.041   4.664 -1.8470 -1.5140 -2.3328
 8324SOL    HW225551   1.803   4.026   4.758  0.3404 -0.5608  0.6861
 8325SOL     OW25552   1.944   9.629   1.350 -0.2508 -0.2830  0.2555
 8325SOL    HW125553   1.921   9.539   1.375 -1.1582 -0.4928 -1.2357
 8325SOL    HW225554   1.869   9.681   1.377 -0.5369 -0.2661 -0.5594
 8326SOL     OW25555   6.574   8.238   9.711 -0.0750 -0.2104 -0.0480
 8326SOL    HW125556   6.587   8.176   9.782 -0.1935 -0.3017 -0.1062
 8326SOL    HW225557   6.496   8.287   9.735 -0.4415 -0.6219 -0.3873
 8327SOL     OW25558   9.916   2.914   1.241  0.2932 -0.0359  0.4527
 8327SOL    HW125559   9.899   2.894   1.149  1.2994  0.8690  0.0401
 8327SOL    HW225560   9.832   2.944   1.276 -0.5159 -2.0009  0.3134
 8328SOL     OW25561   7.832   9.005   3.051  0.2445 -0.0689  0.4451
 8328SOL    HW125562   7.893   8.958   3.107 -2.3392 -1.5633  2.2482
 8328SOL    HW225563   7.831   9.095   3.086  2.7118  0.5388 -0.8563
 8329SOL     OW25564   7.196   8.420   6.529  0.4149  0.6159  0.4123
 8329SOL    HW125565   7.140   8.416   6.606 -2.3396 -2.6309 -1.4595
 8329SOL    HW225566   7.257   8.346   6.539  0.4835  0.5853 -0.1710
 8330SOL     OW25567   0.803   5.279   1.846 -0.4331 -0.5670 -0.1026
 8330SOL    HW125568   0.741   5.286   1.773  1.0355  0.3205 -1.3123
 8330SOL    HW225569   0.829   5.187   1.846 -0.8885 -0.6987 -0.3220
 8331SOL     OW25570   8.297   5.834   8.378  0.8456 -0.3231  0.2294
 8331SOL    HW125571   8.226   5.889   8.412  0.7385 -0.8520  0.8919
 8331SOL    HW225572   8.375   5.890   8.383  0.4989  0.2388 -0.4400
 8332SOL     OW25573   1.709   0.154   3.145 -0.0733  0.6310 -0.2778
 8332SOL    HW125574   1.643   0.088   3.123  0.4677 -0.5644  1.4869
 8332SOL    HW225575   1.659   0.230   3.173 -0.7233  0.0365  0.2054
 8333SOL     OW25576   4.041   5.071   4.222 -0.2247 -0.6637 -0.1367
 8333SOL    HW125577   4.106   5.134   4.251 -0.4971 -0.5989  0.3437
 8333SOL    HW225578   4.091   4.993   4.200  0.0255 -0.5829  0.1442
 8334SOL     OW25579   9.636   6.721   0.444 -0.5192 -0.4684  0.0178
 8334SOL    HW125580   9.558   6.704   0.496 -1.3820 -0.9436 -1.3851
 8334SOL    HW225581   9.689   6.642   0.453  0.5843  0.4576  2.2395
 8335SOL     OW25582   2.018   0.916   6.557  0.4301  0.3736  0.5231
 8335SOL    HW125583   2.053   1.003   6.536  1.3369  0.1183  0.9412
 8335SOL    HW225584   2.087   0.874   6.608 -0.3295 -0.2946  1.0304
 8336SOL     OW25585   7.672   7.818   1.521  0.1997 -0.2516  0.1050
 8336SOL    HW125586   7.714   7.875   1.585  0.4363 -0.1881 -0.1059
 8336SOL    HW225587   7.584   7.855   1.510  0.4556  0.2579 -0.2641
 8337SOL     OW25588   6.339   8.097   0.493 -0.0030 -0.3296 -0.0697
 8337SOL    HW125589   6.341   8.142   0.409 -0.7242 -0.9029 -0.4120
 8337SOL    HW225590   6.390   8.152   0.552 -0.6073  0.7661 -0.5500
 8338SOL     OW25591   5.219   5.896   8.386  0.3274 -0.1041  0.4417
 8338SOL    HW125592   5.198   5.972   8.333  0.2181  0.1971  0.9110
 8338SOL    HW225593   5.261   5.835   8.326  0.3269  0.2877  0.0439
 8339SOL     OW25594   7.454   3.834   2.863 -0.2127 -0.4264  0.2657
 8339SOL    HW125595   7.414   3.872   2.785 -0.9382 -0.9854  0.3565
 8339SOL    HW225596   7.383   3.787   2.906  0.6537 -1.9359  0.1301
 8340SOL     OW25597   8.298   5.726   0.737 -0.7839  0.8154 -0.0560
 8340SOL    HW125598   8.357   5.789   0.780 -0.4041 -0.2980  1.1337
 8340SOL    HW225599   8.287   5.656   0.802 -2.3453  0.3391 -0.7861
 8341SOL     OW25600   4.210   9.962   3.332 -0.0729 -0.1209  0.0214
 8341SOL    HW125601   4.160  10.024   3.385 -0.6952 -0.2709 -0.3786
 8341SOL    HW225602   4.180   9.876   3.362  1.2640 -0.2552  1.0328
 8342SOL     OW25603   3.305   8.218   1.601  0.3871 -0.3551 -0.6497
 8342SOL    HW125604   3.378   8.241   1.658 -1.5043  3.0312  0.7095
 8342SOL    HW225605   3.258   8.150   1.649  0.8492 -0.1709  0.0835
 8343SOL     OW25606   7.061   7.230   4.093 -0.3040  0.6466 -0.0911
 8343SOL    HW125607   6.990   7.229   4.157 -1.5571 -0.4249 -1.4400
 8343SOL    HW225608   7.023   7.194   4.013  1.4420  1.1424 -1.2194
 8344SOL     OW25609   4.770   0.652   9.582 -0.1189 -1.0920 -0.3137
 8344SOL    HW125610   4.733   0.620   9.500 -1.0667  2.6985 -1.5720
 8344SOL    HW225611   4.834   0.718   9.555  0.6378 -0.8007  1.9845
 8345SOL     OW25612   7.238   8.072   3.893 -0.0094  0.9046 -0.2979
 8345SOL    HW125613   7.331   8.068   3.917  0.1945 -0.6501 -1.2422
 8345SOL    HW225614   7.192   8.038   3.970 -0.1993  4.9910  1.6916
 8346SOL     OW25615   7.298   3.570   8.881 -0.0135 -0.2128  0.3261
 8346SOL    HW125616   7.255   3.646   8.920 -2.3574 -0.8056 -0.8632
 8346SOL    HW225617   7.356   3.606   8.815  1.6088  0.6446  2.1407
 8347SOL     OW25618   5.079   5.889   5.908  0.0875  0.1710  0.7961
 8347SOL    HW125619   5.126   5.875   5.990  0.1878  1.3291  0.9593
 8347SOL    HW225620   4.987   5.878   5.931  0.0892  0.8649  1.1594
 8348SOL     OW25621   8.734   5.909   5.768 -0.4261  0.1759 -0.0906
 8348SOL    HW125622   8.733   5.816   5.749  0.7555 -0.8890  4.1036
 8348SOL    HW225623   8.825   5.936   5.757 -0.6789  0.7680 -0.8524
 8349SOL     OW25624   8.983   6.829   9.071 -0.0651  0.6344 -0.4004
 8349SOL    HW125625   8.893   6.842   9.099  0.4279  3.6396  0.0982
 8349SOL    HW225626   9.029   6.801   9.150 -0.6302 -1.9265 -0.8690
 8350SOL     OW25627   9.832   6.134   2.495  0.4478  0.2676 -0.2197
 8350SOL    HW125628   9.835   6.038   2.501  0.8298  0.3136  0.5009
 8350SOL    HW225629   9.906   6.163   2.548  0.4414  0.9625 -0.5781
 8351SOL     OW25630   2.400   1.600   6.374 -0.3641  0.0261 -0.0995
 8351SOL    HW125631   2.366   1.646   6.451 -0.7973 -0.5789  0.0846
 8351SOL    HW225632   2.363   1.647   6.300 -0.1397  0.4692  0.0703
 8352SOL     OW25633   8.297   4.819   6.888  0.1314  0.0583  0.3024
 8352SOL    HW125634   8.252   4.791   6.967  0.0816 -1.0062 -0.0792
 8352SOL    HW225635   8.278   4.912   6.880 -0.2216  0.0757  1.3004
 8353SOL     OW25636   1.379   1.407   2.886  0.1494  0.2135  0.2055
 8353SOL    HW125637   1.346   1.469   2.821  0.4524  0.3734  0.2022
 8353SOL    HW225638   1.400   1.328   2.836 -0.2434  0.1054  0.2109
 8354SOL     OW25639   9.069   4.742   7.033  0.1693  0.1824 -0.6369
 8354SOL    HW125640   8.979   4.716   7.013  0.5256 -1.3506 -0.4099
 8354SOL    HW225641   9.086   4.705   7.120  0.6120  1.5745 -0.0989
 8355SOL     OW25642   1.436   0.537   9.771 -0.1647  1.0435  0.0974
 8355SOL    HW125643   1.387   0.537   9.688 -2.2882 -0.2215  1.2818
 8355SOL    HW225644   1.388   0.599   9.827  0.0725  0.3961  1.0300
 8356SOL     OW25645   6.237   3.011  -0.011 -0.0931 -0.3466  0.0718
 8356SOL    HW125646   6.171   3.007   0.059 -1.3708 -1.0556 -1.1226
 8356SOL    HW225647   6.249   3.105  -0.026 -2.6295 -0.1507 -1.2553
 8357SOL     OW25648   5.607   7.627   6.120  0.4115 -0.1438 -0.1484
 8357SOL    HW125649   5.682   7.660   6.071 -0.3706  1.8455 -0.0937
 8357SOL    HW225650   5.644   7.560   6.178  2.3096  1.2735  0.3948
 8358SOL     OW25651   1.553   1.674  10.003 -0.2446  0.4854  0.1912
 8358SOL    HW125652   1.627   1.682   9.943  0.2191 -0.9014  0.5532
 8358SOL    HW225653   1.482   1.639   9.950 -0.0333 -0.1103  0.3012
 8359SOL     OW25654   3.702   2.921   7.156 -0.1694 -0.4558 -0.3605
 8359SOL    HW125655   3.784   2.881   7.128 -1.0395 -1.9267 -0.9129
 8359SOL    HW225656   3.673   2.973   7.081  0.1098 -0.1521 -0.2610
 8360SOL     OW25657   9.230   8.278   5.311  0.9325  0.4023  0.7744
 8360SOL    HW125658   9.183   8.199   5.284  1.0081  0.6368 -0.0760
 8360SOL    HW225659   9.237   8.330   5.231  0.8929  1.2678  1.3271
 8361SOL     OW25660   8.309   1.560   4.759  0.4281  0.0351  0.3793
 8361SOL    HW125661   8.307   1.541   4.665  2.9118  0.8914  0.0839
 8361SOL    HW225662   8.362   1.490   4.797  0.1459  0.1613  1.0305
 8362SOL     OW25663   2.472   2.281   3.137 -0.0734  0.2116 -0.3667
 8362SOL    HW125664   2.531   2.356   3.134 -0.0737  0.1929 -0.9931
 8362SOL    HW225665   2.443   2.276   3.228  1.5216 -0.2828  0.1376
 8363SOL     OW25666   0.480   1.504   8.406 -0.0799  0.1069 -0.4065
 8363SOL    HW125667   0.463   1.418   8.366  2.2122  0.1271 -1.6185
 8363SOL    HW225668   0.540   1.547   8.345 -1.2374  2.6345  0.1487
 8364SOL     OW25669   0.954   8.505   5.550  0.8254 -0.1111 -0.4238
 8364SOL    HW125670   0.988   8.506   5.640  0.3548  1.3479 -0.2390
 8364SOL    HW225671   0.888   8.574   5.549 -0.4023 -1.2503 -1.4467
 8365SOL     OW25672   1.197   7.219   7.814 -0.6189  0.1703  0.0159
 8365SOL    HW125673   1.140   7.295   7.822  2.0251  2.1641  1.8810
 8365SOL    HW225674   1.181   7.169   7.894 -0.9983 -0.2400 -0.3111
 8366SOL     OW25675   3.916   9.096   3.551 -0.0557  0.3204  0.2784
 8366SOL    HW125676   3.977   9.022   3.540  0.4230  0.2677  2.7274
 8366SOL    HW225677   3.960   9.169   3.507 -0.2675 -0.6546 -1.6775
 8367SOL     OW25678   0.954   4.856   2.476 -0.2383  0.0393  0.1690
 8367SOL    HW125679   0.873   4.825   2.517 -1.2912  0.5707 -1.4321
 8367SOL    HW225680   0.960   4.808   2.394  1.7521 -0.8949  0.7985
 8368SOL     OW25681   2.576   0.399   1.101 -0.2683 -0.7117 -0.0678
 8368SOL    HW125682   2.486   0.369   1.116 -0.1570 -1.8607 -1.5286
 8368SOL    HW225683   2.596   0.371   1.012  0.8568  1.2760 -0.4906
 8369SOL     OW25684   2.575   2.327   5.164 -0.2100 -0.3674  0.0445
 8369SOL    HW125685   2.480   2.323   5.174 -0.1807 -0.8308  0.1671
 8369SOL    HW225686   2.588   2.364   5.077 -0.4896  0.8448  0.4977
 8370SOL     OW25687   6.885   7.389   9.924 -0.0311 -0.2284  0.1284
 8370SOL    HW125688   6.910   7.335   9.849  0.0159 -0.8549  0.5864
 8370SOL    HW225689   6.928   7.347   9.999 -0.1015  0.3729  0.5077
 8371SOL     OW25690   8.240   9.976   5.450  0.3288 -0.5817 -0.3179
 8371SOL    HW125691   8.317  10.018   5.412  1.3083 -0.8197  1.3082
 8371SOL    HW225692   8.205   9.921   5.380  1.0974  0.2475 -1.3660
 8372SOL     OW25693   0.753   2.773   4.544 -0.0340 -0.3972  0.0295
 8372SOL    HW125694   0.700   2.807   4.616  0.7849  0.1340  0.4080
 8372SOL    HW225695   0.691   2.760   4.472 -0.5514  1.0163  0.1742
 8373SOL     OW25696   3.849   1.352   1.713  0.2507 -0.6476  0.3230
 8373SOL    HW125697   3.835   1.347   1.619 -0.3181  0.7416  0.3099
 8373SOL    HW225698   3.897   1.272   1.735 -0.0909 -1.2448 -1.0491
 8374SOL     OW25699   3.652   8.635   1.913 -0.0476 -0.3060  0.5755
 8374SOL    HW125700   3.700   8.689   1.851 -2.1834  1.7529  0.5701
 8374SOL    HW225701   3.671   8.674   1.998 -0.2162 -0.6362  0.7656
 8375SOL     OW25702   6.096   5.570   9.018  0.2748 -0.5463  0.2963
 8375SOL    HW125703   6.158   5.502   9.042  0.2012 -0.5959  0.3469
 8375SOL    HW225704   6.032   5.571   9.089 -0.2665 -1.0946 -0.1673
 8376SOL     OW25705   4.666   5.733   6.725  0.1586  0.3415  0.3321
 8376SOL    HW125706   4.621   5.692   6.799 -0.7714  0.4843 -0.1387
 8376SOL    HW225707   4.643   5.825   6.731 -0.7816  0.2008 -0.7067
 8377SOL     OW25708   6.967   0.502   2.179  0.1096  0.4151 -0.6071
 8377SOL    HW125709   6.912   0.566   2.134  0.2395  1.2066  0.3241
 8377SOL    HW225710   6.949   0.419   2.135 -1.2958  0.7908 -0.7755
 8378SOL     OW25711   7.834   5.070   4.569  0.2382  0.3333  0.1371
 8378SOL    HW125712   7.920   5.110   4.552  0.1589  1.3516  1.8273
 8378SOL    HW225713   7.851   5.008   4.639 -0.1243 -0.7543 -0.7195
 8379SOL     OW25714   9.699   1.170   6.170  0.5151  0.1543  0.5836
 8379SOL    HW125715   9.717   1.080   6.194  2.0376 -0.2849 -1.8519
 8379SOL    HW225716   9.783   1.215   6.179  0.3421  0.7343 -0.5007
 8380SOL     OW25717   9.819   3.041   2.189 -0.2513  0.1581  0.1785
 8380SOL    HW125718   9.768   2.999   2.259 -1.1611 -0.8854 -1.0451
 8380SOL    HW225719   9.781   3.128   2.180 -3.6073 -1.3528 -2.2800
 8381SOL     OW25720   7.587   0.970   6.964  0.3836  0.2666  0.2462
 8381SOL    HW125721   7.559   1.061   6.965  0.1146  0.2347 -1.7781
 8381SOL    HW225722   7.678   0.973   6.936 -0.1789 -0.1757 -1.7449
 8382SOL     OW25723   6.700   6.534   0.261 -0.1467 -0.2176 -0.0109
 8382SOL    HW125724   6.783   6.486   0.259 -0.4941 -0.8830  0.8479
 8382SOL    HW225725   6.680   6.551   0.169 -0.5943 -2.7858 -0.4723
 8383SOL     OW25726   4.061   7.980   7.563  0.2903  0.2614 -0.7664
 8383SOL    HW125727   4.001   7.997   7.490  0.1349  3.1484 -0.1041
 8383SOL    HW225728   4.004   7.970   7.639  0.4995  3.0265 -0.1308
 8384SOL     OW25729   3.934   3.187   3.981  0.1217 -0.0290 -0.3359
 8384SOL    HW125730   3.871   3.229   3.921 -1.1848  1.0844  1.6869
 8384SOL    HW225731   3.911   3.222   4.067  1.8525 -1.6570  0.8519
 8385SOL     OW25732   8.860   7.200   3.579 -0.6120  0.1641  0.1657
 8385SOL    HW125733   8.920   7.127   3.565  0.5465  0.8035  1.5261
 8385SOL    HW225734   8.773   7.161   3.578 -0.1972 -0.7902 -1.8414
 8386SOL     OW25735   8.947   5.042   3.736 -0.1056 -0.0058  0.3529
 8386SOL    HW125736   8.894   4.985   3.680 -0.3591  1.3953 -0.9132
 8386SOL    HW225737   8.903   5.127   3.732  1.3794  0.7969  0.5234
 8387SOL     OW25738   1.196   8.527   7.302 -1.0685 -0.3215 -0.3010
 8387SOL    HW125739   1.242   8.575   7.371 -0.7986 -0.1567 -0.5912
 8387SOL    HW225740   1.125   8.483   7.347 -1.1651  0.1449  0.0143
 8388SOL     OW25741   2.082   6.895   4.045  0.4236  0.5172 -0.0540
 8388SOL    HW125742   2.128   6.973   4.076  1.8927 -0.6698  0.8569
 8388SOL    HW225743   2.151   6.838   4.011 -0.5105 -0.8214  0.2303
 8389SOL     OW25744   4.837   6.605   4.795 -0.0043  0.3728  0.1693
 8389SOL    HW125745   4.839   6.538   4.728  0.3476  0.4609  0.0901
 8389SOL    HW225746   4.890   6.676   4.760 -1.8862  1.4914 -0.5835
 8390SOL     OW25747   9.552   0.807   6.298  0.1314 -0.2166  0.0492
 8390SOL    HW125748   9.480   0.747   6.276  0.1810 -0.5330  0.7148
 8390SOL    HW225749   9.509   0.891   6.312  0.1821  0.1804 -1.9303
 8391SOL     OW25750   8.377   9.658   4.583  0.3064 -0.5013  0.4133
 8391SOL    HW125751   8.325   9.662   4.503  0.7294  0.6415  0.1666
 8391SOL    HW225752   8.457   9.611   4.558  1.0518  1.0406 -0.2361
 8392SOL     OW25753   5.707   6.622   3.170  0.0269  0.2823 -0.6006
 8392SOL    HW125754   5.688   6.681   3.097  2.7507 -0.7176 -2.2479
 8392SOL    HW225755   5.661   6.541   3.146 -0.1084  0.3446 -0.5565
 8393SOL     OW25756   3.773   1.075   5.890  0.3622  0.0971 -0.8934
 8393SOL    HW125757   3.841   1.064   5.957 -0.3039  0.4203 -0.1410
 8393SOL    HW225758   3.774   1.168   5.869 -0.0963  0.1717 -0.5998
 8394SOL     OW25759   1.226   9.371   1.826 -0.3168  0.3868  0.1121
 8394SOL    HW125760   1.271   9.318   1.760  0.1128  0.0012  0.7112
 8394SOL    HW225761   1.289   9.380   1.897 -1.3456 -0.5789  1.1796
 8395SOL     OW25762   7.432   7.918   1.453 -0.0583 -0.0485 -0.4042
 8395SOL    HW125763   7.371   7.989   1.430 -1.8404 -1.3747 -0.0456
 8395SOL    HW225764   7.394   7.880   1.532  1.1994 -1.0134 -0.2430
 8396SOL     OW25765   2.860   0.166   6.422 -0.7617 -0.6908  0.4219
 8396SOL    HW125766   2.792   0.210   6.371 -1.3882 -0.7271  1.1982
 8396SOL    HW225767   2.939   0.173   6.368 -1.2010  0.0396 -0.1526
 8397SOL     OW25768   7.964   5.452   9.475 -0.3028 -0.2947  0.5753
 8397SOL    HW125769   7.877   5.431   9.442 -0.1248 -0.5037  0.2310
 8397SOL    HW225770   7.949   5.480   9.565 -0.6244 -1.2553  0.8324
 8398SOL     OW25771   8.591   6.276   9.123  0.0326 -0.0568 -0.2459
 8398SOL    HW125772   8.582   6.345   9.057  2.4408 -1.3519 -2.0887
 8398SOL    HW225773   8.545   6.201   9.086 -2.5821  0.4093  1.7523
 8399SOL     OW25774   1.616   5.188   1.101 -0.3374 -0.4334 -0.7924
 8399SOL    HW125775   1.666   5.107   1.092  0.4767 -0.4424  2.5796
 8399SOL    HW225776   1.680   5.257   1.083  0.1674 -0.5023  0.6426
 8400SOL     OW25777   5.367   0.005   6.145  0.3131  0.2106  0.0556
 8400SOL    HW125778   5.342   0.029   6.056  0.6141  0.8047  0.1267
 8400SOL    HW225779   5.462  -0.008   6.141  0.1815 -0.8743  0.0476
 8401SOL     OW25780   0.609   4.831   5.239 -0.1203  0.0833  0.3322
 8401SOL    HW125781   0.685   4.773   5.226 -0.4503 -0.8272  2.1459
 8401SOL    HW225782   0.636   4.890   5.309  0.0133  1.8469 -1.1476
 8402SOL     OW25783   5.026   4.082   6.207  0.0276  0.9331  0.2018
 8402SOL    HW125784   4.999   4.123   6.289 -1.0904  1.0574 -0.2025
 8402SOL    HW225785   4.948   4.034   6.178  0.7442  0.0223 -0.2568
 8403SOL     OW25786   3.857   4.948   8.990  0.0097  0.3060  0.1603
 8403SOL    HW125787   3.788   5.015   8.993 -0.4467 -0.0381 -1.3324
 8403SOL    HW225788   3.921   4.983   8.928  0.4723  0.0030  0.4683
 8404SOL     OW25789   8.200   9.654   4.365  0.1261  0.8861  0.3893
 8404SOL    HW125790   8.133   9.692   4.422 -0.7128  0.7445 -0.4606
 8404SOL    HW225791   8.177   9.686   4.278  0.5033 -0.0654 -0.0751
 8405SOL     OW25792   0.801   4.981   0.343  0.7624 -0.2055  0.1631
 8405SOL    HW125793   0.825   5.039   0.414  0.0213 -2.4884  2.4165
 8405SOL    HW225794   0.712   4.951   0.365  0.6867 -1.3442 -1.4689
 8406SOL     OW25795   3.827   2.094   7.331 -0.3531 -0.6250 -0.0199
 8406SOL    HW125796   3.789   2.007   7.340 -3.2124  0.6308  1.1444
 8406SOL    HW225797   3.834   2.108   7.237 -0.0170 -2.0004 -0.2250
 8407SOL     OW25798   2.517   2.869   9.136 -0.6820  0.0338 -0.5712
 8407SOL    HW125799   2.590   2.814   9.106 -1.5567 -1.3155 -0.3064
 8407SOL    HW225800   2.450   2.807   9.163 -1.3404  1.2438  0.6904
 8408SOL     OW25801   5.842   4.116   2.954 -0.2628  0.0930  0.4387
 8408SOL    HW125802   5.782   4.068   2.897 -1.4279  1.4949  0.4143
 8408SOL    HW225803   5.825   4.208   2.934  0.3437  0.5802  2.0349
 8409SOL     OW25804   1.506   9.748   3.833  0.3850  0.2484  0.1101
 8409SOL    HW125805   1.599   9.751   3.811  0.7336  0.8095  1.5352
 8409SOL    HW225806   1.465   9.811   3.773  0.9922  0.3032 -0.2551
 8410SOL     OW25807   8.799   5.842   1.847 -0.4868  0.1049 -0.3766
 8410SOL    HW125808   8.839   5.763   1.883 -1.0793  0.6515  1.6022
 8410SOL    HW225809   8.750   5.812   1.770  2.0490 -0.8845 -1.7297
 8411SOL     OW25810   2.655   1.140   9.725  0.0534  0.5249 -0.1540
 8411SOL    HW125811   2.687   1.224   9.695 -1.0650  0.6789 -0.9564
 8411SOL    HW225812   2.560   1.148   9.725 -0.0554 -0.4331  0.6643
 8412SOL     OW25813   4.505   7.493   4.119  0.0054  0.0880  0.3369
 8412SOL    HW125814   4.505   7.561   4.187 -2.0342  0.0521  0.4125
 8412SOL    HW225815   4.465   7.417   4.160 -0.7282 -0.1149 -0.7260
 8413SOL     OW25816   4.710   7.690   7.638 -0.4125 -0.6341  0.3572
 8413SOL    HW125817   4.671   7.728   7.717 -1.8425  2.4040 -1.5932
 8413SOL    HW225818   4.637   7.683   7.577  0.8903 -1.6095 -1.1536
 8414SOL     OW25819   4.427   1.398   7.884  0.2133 -0.1539 -0.1332
 8414SOL    HW125820   4.441   1.481   7.928 -0.8639  0.6449 -1.2114
 8414SOL    HW225821   4.415   1.422   7.792 -1.3202 -1.3442 -0.2902
 8415SOL     OW25822   7.743   3.783   3.671  0.4875  0.2031 -0.0998
 8415SOL    HW125823   7.759   3.727   3.746  0.4674  1.8187  1.1660
 8415SOL    HW225824   7.814   3.847   3.673  0.5828  0.1861 -1.5753
 8416SOL     OW25825   4.027   1.072   5.630  0.9399  0.4027  0.2827
 8416SOL    HW125826   4.013   0.978   5.642 -0.2655  0.6708  1.0565
 8416SOL    HW225827   4.071   1.100   5.710 -1.2591  0.9996  1.3292
 8417SOL     OW25828   5.447   9.773   4.287 -0.2086  0.0334  0.4601
 8417SOL    HW125829   5.403   9.746   4.367 -0.3115 -0.4953  0.2266
 8417SOL    HW225830   5.467   9.691   4.242  0.2384  0.3084  0.1528
 8418SOL     OW25831   8.719   6.399   7.531 -0.1105 -0.3181  0.5744
 8418SOL    HW125832   8.637   6.402   7.483 -0.4419 -1.5302  1.0333
 8418SOL    HW225833   8.763   6.482   7.510 -1.1759  0.0759 -0.1369
 8419SOL     OW25834   6.837  -0.023   7.820 -0.7574 -0.2033 -0.1453
 8419SOL    HW125835   6.778   0.015   7.755 -0.2280  1.3397  0.2304
 8419SOL    HW225836   6.828   0.033   7.897  0.6582 -0.3434  0.1598
 8420SOL     OW25837   8.927   8.128   8.514 -0.7479 -0.1935 -0.2754
 8420SOL    HW125838   8.997   8.124   8.449  1.2201  1.6254  1.5801
 8420SOL    HW225839   8.848   8.148   8.463  0.2058 -1.4079 -2.3349
 8421SOL     OW25840   6.612   8.351   7.729  0.0181 -0.3874  0.3496
 8421SOL    HW125841   6.575   8.371   7.815 -0.2860  0.4349  0.0356
 8421SOL    HW225842   6.578   8.420   7.672  0.6504 -0.6213 -0.3173
 8422SOL     OW25843   7.802   1.225   2.803 -0.3274  0.2854  0.2052
 8422SOL    HW125844   7.745   1.300   2.821 -1.8777 -0.7335 -0.2120
 8422SOL    HW225845   7.881   1.241   2.855 -0.4662  2.3671 -0.1645
 8423SOL     OW25846   1.233   5.255   1.447  0.1440 -0.2768 -0.1203
 8423SOL    HW125847   1.222   5.325   1.383 -0.0903  1.5791  1.8412
 8423SOL    HW225848   1.327   5.237   1.446  0.0497 -0.8624 -1.5116
 8424SOL     OW25849   6.112   5.500   7.342 -0.4961 -0.1679 -0.2347
 8424SOL    HW125850   6.023   5.465   7.335 -1.1958  0.8983  2.0634
 8424SOL    HW225851   6.116   5.571   7.278 -1.0043 -0.7662 -0.9360
 8425SOL     OW25852   5.170   5.503   5.109  0.3946 -0.2188  0.5940
 8425SOL    HW125853   5.150   5.503   5.202  0.7955 -1.5307  0.7025
 8425SOL    HW225854   5.090   5.535   5.067  0.4294  1.0020  1.4081
 8426SOL     OW25855   8.954   0.882   4.417 -0.0117 -0.0303 -0.2806
 8426SOL    HW125856   9.034   0.829   4.426 -0.0174 -0.4173 -2.1641
 8426SOL    HW225857   8.883   0.819   4.419 -0.0952  0.0183 -1.1817
 8427SOL     OW25858   5.948   4.848   2.329 -0.4958  0.2567  0.5002
 8427SOL    HW125859   5.870   4.898   2.351 -0.0307  1.0621  0.3463
 8427SOL    HW225860   5.967   4.798   2.408 -2.5482 -1.8430 -0.2112
 8428SOL     OW25861   1.091   1.919   9.781  0.2638  0.5232 -0.6705
 8428SOL    HW125862   1.151   1.883   9.715  0.2570 -0.2905 -0.2444
 8428SOL    HW225863   1.073   1.845   9.839 -0.3865  1.0213 -0.2358
 8429SOL     OW25864   0.557   3.986   9.286 -0.8599  0.1151  0.4498
 8429SOL    HW125865   0.641   3.994   9.330  0.5545 -1.8941 -1.6422
 8429SOL    HW225866   0.547   4.069   9.239  0.6700 -0.1083 -0.3498
 8430SOL     OW25867   6.424   2.679   2.602 -0.0875 -0.6071  0.0767
 8430SOL    HW125868   6.337   2.700   2.636  0.2474  0.1018  0.5290
 8430SOL    HW225869   6.425   2.583   2.597 -0.1967 -0.7501  2.0059
 8431SOL     OW25870   5.028   6.074   4.325  0.2423 -0.2798 -0.1664
 8431SOL    HW125871   5.110   6.091   4.371 -1.1373 -1.4279  3.0256
 8431SOL    HW225872   5.054   6.021   4.249  2.4260 -0.6511  0.7588
 8432SOL     OW25873   2.937   0.785   6.140  0.0143 -0.1817 -0.2791
 8432SOL    HW125874   2.903   0.708   6.185  0.4657  0.9484  2.1856
 8432SOL    HW225875   2.877   0.856   6.165 -0.4760  0.3096 -2.5961
 8433SOL     OW25876   5.219   0.151   0.342  0.2318  0.1336  0.2470
 8433SOL    HW125877   5.219   0.247   0.340  0.0746  0.1236 -0.8620
 8433SOL    HW225878   5.199   0.125   0.252  0.1193 -0.9439  0.5679
 8434SOL     OW25879   9.634   4.761   1.750  0.0610 -0.8100 -0.1969
 8434SOL    HW125880   9.555   4.755   1.697 -1.3752  0.1537  1.7225
 8434SOL    HW225881   9.673   4.845   1.725 -0.2162 -0.6962 -0.2534
 8435SOL     OW25882   2.587   2.734   0.227  0.0266  0.2556 -0.1964
 8435SOL    HW125883   2.502   2.768   0.198 -0.9908 -2.2720 -0.4781
 8435SOL    HW225884   2.599   2.769   0.315 -1.0525  1.0874 -0.3695
 8436SOL     OW25885   7.190   9.563   3.168  0.3595  0.0471  0.0066
 8436SOL    HW125886   7.096   9.569   3.185  0.3163 -0.0639 -0.1825
 8436SOL    HW225887   7.222   9.497   3.230  0.8811  2.2774  2.2623
 8437SOL     OW25888   0.581   9.640   1.314 -0.2171  0.0711 -0.3654
 8437SOL    HW125889   0.591   9.731   1.287  2.1560  0.1283  0.4451
 8437SOL    HW225890   0.522   9.644   1.390  0.4440  1.0428  0.1132
 8438SOL     OW25891   0.713   6.388   6.217 -0.5260 -0.2074  0.2773
 8438SOL    HW125892   0.653   6.332   6.266 -0.7527 -0.5927 -0.4272
 8438SOL    HW225893   0.742   6.334   6.143 -0.1578  0.3446  0.0084
 8439SOL     OW25894   8.312   8.983   8.378  0.3428 -0.4810  0.0519
 8439SOL    HW125895   8.385   8.988   8.441 -0.6035  0.1887  1.1492
 8439SOL    HW225896   8.245   8.932   8.423 -0.1741 -0.3983 -0.6091
 8440SOL     OW25897   8.770   8.057   7.654 -0.0305 -0.2516  0.6543
 8440SOL    HW125898   8.776   7.993   7.583  1.8581 -0.1553  0.6750
 8440SOL    HW225899   8.733   8.135   7.613 -0.0226 -0.5561  0.0528
 8441SOL     OW25900   3.981   5.895   3.299 -0.4307  0.1316 -0.3828
 8441SOL    HW125901   3.973   5.923   3.390 -0.5747  1.2267 -0.7204
 8441SOL    HW225902   3.966   5.974   3.248 -1.0399 -0.6096 -1.3842
 8442SOL     OW25903   9.282   9.928   7.015 -0.3841  0.1994  0.4508
 8442SOL    HW125904   9.255   9.847   7.058  0.0346  0.1949  0.7108
 8442SOL    HW225905   9.250   9.997   7.073 -2.2053  0.2989 -0.5915
 8443SOL     OW25906   7.220   6.055   4.862  0.3154  0.1485  0.1395
 8443SOL    HW125907   7.225   6.051   4.957 -1.1489  0.0930  0.2275
 8443SOL    HW225908   7.304   6.093   4.836  0.1112  1.6786  1.5549
 8444SOL     OW25909   3.820   1.347   5.491 -0.6238 -0.0379  0.9244
 8444SOL    HW125910   3.890   1.352   5.425  0.1457 -0.5716  1.6724
 8444SOL    HW225911   3.763   1.421   5.471  0.0012  0.2440  0.1137
 8445SOL     OW25912   6.398   6.103   0.645 -0.1182  0.3490 -0.4991
 8445SOL    HW125913   6.310   6.101   0.683 -0.1221 -0.9627 -0.5154
 8445SOL    HW225914   6.451   6.051   0.705  0.8718  1.8554 -0.0161
 8446SOL     OW25915   5.938   1.310   3.331  0.2166  0.5291  0.1552
 8446SOL    HW125916   5.891   1.230   3.310 -3.1607  2.1774  0.7362
 8446SOL    HW225917   5.942   1.358   3.249  0.4621  0.5838  0.1995
 8447SOL     OW25918   1.363   7.544   8.550  0.1735  0.0309  0.1251
 8447SOL    HW125919   1.268   7.550   8.556  0.0264 -1.2252 -0.5442
 8447SOL    HW225920   1.395   7.570   8.637 -0.7801  0.3660  0.3811
 8448SOL     OW25921   8.214   7.056   0.947 -0.3092 -0.6326  0.0515
 8448SOL    HW125922   8.186   7.047   0.857  0.5079 -0.5803 -0.2179
 8448SOL    HW225923   8.240   7.148   0.955 -0.7931 -0.5276  0.4621
 8449SOL     OW25924   1.310   8.245   7.100 -0.6595 -0.1105  0.6038
 8449SOL    HW125925   1.304   8.155   7.133  2.0835 -1.0425 -1.1014
 8449SOL    HW225926   1.392   8.278   7.136  0.3023  0.2941 -1.7982
 8450SOL     OW25927   7.199   7.156   5.517 -0.1235  0.0901  0.5059
 8450SOL    HW125928   7.152   7.137   5.599 -1.6164 -0.4799 -0.4440
 8450SOL    HW225929   7.142   7.121   5.449  0.7867  1.1591 -0.8343
 8451SOL     OW25930   9.343   7.419   1.175 -0.3216  0.3152 -0.1469
 8451SOL    HW125931   9.433   7.387   1.178 -0.6216 -0.6440 -0.8638
 8451SOL    HW225932   9.342   7.496   1.232  0.7285 -0.2126  0.6002
 8452SOL     OW25933   9.455   8.861   4.988  0.1141 -0.4523  0.2375
 8452SOL    HW125934   9.379   8.914   4.965 -0.0360 -0.4840  0.6599
 8452SOL    HW225935   9.517   8.877   4.916 -0.3968 -0.6507 -0.2551
 8453SOL     OW25936   2.418   5.762   9.230  0.2518  0.0759 -0.1997
 8453SOL    HW125937   2.472   5.684   9.236  1.2343  0.6415 -1.3518
 8453SOL    HW225938   2.475   5.833   9.260 -0.0725  0.5821 -0.7622
 8454SOL     OW25939   2.652   0.482   6.836 -0.3221  0.0867  0.1287
 8454SOL    HW125940   2.705   0.494   6.757 -0.5523  0.9763  0.1013
 8454SOL    HW225941   2.628   0.571   6.862 -0.8736 -0.2489  0.7763
 8455SOL     OW25942   5.256   6.719   3.374 -0.4361  0.9229 -0.1695
 8455SOL    HW125943   5.319   6.780   3.337  0.5975 -0.4551 -0.7844
 8455SOL    HW225944   5.246   6.746   3.466  1.3988  0.9126  0.0580
 8456SOL     OW25945   0.161   3.030   2.797  0.2889 -0.5541  0.0265
 8456SOL    HW125946   0.130   2.948   2.836 -0.5106 -1.1345 -1.7286
 8456SOL    HW225947   0.168   3.011   2.704 -1.0058  1.6790 -0.6024
 8457SOL     OW25948   3.043   5.499   9.046  0.1189 -0.1392  0.0442
 8457SOL    HW125949   3.054   5.565   9.114 -2.3164  0.0141  0.3747
 8457SOL    HW225950   2.985   5.434   9.085 -0.9645 -0.2793 -1.6898
 8458SOL     OW25951   7.596   4.844   4.673  0.1250  0.2819 -0.4173
 8458SOL    HW125952   7.622   4.910   4.609  1.7381  2.2339  2.0542
 8458SOL    HW225953   7.644   4.765   4.648  2.3787  1.6006 -0.4936
 8459SOL     OW25954   7.661   8.899   9.725  0.7232  0.5693  0.0598
 8459SOL    HW125955   7.683   8.959   9.796 -1.0273  1.7630 -0.3213
 8459SOL    HW225956   7.730   8.834   9.726  2.2818  2.1477  1.0183
 8460SOL     OW25957   5.047   2.863   3.533 -0.0764 -0.4561  0.3815
 8460SOL    HW125958   5.113   2.869   3.601  0.0549  1.0052  0.1691
 8460SOL    HW225959   5.060   2.777   3.494  1.0065 -0.6070  1.0291
 8461SOL     OW25960   8.787   9.629   2.455  0.1242 -0.5729  0.0346
 8461SOL    HW125961   8.865   9.648   2.508 -0.3694 -0.6760  0.8206
 8461SOL    HW225962   8.734   9.708   2.462  0.1803 -0.4783 -0.5577
 8462SOL     OW25963   6.501   7.947   1.716 -0.2710  0.2253 -0.5798
 8462SOL    HW125964   6.493   8.043   1.714 -1.2648  0.1461 -1.1927
 8462SOL    HW225965   6.474   7.919   1.628  0.7775 -0.5763 -0.6664
 8463SOL     OW25966   6.410   9.013   2.850  0.1276 -0.4163  0.3779
 8463SOL    HW125967   6.340   9.012   2.915  0.1104  1.0614  0.4081
 8463SOL    HW225968   6.428   8.920   2.833 -2.1697 -0.8536 -0.0067
 8464SOL     OW25969   0.247   6.619   8.412  0.1739 -0.1054 -0.3414
 8464SOL    HW125970   0.328   6.642   8.459  0.5033 -1.5260 -0.1897
 8464SOL    HW225971   0.240   6.524   8.421 -2.1406  0.0991  0.6231
 8465SOL     OW25972   0.190   8.325   2.886 -0.6647 -0.3736  0.4643
 8465SOL    HW125973   0.272   8.303   2.932  0.2245  0.2396 -0.7619
 8465SOL    HW225974   0.151   8.241   2.866 -0.6460 -0.6683  1.5713
 8466SOL     OW25975   9.313   8.775   3.673 -0.2576  0.5490  0.3487
 8466SOL    HW125976   9.351   8.730   3.598  0.0201 -1.4593  1.6311
 8466SOL    HW225977   9.220   8.753   3.669 -1.0826  3.6966 -1.5568
 8467SOL     OW25978   5.221   3.285   8.786 -0.0538 -0.6109 -0.4006
 8467SOL    HW125979   5.258   3.249   8.868  1.9147 -0.5348 -1.1883
 8467SOL    HW225980   5.133   3.313   8.810  0.4591 -0.5796  1.7133
 8468SOL     OW25981   2.600   8.388   0.327  0.7891 -0.1907  0.1054
 8468SOL    HW125982   2.670   8.430   0.375 -0.5522  1.9641  0.3064
 8468SOL    HW225983   2.645   8.333   0.263  2.6327  0.5256  0.7103
 8469SOL     OW25984   4.306   5.526   7.932  0.5046  0.4844  0.0496
 8469SOL    HW125985   4.300   5.614   7.967  0.5180 -0.4103  2.4566
 8469SOL    HW225986   4.399   5.514   7.911  0.7494  0.5611  1.0746
 8470SOL     OW25987   7.844   0.554   4.062  0.3265  0.2314 -0.9279
 8470SOL    HW125988   7.754   0.522   4.052  0.0273  1.0154 -0.7995
 8470SOL    HW225989   7.841   0.644   4.031  1.1649  0.1419 -1.3009
 8471SOL     OW25990   6.889   1.822   5.175 -0.2724 -0.1088 -0.4112
 8471SOL    HW125991   6.921   1.878   5.104 -0.7385  0.2581 -0.3384
 8471SOL    HW225992   6.820   1.873   5.217  1.3459  0.5655  1.6306
 8472SOL     OW25993   3.784   2.549   4.925 -0.7711  0.6149 -0.3027
 8472SOL    HW125994   3.869   2.557   4.883 -1.2358  1.4994 -1.1192
 8472SOL    HW225995   3.803   2.540   5.018  0.2906 -1.4064 -0.6541
 8473SOL     OW25996   8.519   1.761   4.165 -0.0548  0.6026  0.0635
 8473SOL    HW125997   8.451   1.792   4.106 -0.9221 -0.9813  0.1909
 8473SOL    HW225998   8.593   1.739   4.107 -0.3964  0.3685 -0.2845
 8474SOL     OW25999   3.282   3.229   2.000  0.4344 -0.0682  0.2199
 8474SOL    HW126000   3.324   3.191   1.923  0.3695 -1.5404  0.8894
 8474SOL    HW226001   3.354   3.256   2.056  0.5187 -1.1890  0.6822
 8475SOL     OW26002   5.257   5.407   3.088  0.8571  0.4817  0.6125
 8475SOL    HW126003   5.307   5.482   3.121 -0.7127  1.2789  1.2999
 8475SOL    HW226004   5.312   5.369   3.019  1.0567  3.2115 -0.8608
 8476SOL     OW26005   5.067   8.127   1.974 -0.1427  0.2492  0.1326
 8476SOL    HW126006   5.006   8.089   2.037  0.9378 -0.2177  0.9498
 8476SOL    HW226007   5.132   8.172   2.029  0.1684  0.8412 -0.7121
 8477SOL     OW26008   1.774   8.575   2.111  0.2863  0.1752 -1.0604
 8477SOL    HW126009   1.801   8.487   2.140  0.6788  0.4691 -0.5234
 8477SOL    HW226010   1.810   8.583   2.022 -0.6867 -0.6262 -1.5458
 8478SOL     OW26011   3.792   2.091   8.542 -0.3362 -0.4202 -0.5059
 8478SOL    HW126012   3.783   2.167   8.484  1.3581 -0.4335 -0.8160
 8478SOL    HW226013   3.794   2.016   8.482 -2.1285 -0.7758 -0.1950
 8479SOL     OW26014   1.965   9.371   6.767  0.1708  0.0041 -0.1924
 8479SOL    HW126015   1.870   9.383   6.766  0.1411 -0.1150  0.6511
 8479SOL    HW226016   1.990   9.373   6.675 -0.6480  0.0464 -0.4230
 8480SOL     OW26017   6.851   5.556   8.470  0.1654 -0.2314  0.0954
 8480SOL    HW126018   6.771   5.589   8.428  0.6496 -0.5693 -1.1462
 8480SOL    HW226019   6.848   5.592   8.559 -0.6677  0.9149 -0.3644
 8481SOL     OW26020   1.857   1.120   8.989 -0.3204  0.1059 -0.3706
 8481SOL    HW126021   1.886   1.040   8.946  0.0636  0.9950 -1.8475
 8481SOL    HW226022   1.763   1.107   9.004 -0.5174 -0.1715 -1.6903
 8482SOL     OW26023   0.694   3.793   7.551  0.1570 -0.1758 -0.0241
 8482SOL    HW126024   0.663   3.780   7.640 -0.4574  1.1590 -0.0205
 8482SOL    HW226025   0.633   3.857   7.513  0.8194 -0.1954 -1.1762
 8483SOL     OW26026   4.509   6.792   3.497 -0.4201  0.3673 -0.6467
 8483SOL    HW126027   4.583   6.770   3.440 -0.6349  0.8276 -1.1147
 8483SOL    HW226028   4.532   6.753   3.581  0.8401  1.3486 -0.4950
 8484SOL     OW26029   5.158   3.624   1.786 -0.5819  0.3624  0.6503
 8484SOL    HW126030   5.250   3.632   1.810  0.1726  0.2585 -1.9176
 8484SOL    HW226031   5.120   3.708   1.808  0.7523  1.3265 -0.5027
 8485SOL     OW26032   3.557   5.505   7.994  0.0622 -0.0511 -0.0237
 8485SOL    HW126033   3.469   5.542   8.005 -0.2576 -0.0193 -2.3074
 8485SOL    HW226034   3.558   5.428   8.051 -0.8811  0.8152  1.2178
 8486SOL     OW26035   0.091   6.796   6.050  0.0664 -0.5204 -0.4641
 8486SOL    HW126036   0.056   6.881   6.025 -0.3589 -0.0910  1.4189
 8486SOL    HW226037   0.182   6.814   6.076 -0.1628 -0.5229  0.3831
 8487SOL     OW26038   2.273   6.736   3.412  0.0090 -0.1491  0.3237
 8487SOL    HW126039   2.292   6.701   3.325  0.8466  1.1504 -0.0361
 8487SOL    HW226040   2.298   6.828   3.407  1.0550 -0.2751  2.2403
 8488SOL     OW26041   1.313   8.702   4.654  0.4022 -0.1675  0.0297
 8488SOL    HW126042   1.378   8.632   4.656  0.8735  0.2813  0.9054
 8488SOL    HW226043   1.361   8.780   4.680 -0.3177  0.3173 -0.0794
 8489SOL     OW26044   0.120   3.262   3.218  0.1281  0.2247 -0.2868
 8489SOL    HW126045   0.155   3.201   3.283  0.5527  1.5627  0.7955
 8489SOL    HW226046   0.064   3.209   3.163  0.0304 -1.0353  0.9667
 8490SOL     OW26047   9.281   7.733   7.732  0.7033 -0.7982 -0.4494
 8490SOL    HW126048   9.322   7.660   7.779 -1.5037 -0.4679  2.2570
 8490SOL    HW226049   9.206   7.693   7.689  0.4941 -0.4281 -0.4241
 8491SOL     OW26050   8.313   2.191   1.967 -0.0631  0.2275 -0.1906
 8491SOL    HW126051   8.286   2.100   1.955  0.9547 -0.1935  0.5950
 8491SOL    HW226052   8.268   2.218   2.048 -1.9996  1.1113 -1.4697
 8492SOL     OW26053   2.512   9.221   9.790 -0.1474  0.5033 -0.1141
 8492SOL    HW126054   2.588   9.264   9.830 -0.7956  1.6495 -0.0619
 8492SOL    HW226055   2.496   9.144   9.845  1.6207 -0.3703 -0.7709
 8493SOL     OW26056   2.438   6.899   8.225  0.0496 -0.0075  0.4168
 8493SOL    HW126057   2.419   6.809   8.198 -1.0833  0.0544  0.9246
 8493SOL    HW226058   2.523   6.919   8.186 -0.0393 -1.0339 -0.3364
 8494SOL     OW26059   3.401   0.732   1.166 -0.3989  0.2723 -0.6118
 8494SOL    HW126060   3.481   0.756   1.213 -0.7888 -0.6720  0.5789
 8494SOL    HW226061   3.419   0.645   1.130 -0.7909  0.1734 -0.5736
 8495SOL     OW26062   1.172   0.322   9.599 -0.3676 -0.4199  0.1528
 8495SOL    HW126063   1.257   0.345   9.563 -1.5983  0.5139 -2.4175
 8495SOL    HW226064   1.154   0.390   9.664  0.6714 -0.3907  0.4150
 8496SOL     OW26065   9.908   7.199   7.808  0.1730 -0.0604 -0.0981
 8496SOL    HW126066   9.878   7.278   7.764 -1.4394 -0.6840 -0.1823
 8496SOL    HW226067   9.950   7.148   7.738 -0.2434  0.0028 -0.3966
 8497SOL     OW26068   8.157   9.105   8.208  0.5036  0.7385  0.3645
 8497SOL    HW126069   8.210   9.054   8.270 -0.2227  1.1328  1.3417
 8497SOL    HW226070   8.221   9.152   8.155  1.2089 -1.3968 -0.7947
 8498SOL     OW26071   9.555   3.016   0.736 -0.6099 -0.2294  0.5437
 8498SOL    HW126072   9.570   2.977   0.650  0.3989 -1.8321  1.3852
 8498SOL    HW226073   9.516   2.946   0.788  1.5900 -0.3551  2.2185
 8499SOL     OW26074   5.151   1.075   2.120 -0.2836  0.7190  0.2059
 8499SOL    HW126075   5.206   1.153   2.109 -1.2521  1.3170 -0.6074
 8499SOL    HW226076   5.063   1.110   2.138 -0.5034 -0.2048  1.0041
 8500SOL     OW26077   6.712   4.775   6.037  0.1287  0.0518 -0.2564
 8500SOL    HW126078   6.666   4.708   5.987  1.2337 -0.2496 -0.9073
 8500SOL    HW226079   6.796   4.785   5.992  0.0077  1.8475 -0.1471
 8501SOL     OW26080   2.740   9.306   7.404 -0.3301  0.1425 -0.0576
 8501SOL    HW126081   2.818   9.353   7.436 -0.7245  0.2922  0.7138
 8501SOL    HW226082   2.667   9.352   7.444 -0.8684  0.4542 -1.3713
 8502SOL     OW26083   1.055   1.304   3.757  0.4520  0.3005  0.1129
 8502SOL    HW126084   1.001   1.353   3.695 -0.2679  1.0655  1.3100
 8502SOL    HW226085   1.117   1.369   3.791  1.5755 -0.3640 -0.5737
 8503SOL     OW26086   7.154   6.858   0.074 -0.7867  0.0873 -0.0350
 8503SOL    HW126087   7.097   6.857   0.150  0.2786 -0.1563  0.7813
 8503SOL    HW226088   7.225   6.798   0.096 -0.1268  0.5044 -0.9452
 8504SOL     OW26089   1.364   7.901   4.131  0.1313 -0.1199  0.4009
 8504SOL    HW126090   1.415   7.980   4.151 -0.8263  0.7300 -0.4076
 8504SOL    HW226091   1.414   7.858   4.061 -0.0166  0.4949 -0.0987
 8505SOL     OW26092   9.750   5.129   0.592  0.4208  0.5187 -0.2059
 8505SOL    HW126093   9.709   5.173   0.517  1.6399  0.4355 -0.9547
 8505SOL    HW226094   9.709   5.043   0.594 -0.0731  0.7437 -0.3895
 8506SOL     OW26095   9.232   8.657   1.270  0.1224  0.6781 -0.4642
 8506SOL    HW126096   9.296   8.607   1.221 -0.0084  0.3964 -0.3523
 8506SOL    HW226097   9.158   8.667   1.211 -0.9102 -1.4888  0.3522
 8507SOL     OW26098   1.814   1.176   3.984 -0.0127 -0.3693 -1.1621
 8507SOL    HW126099   1.888   1.220   4.026 -0.4257 -1.8391  1.3234
 8507SOL    HW226100   1.783   1.238   3.918  1.5727  1.5298 -0.2278
 8508SOL     OW26101   4.836   5.999   6.894 -0.0802  0.2384 -0.2268
 8508SOL    HW126102   4.853   6.090   6.919  1.2784  0.3978 -1.5620
 8508SOL    HW226103   4.819   6.003   6.800  1.4351 -1.0137 -0.5953
 8509SOL     OW26104   0.098   5.929   9.871  0.0030  0.1601 -0.0144
 8509SOL    HW126105   0.134   5.870   9.806  0.5220  0.2157  0.2209
 8509SOL    HW226106   0.157   6.004   9.871  1.0844 -0.6241  1.8221
 8510SOL     OW26107   2.571   0.425   4.948 -0.0971  0.3968 -0.8260
 8510SOL    HW126108   2.572   0.486   5.021  0.1851  0.3996 -0.8303
 8510SOL    HW226109   2.577   0.338   4.988 -0.7936  0.3557 -0.8055
 8511SOL     OW26110   3.207   7.612   2.454 -0.0915 -0.0615  0.6349
 8511SOL    HW126111   3.221   7.679   2.386 -0.5458 -0.1691  0.4289
 8511SOL    HW226112   3.157   7.657   2.522  1.9204  0.5637  1.7675
 8512SOL     OW26113   3.994   1.142   7.987 -0.5293  0.5215  0.5703
 8512SOL    HW126114   4.039   1.059   7.976 -1.5209 -0.0260  0.5053
 8512SOL    HW226115   4.063   1.208   7.981  0.0596 -0.1779 -1.1553
 8513SOL     OW26116   7.115   1.149   2.378 -0.1713 -0.2514  0.3928
 8513SOL    HW126117   7.181   1.084   2.352 -0.4894  0.2707 -1.9559
 8513SOL    HW226118   7.161   1.205   2.440  0.6435 -1.6666  1.1341
 8514SOL     OW26119   9.544   2.959   9.629  0.0603 -0.3834 -0.5565
 8514SOL    HW126120   9.528   2.866   9.649  1.5419 -0.7955 -1.1618
 8514SOL    HW226121   9.512   2.970   9.539  2.4934 -1.0999 -1.6036
 8515SOL     OW26122   6.736   0.089   1.649 -0.5425  0.6632 -0.2184
 8515SOL    HW126123   6.681   0.159   1.614 -1.4269  0.2729  0.3341
 8515SOL    HW226124   6.805   0.077   1.584 -0.2650  2.1650 -0.2256
 8516SOL     OW26125   1.998   6.379   8.839 -0.4313 -0.6112 -0.3377
 8516SOL    HW126126   2.054   6.372   8.761  0.1673 -0.9240  0.1091
 8516SOL    HW226127   2.042   6.445   8.893 -1.6272  0.7037 -0.8972
 8517SOL     OW26128   7.144   4.010   0.309 -0.1277 -0.2438  0.0068
 8517SOL    HW126129   7.175   4.099   0.324 -0.6790  0.1463 -1.0323
 8517SOL    HW226130   7.215   3.968   0.260  1.1178 -1.1210  2.3967
 8518SOL     OW26131   9.384   0.436   5.834  0.4632  0.1606 -0.1186
 8518SOL    HW126132   9.313   0.376   5.814  0.4601 -0.4166  1.4650
 8518SOL    HW226133   9.440   0.388   5.894  1.9764  0.7647 -0.9981
 8519SOL     OW26134   8.293   7.999   6.305 -0.3585  0.1593  0.0545
 8519SOL    HW126135   8.309   7.956   6.221 -1.5154  2.5337 -1.5094
 8519SOL    HW226136   8.230   7.942   6.350  1.3797 -1.8883  0.0256
 8520SOL     OW26137   6.055   2.489   5.329  0.1043  0.0834  0.2355
 8520SOL    HW126138   6.123   2.554   5.344 -1.4028  1.5355  1.1073
 8520SOL    HW226139   6.079   2.415   5.385  1.2443  0.3269  0.0857
 8521SOL     OW26140   8.370   6.512   5.318  0.8043  0.2174 -0.2332
 8521SOL    HW126141   8.291   6.557   5.346  0.5521 -0.7176  0.5972
 8521SOL    HW226142   8.348   6.474   5.233  0.9287  1.3717 -0.8091
 8522SOL     OW26143   5.005   5.046   7.841 -0.2444  0.5911 -0.6644
 8522SOL    HW126144   4.959   5.001   7.770 -0.9141  0.8655 -0.4089
 8522SOL    HW226145   4.937   5.063   7.907  0.0150  1.9125 -0.7203
 8523SOL     OW26146   9.880   1.886   0.739 -0.5056 -0.4638 -0.3140
 8523SOL    HW126147   9.932   1.953   0.695 -0.5157  0.1615  0.6016
 8523SOL    HW226148   9.847   1.831   0.668  0.4225 -0.1656 -0.9914
 8524SOL     OW26149   7.656   4.261   8.200  0.4644 -0.3615  0.2335
 8524SOL    HW126150   7.708   4.341   8.205 -0.0918 -0.0151  0.6620
 8524SOL    HW226151   7.656   4.227   8.290 -0.6922  0.0707  0.4150
 8525SOL     OW26152   4.850   6.035   5.498  0.3305 -0.1939 -0.1715
 8525SOL    HW126153   4.771   6.060   5.545  0.1511 -0.6566 -0.2200
 8525SOL    HW226154   4.920   6.043   5.562 -0.0310 -1.6457  0.4349
 8526SOL     OW26155   1.604   6.258   8.234 -0.3382 -0.6931  0.5512
 8526SOL    HW126156   1.534   6.262   8.299 -0.2273 -0.6108  0.6670
 8526SOL    HW226157   1.617   6.348   8.206  0.5933 -0.5053  1.4782
 8527SOL     OW26158   2.825   3.444   0.735 -0.1800  0.6611  0.2918
 8527SOL    HW126159   2.787   3.532   0.744 -1.0197  0.3260  0.1536
 8527SOL    HW226160   2.765   3.387   0.784 -0.3375 -0.0138 -0.6598
 8528SOL     OW26161   4.280   3.779   8.633  0.6927  0.0446  0.1555
 8528SOL    HW126162   4.346   3.738   8.577  0.3742 -0.3704  0.0794
 8528SOL    HW226163   4.202   3.725   8.621  0.9420 -0.7681  1.8986
 8529SOL     OW26164   8.383   6.250   8.055  0.1409 -0.0946 -0.2144
 8529SOL    HW126165   8.316   6.315   8.076  0.8788  0.6517 -0.1100
 8529SOL    HW226166   8.398   6.259   7.961  0.3257 -0.0286 -0.1796
 8530SOL     OW26167   3.326   8.428   4.611 -0.1673 -0.2755 -0.1607
 8530SOL    HW126168   3.288   8.438   4.523 -0.6837 -0.9324 -0.0254
 8530SOL    HW226169   3.420   8.426   4.596 -0.2693 -1.0948 -0.7916
 8531SOL     OW26170   3.140   8.992   4.208 -0.2032 -0.1283 -0.1471
 8531SOL    HW126171   3.163   9.024   4.295  0.9062 -1.6764  0.1746
 8531SOL    HW226172   3.099   8.906   4.223 -1.1932  0.1510 -1.0873
 8532SOL     OW26173   1.677   6.592   3.835 -0.4404 -0.1246 -0.3160
 8532SOL    HW126174   1.637   6.623   3.754 -0.0471  1.7250  0.1509
 8532SOL    HW226175   1.757   6.645   3.844 -0.8496  0.2331  1.6354
 8533SOL     OW26176   1.220   1.606   0.448 -0.0331 -0.3096  0.1452
 8533SOL    HW126177   1.261   1.526   0.417 -0.3829 -0.7900  0.8743
 8533SOL    HW226178   1.278   1.637   0.518  0.1508  0.1268 -0.1988
 8534SOL     OW26179   0.115   2.969   3.141  0.1844  0.5997 -0.2308
 8534SOL    HW126180   0.124   2.910   3.216  1.2031  1.4537  0.3476
 8534SOL    HW226181   0.021   2.986   3.134 -0.1390 -1.0812 -0.4257
 8535SOL     OW26182   5.576   9.329   3.335  0.1308  0.2784 -0.5039
 8535SOL    HW126183   5.559   9.409   3.284 -0.8875  1.8314  2.0378
 8535SOL    HW226184   5.501   9.273   3.316 -0.6357  1.1554 -0.1564
 8536SOL     OW26185   7.274   1.882   6.032  0.7526 -0.3319 -0.9476
 8536SOL    HW126186   7.258   1.976   6.044 -0.5580 -0.6650  0.0975
 8536SOL    HW226187   7.358   1.867   6.075  0.8190  0.2916 -0.8426
 8537SOL     OW26188   8.162   8.129   4.111 -0.0816  0.0336 -0.3064
 8537SOL    HW126189   8.233   8.065   4.106  0.0563  0.0161  1.2978
 8537SOL    HW226190   8.207   8.212   4.127 -0.4130 -0.1580  1.9646
 8538SOL     OW26191   2.521   9.671   7.226 -0.5132 -0.0744 -0.2389
 8538SOL    HW126192   2.612   9.643   7.230 -0.2282  0.9803  1.5609
 8538SOL    HW226193   2.498   9.667   7.133  0.2585 -3.6820 -0.3806
 8539SOL     OW26194   0.355   4.531   6.664  0.2835 -0.1190  0.0409
 8539SOL    HW126195   0.275   4.581   6.682  1.8576  2.0882  1.4493
 8539SOL    HW226196   0.410   4.546   6.741  2.7207 -0.1511 -1.5991
 8540SOL     OW26197   1.370   0.959   9.381  0.1506 -0.6951 -0.4459
 8540SOL    HW126198   1.441   0.980   9.320  0.4831 -0.2300  0.0897
 8540SOL    HW226199   1.388   1.013   9.458 -1.4581  0.3485 -0.7534
 8541SOL     OW26200   9.700   9.822   6.604 -0.4014  0.5191  0.6754
 8541SOL    HW126201   9.624   9.791   6.654  0.5943 -0.8699  1.3751
 8541SOL    HW226202   9.760   9.857   6.670  2.1220 -3.7452  1.0152
 8542SOL     OW26203   4.714   8.403   8.200  0.1603 -0.2210  0.1010
 8542SOL    HW126204   4.758   8.389   8.116  2.8451 -2.3319  1.6818
 8542SOL    HW226205   4.682   8.316   8.225 -1.4573  0.5499  0.8922
 8543SOL     OW26206   8.002   2.120   0.533  0.3142  0.3034  0.4661
 8543SOL    HW126207   8.083   2.159   0.567  0.7769 -0.9969  0.9239
 8543SOL    HW226208   7.938   2.191   0.536  1.4757  1.4225 -0.0856
 8544SOL     OW26209   5.823   0.921   5.195 -0.1973  0.0856 -0.4198
 8544SOL    HW126210   5.802   1.009   5.228 -1.7715 -0.3024 -0.2972
 8544SOL    HW226211   5.746   0.869   5.216  0.5879 -1.2653 -0.7733
 8545SOL     OW26212   5.008   9.191   5.449  0.0391  0.1571 -0.0498
 8545SOL    HW126213   5.023   9.282   5.475  0.0784 -0.0598  0.7021
 8545SOL    HW226214   5.050   9.184   5.363 -0.6430  1.0509 -0.4693
 8546SOL     OW26215   7.975   4.991   2.632 -0.5562 -0.0935 -0.7391
 8546SOL    HW126216   8.042   5.059   2.622 -0.2103 -0.1274  0.9874
 8546SOL    HW226217   7.969   4.951   2.545  1.2318  0.3026 -1.0987
 8547SOL     OW26218   2.836   4.405   1.344  0.1121 -0.0467  0.4707
 8547SOL    HW126219   2.859   4.452   1.424  0.5100 -1.9550  1.5407
 8547SOL    HW226220   2.893   4.442   1.277  1.1580  0.2902  1.5056
 8548SOL     OW26221   0.073   5.039   5.236  0.2103  0.5543 -0.1482
 8548SOL    HW126222   0.026   4.963   5.269  3.7297 -1.4210  0.8851
 8548SOL    HW226223   0.046   5.046   5.145 -2.4056 -0.0144  0.4955
 8549SOL     OW26224   5.321   2.249   1.631 -0.2776  0.0864  0.5262
 8549SOL    HW126225   5.357   2.187   1.695 -0.1293 -0.2334  0.1392
 8549SOL    HW226226   5.291   2.323   1.683  2.7424  1.2739  0.7642
 8550SOL     OW26227   0.706   5.190   9.840  0.1880  0.2971  0.6852
 8550SOL    HW126228   0.794   5.207   9.872  0.1242 -0.5791  1.3439
 8550SOL    HW226229   0.707   5.222   9.750  0.4919  2.4279  1.3738
 8551SOL     OW26230   4.197   0.615   0.893 -0.3115 -0.0124  0.1445
 8551SOL    HW126231   4.251   0.548   0.851 -0.7191 -0.5482  0.4698
 8551SOL    HW226232   4.205   0.691   0.835 -0.9122 -0.7569 -0.9504
 8552SOL     OW26233   2.228   8.322   6.448  0.1134  0.0878  0.0414
 8552SOL    HW126234   2.143   8.312   6.489 -0.8224 -0.0713 -1.8189
 8552SOL    HW226235   2.229   8.413   6.417  1.5527  0.7831  1.9074
 8553SOL     OW26236   1.291   9.045   0.051 -0.4670 -0.4094 -0.2641
 8553SOL    HW126237   1.262   9.106  -0.018  1.3349 -0.4845 -1.1265
 8553SOL    HW226238   1.290   8.959   0.009  1.6728 -0.3266 -0.5874
 8554SOL     OW26239   0.189   8.769   4.202 -0.0189 -0.1165  0.5641
 8554SOL    HW126240   0.134   8.742   4.275 -0.6884  1.5473  0.7177
 8554SOL    HW226241   0.247   8.836   4.239  0.3687 -0.0378 -0.1716
 8555SOL     OW26242   7.604   0.475   5.105 -0.1145 -0.7208 -0.7831
 8555SOL    HW126243   7.566   0.514   5.026  1.2882 -1.7718 -2.0225
 8555SOL    HW226244   7.548   0.507   5.177 -0.9098  0.9436 -2.0851
 8556SOL     OW26245   3.054   5.259   7.330 -0.2152 -0.6463  0.7832
 8556SOL    HW126246   3.079   5.182   7.279 -1.0272 -0.9392  0.8013
 8556SOL    HW226247   3.041   5.328   7.265  0.3486 -0.5644  0.7520
 8557SOL     OW26248   6.298   8.944   8.371 -0.3946  0.0965  0.6838
 8557SOL    HW126249   6.360   8.875   8.346  1.0029  1.1479  1.1657
 8557SOL    HW226250   6.285   8.932   8.465 -2.2403 -1.1085  0.3492
 8558SOL     OW26251   5.672   5.705   5.563 -0.4685  0.2533 -0.2292
 8558SOL    HW126252   5.702   5.792   5.535 -0.8517  0.8739  1.2347
 8558SOL    HW226253   5.753   5.656   5.578 -0.2428  0.5550 -0.4279
 8559SOL     OW26254   4.098   3.089   9.008 -0.0260  0.2085 -0.2835
 8559SOL    HW126255   4.162   3.153   8.978 -1.4974  1.1882 -1.4456
 8559SOL    HW226256   4.102   3.095   9.104  1.5998  0.2350 -0.3305
 8560SOL     OW26257   7.201   1.651   8.156 -0.0402 -0.1675  0.8542
 8560SOL    HW126258   7.214   1.713   8.085  1.0273 -0.2812  0.9454
 8560SOL    HW226259   7.136   1.693   8.213  0.3129  0.6415  0.6701
 8561SOL     OW26260   4.539   1.607   4.982  0.8359  0.0431  0.3139
 8561SOL    HW126261   4.480   1.659   4.928  0.5519  0.0116  0.5936
 8561SOL    HW226262   4.590   1.556   4.919  0.8588  0.3828  0.0548
 8562SOL     OW26263   5.237   9.176   2.226 -0.1340  0.1092 -0.2039
 8562SOL    HW126264   5.234   9.112   2.155 -0.3361  2.4640 -2.4681
 8562SOL    HW226265   5.328   9.205   2.229  0.0554 -0.5953  1.1113
 8563SOL     OW26266   8.535   2.375   8.404 -0.2070 -0.9932 -0.4058
 8563SOL    HW126267   8.493   2.357   8.320 -0.2854  0.2763 -0.6642
 8563SOL    HW226268   8.490   2.453   8.437  1.6165  0.1800 -0.4967
 8564SOL     OW26269   5.239   6.212   6.169 -0.1223  0.0041 -0.1495
 8564SOL    HW126270   5.195   6.143   6.120 -0.8889  0.1160  0.3629
 8564SOL    HW226271   5.270   6.169   6.249 -1.5696  0.4656  0.6901
 8565SOL     OW26272   4.701   3.031   9.846 -0.0693 -0.5316  0.4017
 8565SOL    HW126273   4.778   3.066   9.890  0.2072 -0.9369  0.2420
 8565SOL    HW226274   4.671   2.960   9.903 -0.6436 -0.0421  0.7362
 8566SOL     OW26275   2.898   4.762   4.406 -0.6754 -0.0993 -0.1724
 8566SOL    HW126276   2.993   4.775   4.405 -0.6916  0.0564 -1.8596
 8566SOL    HW226277   2.862   4.844   4.373 -1.4125 -0.1653  0.4377
 8567SOL     OW26278   3.156   3.427   4.266  0.1259  0.2378  0.0317
 8567SOL    HW126279   3.218   3.462   4.202 -0.7852  2.3126  0.1965
 8567SOL    HW226280   3.182   3.467   4.349 -0.2781 -0.3870  0.4681
 8568SOL     OW26281   8.729   5.557   5.880 -0.2945  0.2728  0.1591
 8568SOL    HW126282   8.750   5.610   5.803 -0.6044 -0.3055 -0.3361
 8568SOL    HW226283   8.664   5.494   5.848  1.3583 -1.5630  0.2527
 8569SOL     OW26284   9.269   0.761   5.698 -0.0654 -0.1648 -0.8663
 8569SOL    HW126285   9.267   0.763   5.794 -0.2166 -1.4226 -0.8158
 8569SOL    HW226286   9.302   0.847   5.672  3.9923 -1.1129  0.4511
 8570SOL     OW26287   5.363   4.339   7.472 -0.3929 -0.2783  0.2140
 8570SOL    HW126288   5.325   4.257   7.502 -2.5266  0.4376 -0.3301
 8570SOL    HW226289   5.377   4.327   7.378  0.8062 -0.5268  0.4028
 8571SOL     OW26290   0.754   8.812   9.801 -0.7268  0.1839 -0.1960
 8571SOL    HW126291   0.726   8.773   9.718  2.0475  1.3079 -1.7754
 8571SOL    HW226292   0.796   8.894   9.777 -0.1709  0.7433  2.3685
 8572SOL     OW26293   8.604   1.170   3.739 -0.0417 -0.2373 -0.4619
 8572SOL    HW126294   8.689   1.173   3.695  0.5054 -0.2789  0.5422
 8572SOL    HW226295   8.540   1.183   3.670  0.8357  0.9749 -1.0863
 8573SOL     OW26296   6.570   3.028   9.369  0.4188  0.0986 -0.0266
 8573SOL    HW126297   6.651   3.064   9.406 -0.0948  1.4053 -0.1138
 8573SOL    HW226298   6.534   3.099   9.316 -1.6215  0.1651  1.3270
 8574SOL     OW26299   0.448   7.056   2.378 -0.3666 -0.8391  0.2760
 8574SOL    HW126300   0.529   7.078   2.331  0.3595 -0.2740  1.7314
 8574SOL    HW226301   0.450   6.961   2.386 -0.8884 -1.0395 -1.4459
 8575SOL     OW26302   9.283   8.620   0.094  0.7151  0.4771 -0.2299
 8575SOL    HW126303   9.300   8.692   0.154 -0.6496  1.0249 -0.4678
 8575SOL    HW226304   9.347   8.553   0.118  0.1687  0.6398  1.8785
 8576SOL     OW26305   3.905   0.707   9.026  0.2491  0.7807  0.0242
 8576SOL    HW126306   3.951   0.769   8.970 -0.5219 -0.4327 -2.0595
 8576SOL    HW226307   3.813   0.713   8.998 -0.3630  0.8581  1.8978
 8577SOL     OW26308   5.359   0.869   9.718 -0.1581 -0.5252 -0.2980
 8577SOL    HW126309   5.376   0.963   9.721  0.4373 -0.6419  0.8761
 8577SOL    HW226310   5.272   0.859   9.756 -0.7968 -0.3586 -1.6498
 8578SOL     OW26311   5.345   3.693   8.914 -0.6190 -0.3335  0.3213
 8578SOL    HW126312   5.387   3.769   8.955  0.0263  0.6225 -1.9277
 8578SOL    HW226313   5.251   3.709   8.926 -0.5027  0.9216 -0.2011
 8579SOL     OW26314   6.809   7.196   4.184 -0.0354  0.4378  0.1576
 8579SOL    HW126315   6.770   7.112   4.208  0.5760 -0.0036 -0.3497
 8579SOL    HW226316   6.789   7.207   4.091 -0.2952  0.9593  0.2695
 8580SOL     OW26317   2.303   4.992   8.572 -0.1364  0.5267  0.0188
 8580SOL    HW126318   2.324   5.001   8.479  0.8167  1.0676  0.2760
 8580SOL    HW226319   2.362   4.923   8.603  1.0544  1.7627  0.6523
 8581SOL     OW26320   7.102   8.460   5.384  0.1998 -0.0100 -0.0866
 8581SOL    HW126321   7.015   8.475   5.347 -0.6031 -1.2855  1.1933
 8581SOL    HW226322   7.125   8.371   5.358  0.5095 -0.1878  0.7440
 8582SOL     OW26323   2.983   0.382   6.075 -0.2371 -0.0460 -0.0218
 8582SOL    HW126324   3.036   0.404   5.999  0.8322 -0.4484  0.5818
 8582SOL    HW226325   2.893   0.378   6.042  0.0337  1.1543 -0.9559
 8583SOL     OW26326   0.633   4.994   8.153 -0.4968 -0.7677  0.4140
 8583SOL    HW126327   0.537   4.995   8.159 -0.4407  0.7666  2.2625
 8583SOL    HW226328   0.659   4.925   8.214 -0.3995 -3.4055 -2.3798
 8584SOL     OW26329   9.740   1.214   0.845  0.8445  0.5822  0.1949
 8584SOL    HW126330   9.736   1.268   0.924  2.3745 -1.1689  1.5705
 8584SOL    HW226331   9.669   1.150   0.856 -0.3377  1.6441 -0.9537
 8585SOL     OW26332   2.326   9.589   3.163  0.0365  0.7409  0.0801
 8585SOL    HW126333   2.345   9.679   3.135 -1.6785  1.5619  1.3430
 8585SOL    HW226334   2.249   9.565   3.111 -0.8949  0.8876  1.3537
 8586SOL     OW26335   4.335   6.343   3.746 -0.7340 -0.1047  0.3787
 8586SOL    HW126336   4.304   6.317   3.832 -0.7526 -4.8200 -0.7812
 8586SOL    HW226337   4.431   6.340   3.753 -0.7208  0.1202  0.3305
 8587SOL     OW26338   9.130   9.466   8.487  0.2280  0.0600 -0.1477
 8587SOL    HW126339   9.035   9.466   8.486  0.1935 -1.9528 -0.5027
 8587SOL    HW226340   9.155   9.515   8.408 -0.5200  0.0904 -0.3709
 8588SOL     OW26341   0.109   3.484   7.884  0.5453  0.6375 -0.0730
 8588SOL    HW126342   0.089   3.437   7.804 -0.7753  0.9611  0.0505
 8588SOL    HW226343   0.102   3.577   7.861 -1.6667  0.7409  0.8187
 8589SOL     OW26344   0.878   1.398   8.800 -0.5982  0.5062 -0.0493
 8589SOL    HW126345   0.846   1.475   8.847 -0.0294  0.5710  0.2463
 8589SOL    HW226346   0.878   1.423   8.708 -1.9717  0.2924 -0.1271
 8590SOL     OW26347   6.641   8.321   0.987 -0.0849  0.1578 -0.5216
 8590SOL    HW126348   6.601   8.265   1.054  0.1907  1.1472  0.4998
 8590SOL    HW226349   6.581   8.315   0.913 -0.3561 -1.0261 -0.2292
 8591SOL     OW26350   6.163   6.151   0.739 -0.7086  0.1431  0.4599
 8591SOL    HW126351   6.085   6.097   0.724 -0.9538  1.0378 -2.0417
 8591SOL    HW226352   6.130   6.241   0.740 -0.1266  0.4155  3.2312
 8592SOL     OW26353   2.320   7.986   3.172 -0.4551  0.2085 -0.5739
 8592SOL    HW126354   2.281   7.954   3.091 -0.6468  1.0161 -0.8184
 8592SOL    HW226355   2.259   8.053   3.203 -0.9046 -0.7829  0.7880
 8593SOL     OW26356   4.947   0.397   4.696  0.1373  0.4039 -0.3354
 8593SOL    HW126357   4.967   0.454   4.622  0.9314 -0.5275 -0.8670
 8593SOL    HW226358   4.954   0.309   4.661 -0.9801 -0.0389  0.4949
 8594SOL     OW26359   3.649   8.913   1.418  0.0938 -0.6922 -0.3264
 8594SOL    HW126360   3.742   8.934   1.427 -0.2462  0.9245 -0.3693
 8594SOL    HW226361   3.632   8.918   1.324 -0.1049 -0.6878 -0.2908
 8595SOL     OW26362   2.648   4.902   3.106 -0.4867  0.0844  0.1394
 8595SOL    HW126363   2.723   4.951   3.071 -0.6525  2.7698  3.0325
 8595SOL    HW226364   2.620   4.845   3.035  4.1120 -0.9077 -1.1854
 8596SOL     OW26365   3.658   5.422   2.702 -0.4676  0.0499 -0.5078
 8596SOL    HW126366   3.732   5.407   2.761 -1.5918 -0.0338  0.9378
 8596SOL    HW226367   3.668   5.356   2.633 -1.2943 -2.6212  1.7594
 8597SOL     OW26368   5.504   5.138   5.043 -0.0666 -0.0353 -0.0489
 8597SOL    HW126369   5.540   5.067   5.096 -1.9152 -0.6191  0.4975
 8597SOL    HW226370   5.581   5.178   5.001  0.9529 -3.2566 -1.5339
 8598SOL     OW26371   1.106   2.311   6.443  0.1091  0.5124  0.4423
 8598SOL    HW126372   1.179   2.335   6.501  0.7979 -1.3825  0.4204
 8598SOL    HW226373   1.068   2.395   6.417  3.0630  1.6499 -0.5690
 8599SOL     OW26374   8.696   8.949   5.772  0.3014 -0.2092  0.1238
 8599SOL    HW126375   8.602   8.960   5.754  0.3589 -0.3914 -0.3000
 8599SOL    HW226376   8.737   8.946   5.685  0.7523  0.3023  0.3113
 8600SOL     OW26377   3.407   1.814   2.486 -0.1436 -0.1171 -0.3616
 8600SOL    HW126378   3.467   1.885   2.507 -0.7254  0.2547  0.0927
 8600SOL    HW226379   3.354   1.803   2.566 -1.5970  0.5113 -1.2059
 8601SOL     OW26380   4.036   2.868   8.440  0.1721 -0.3556  0.5134
 8601SOL    HW126381   4.068   2.955   8.418  0.2763 -0.4053  0.4674
 8601SOL    HW226382   4.016   2.827   8.355  3.0945 -1.5255  0.2843
 8602SOL     OW26383   7.084   1.653   7.463  0.2753 -0.9675  0.1798
 8602SOL    HW126384   7.018   1.585   7.474 -0.1228 -0.3046  2.5354
 8602SOL    HW226385   7.037   1.735   7.477  0.4375  0.0570 -4.0106
 8603SOL     OW26386   2.961   6.738   8.823  0.4944 -0.3585  0.5247
 8603SOL    HW126387   2.871   6.719   8.799  1.0112 -0.7697 -1.2529
 8603SOL    HW226388   2.961   6.738   8.919 -1.1041 -1.6977  0.5690
 8604SOL     OW26389   2.121   8.566   1.594  0.2456  0.8990 -0.2461
 8604SOL    HW126390   2.187   8.553   1.662  0.1749 -0.4110 -0.3890
 8604SOL    HW226391   2.153   8.513   1.521  0.5063  2.5809 -1.3862
 8605SOL     OW26392   0.082   2.974   8.623 -0.4401  0.5154  0.4553
 8605SOL    HW126393   0.113   3.019   8.702  0.4522  1.6667 -0.5248
 8605SOL    HW226394   0.094   2.881   8.644 -0.3427  0.7860  1.7291
 8606SOL     OW26395   1.949   8.251   1.541  0.2669  0.0253 -0.3949
 8606SOL    HW126396   1.993   8.294   1.614 -1.3244 -0.4859  0.9461
 8606SOL    HW226397   1.995   8.281   1.463  2.1592  0.4397  0.8213
 8607SOL     OW26398   8.165   1.179   7.455 -0.2610  0.3986  0.3084
 8607SOL    HW126399   8.172   1.240   7.528 -0.0997  2.6353 -1.4799
 8607SOL    HW226400   8.253   1.142   7.447 -0.3732 -0.1698  1.4264
 8608SOL     OW26401   7.344   6.933   6.490  0.0292  0.3983 -0.2687
 8608SOL    HW126402   7.358   6.903   6.580 -0.6799  1.6079  0.2599
 8608SOL    HW226403   7.254   6.906   6.469 -0.2338  1.1842 -0.1717
 8609SOL     OW26404   0.861   1.600   4.852 -0.4902  0.0940 -0.1574
 8609SOL    HW126405   0.785   1.653   4.828 -1.6696 -1.5674 -0.3243
 8609SOL    HW226406   0.913   1.595   4.772 -0.2299  1.1568 -0.0711
 8610SOL     OW26407   3.566   6.055   9.190 -0.2266  0.6404 -0.1357
 8610SOL    HW126408   3.547   6.044   9.097 -0.6820  2.7763 -0.3294
 8610SOL    HW226409   3.482   6.078   9.229  0.1024  0.4758  0.6922
 8611SOL     OW26410   6.623   7.587   0.699 -0.2660  0.3318  0.2585
 8611SOL    HW126411   6.672   7.551   0.773 -0.8417  0.3217  0.6372
 8611SOL    HW226412   6.620   7.516   0.635 -0.0881  0.2201  0.3727
 8612SOL     OW26413   0.283   5.648   1.474 -0.4040 -0.8304 -0.1319
 8612SOL    HW126414   0.289   5.718   1.410  1.0381 -1.1169 -0.3604
 8612SOL    HW226415   0.202   5.664   1.521 -0.3614  0.6798 -0.5321
 8613SOL     OW26416   6.961   2.630   3.597 -0.4167 -0.1195 -0.0635
 8613SOL    HW126417   6.872   2.665   3.601  0.0807  1.2865 -0.6159
 8613SOL    HW226418   6.971   2.603   3.505 -0.0926  0.2527 -0.1401
 8614SOL     OW26419   9.286   4.369   1.856 -0.5174  0.2061 -0.3342
 8614SOL    HW126420   9.229   4.296   1.833 -0.0324  0.3859 -2.3347
 8614SOL    HW226421   9.282   4.375   1.951  0.2711 -3.1160  0.0062
 8615SOL     OW26422   3.060   5.270   0.087  0.4484 -0.0424  0.3322
 8615SOL    HW126423   3.036   5.351   0.042  0.6319 -0.1386  0.0631
 8615SOL    HW226424   3.155   5.277   0.100  0.2254  0.5846  1.8659
 8616SOL     OW26425   9.416   1.540   3.990 -0.4703  0.2326 -0.0613
 8616SOL    HW126426   9.349   1.560   3.924 -1.9775  1.3292  1.6846
 8616SOL    HW226427   9.416   1.445   3.996  0.2886  0.0541 -2.1684
 8617SOL     OW26428   8.409   8.018   4.294 -0.5010  0.0306 -0.5131
 8617SOL    HW126429   8.502   8.034   4.281 -0.6241  2.2771  0.8810
 8617SOL    HW226430   8.399   7.924   4.279  1.8266 -0.1429 -1.4355
 8618SOL     OW26431  10.010   3.477   2.238  0.3191  0.7584 -0.4252
 8618SOL    HW126432   9.936   3.488   2.298  1.3764  1.5591  0.8170
 8618SOL    HW226433   9.976   3.425   2.166 -1.2610  0.5257  0.4425
 8619SOL     OW26434   0.603   8.286   7.830  0.1030  0.3803 -0.3185
 8619SOL    HW126435   0.599   8.232   7.751  1.3978 -0.6368  0.2670
 8619SOL    HW226436   0.637   8.370   7.800  1.5237 -0.3061 -0.7416
 8620SOL     OW26437   0.690   6.289   4.658  0.2475 -0.1131  0.1795
 8620SOL    HW126438   0.761   6.313   4.716  0.1373 -1.4519  0.9007
 8620SOL    HW226439   0.616   6.271   4.716 -0.1375 -0.5540 -0.4299
 8621SOL     OW26440   9.113   1.197   8.903 -0.2008  0.5006  0.3937
 8621SOL    HW126441   9.089   1.104   8.903 -0.8250  0.6605  0.2492
 8621SOL    HW226442   9.118   1.220   8.810  2.6133 -0.0494  0.2980
 8622SOL     OW26443   5.173   7.101   9.758 -0.4126 -0.0751 -0.0114
 8622SOL    HW126444   5.195   7.184   9.801  0.3668 -0.0587 -0.4238
 8622SOL    HW226445   5.123   7.126   9.681 -0.7794 -0.0371  0.2332
 8623SOL     OW26446   6.104   1.416   4.315  0.3832 -0.4160 -0.0573
 8623SOL    HW126447   6.011   1.439   4.327  0.3970  0.2989 -1.2190
 8623SOL    HW226448   6.106   1.364   4.235  0.8287 -1.5717  0.6835
 8624SOL     OW26449   6.826   1.580   2.274 -0.1266  0.1267 -0.1917
 8624SOL    HW126450   6.850   1.572   2.182 -0.6995 -1.6564 -0.2162
 8624SOL    HW226451   6.903   1.547   2.321 -0.6905 -1.1476 -0.1277
 8625SOL     OW26452   1.261   3.646   0.895 -0.4732 -0.0208 -0.8915
 8625SOL    HW126453   1.330   3.690   0.944 -0.3354  0.5549 -1.5790
 8625SOL    HW226454   1.300   3.564   0.866  0.8178  1.3759 -3.3908
 8626SOL     OW26455   0.152   1.913   6.229  0.2888 -0.1327 -0.0350
 8626SOL    HW126456   0.205   1.848   6.182  1.2079 -0.9233  1.9485
 8626SOL    HW226457   0.194   1.997   6.211  0.9631 -0.4917 -0.1611
 8627SOL     OW26458   7.843   3.044   2.090 -0.4806 -0.0926 -0.6086
 8627SOL    HW126459   7.896   3.086   2.157 -2.3914  2.6872 -0.6808
 8627SOL    HW226460   7.887   3.065   2.007 -0.7695  0.7738 -0.5514
 8628SOL     OW26461   2.258   1.595   0.049  0.5655  0.7582  0.7040
 8628SOL    HW126462   2.176   1.621   0.009  0.6246  0.9434  0.7025
 8628SOL    HW226463   2.324   1.607  -0.020  0.4447 -0.4025  0.3611
 8629SOL     OW26464   4.337   2.599   1.592 -0.6211  0.4880  0.2638
 8629SOL    HW126465   4.304   2.509   1.590  1.6374 -0.4274  0.6529
 8629SOL    HW226466   4.391   2.603   1.672  0.3376  1.7777 -0.4059
 8630SOL     OW26467   0.394   6.078   6.040 -0.1104 -0.4731  0.0063
 8630SOL    HW126468   0.327   6.069   5.973  0.4117  0.8649 -0.7438
 8630SOL    HW226469   0.346   6.093   6.121 -0.7177  0.1494 -0.4653
 8631SOL     OW26470   4.967   0.634   5.429  0.0793 -0.4895  0.4775
 8631SOL    HW126471   4.936   0.544   5.422  0.1079 -0.4464 -0.2733
 8631SOL    HW226472   5.046   0.636   5.376 -0.6359  0.2970 -0.5981
 8632SOL     OW26473   7.042   4.742   3.240 -0.3520 -0.0770  0.7019
 8632SOL    HW126474   7.132   4.725   3.213  0.1053  0.5851  1.7462
 8632SOL    HW226475   6.997   4.658   3.227 -0.0378  0.0182 -1.4562
 8633SOL     OW26476   1.672   7.926   9.812 -0.1116  0.0713  0.8189
 8633SOL    HW126477   1.640   7.898   9.727 -0.5896 -0.6219  1.2261
 8633SOL    HW226478   1.600   7.976   9.850 -0.7583 -1.4811  1.7289
 8634SOL     OW26479   2.886   0.590   4.597  0.2340  0.6365  0.6178
 8634SOL    HW126480   2.855   0.548   4.517  1.4541  1.1655 -0.1564
 8634SOL    HW226481   2.826   0.559   4.665  0.3458 -1.3835 -0.1249
 8635SOL     OW26482   8.623   5.429   3.171 -0.2153 -0.3008 -0.3588
 8635SOL    HW126483   8.660   5.481   3.243 -1.5028  1.5347 -0.9429
 8635SOL    HW226484   8.698   5.413   3.113  0.5929 -0.7747  0.7734
 8636SOL     OW26485   4.437   7.344   1.088 -0.6084  0.4478 -0.2035
 8636SOL    HW126486   4.530   7.346   1.110 -0.3459 -1.1364 -1.0220
 8636SOL    HW226487   4.433   7.374   0.997 -0.6146 -1.3035 -0.8310
 8637SOL     OW26488   6.010   1.375   4.746  0.0915 -0.4255  0.3523
 8637SOL    HW126489   5.965   1.328   4.816 -0.5224 -0.9635 -0.3899
 8637SOL    HW226490   5.987   1.467   4.760 -0.8049 -0.6329  0.3090
 8638SOL     OW26491   3.847   8.079   4.941  0.0569  0.2139 -0.1065
 8638SOL    HW126492   3.760   8.040   4.941  0.1775 -0.0592 -0.3796
 8638SOL    HW226493   3.836   8.163   4.898 -0.2759  0.6477  0.8036
 8639SOL     OW26494   0.462   4.673   8.982 -0.4163 -0.1813 -0.0514
 8639SOL    HW126495   0.490   4.761   8.958  1.9189 -0.2633  1.9016
 8639SOL    HW226496   0.436   4.633   8.900  2.2746  1.0972 -1.6868
 8640SOL     OW26497   7.468   6.265   5.290 -0.2100 -0.5219  0.2183
 8640SOL    HW126498   7.409   6.319   5.343 -0.1873 -0.1215 -0.1615
 8640SOL    HW226499   7.448   6.288   5.200  2.2505  1.5104  0.0977
 8641SOL     OW26500   4.103   7.639   3.834 -0.1420  0.7712  0.2422
 8641SOL    HW126501   4.187   7.683   3.851 -0.7998  2.8686 -1.4421
 8641SOL    HW226502   4.038   7.702   3.865 -1.1362 -0.7232  1.2887
 8642SOL     OW26503   8.144   8.145   0.101 -0.0153 -0.1667  0.3172
 8642SOL    HW126504   8.146   8.053   0.076  0.8568 -1.1015  3.3914
 8642SOL    HW226505   8.233   8.177   0.084 -0.6618  0.6133 -2.0515
 8643SOL     OW26506   3.678   1.475   4.947 -0.8000 -0.2813  0.2396
 8643SOL    HW126507   3.666   1.554   4.895 -0.2425 -0.6233 -0.4239
 8643SOL    HW226508   3.730   1.503   5.022 -0.2971 -0.0835 -0.1774
 8644SOL     OW26509   9.523   8.720   1.296  0.3083 -0.4099 -0.3319
 8644SOL    HW126510   9.564   8.700   1.212  1.5545  1.2767 -0.1698
 8644SOL    HW226511   9.569   8.797   1.328 -1.6761  0.3665  0.8382
 8645SOL     OW26512   6.320   7.639   1.046  0.1103  0.1963 -0.2513
 8645SOL    HW126513   6.350   7.661   1.134 -0.1671  0.7428 -0.2861
 8645SOL    HW226514   6.339   7.717   0.994 -0.5284  0.2115 -0.4719
 8646SOL     OW26515   8.901   3.860   9.110  0.0797  0.7238  0.3706
 8646SOL    HW126516   8.839   3.790   9.089  3.2145 -2.7324  1.6219
 8646SOL    HW226517   8.958   3.865   9.034  0.7487  0.8456  0.8729
 8647SOL     OW26518   0.143   0.717   4.103  0.3559 -0.6308 -0.3953
 8647SOL    HW126519   0.175   0.806   4.091 -0.7635 -0.2286 -0.5058
 8647SOL    HW226520   0.214   0.672   4.149 -0.0670  1.0027  1.9991
 8648SOL     OW26521   1.134   9.340   6.871  0.0875  0.9040  0.2340
 8648SOL    HW126522   1.129   9.350   6.776  0.8808 -1.5867 -0.1517
 8648SOL    HW226523   1.048   9.307   6.896  0.8873 -1.8700 -0.2473
 8649SOL     OW26524   3.233   2.296   0.596 -0.1548  0.2410  0.4469
 8649SOL    HW126525   3.284   2.264   0.522 -2.3506  0.4464 -1.2361
 8649SOL    HW226526   3.248   2.390   0.597  1.9903 -0.0379  2.0222
 8650SOL     OW26527   3.446   9.358   0.995  0.0824 -0.2033 -0.2932
 8650SOL    HW126528   3.500   9.335   1.071 -1.0364  0.6986  0.8259
 8650SOL    HW226529   3.366   9.395   1.033 -0.5843  0.1074 -1.9204
 8651SOL     OW26530   3.406   2.818   1.438 -0.4159  0.0023  0.1628
 8651SOL    HW126531   3.350   2.855   1.506 -2.1642  1.5069 -1.9681
 8651SOL    HW226532   3.477   2.881   1.429 -2.8481  2.6345 -2.7431
 8652SOL     OW26533   4.287   3.444   3.273  0.5463  0.1831 -0.5734
 8652SOL    HW126534   4.364   3.498   3.254  0.6247 -0.1522 -1.2320
 8652SOL    HW226535   4.302   3.411   3.362  0.1424  1.8396  0.1460
 8653SOL     OW26536   0.373   6.831   4.808  0.1593 -0.5698  0.8203
 8653SOL    HW126537   0.292   6.801   4.848 -1.4781  1.6401 -0.6212
 8653SOL    HW226538   0.379   6.923   4.833  2.3152 -0.6883  0.9508
 8654SOL     OW26539   9.031   2.498   6.669 -0.2562  0.1408 -0.0636
 8654SOL    HW126540   9.027   2.550   6.589 -0.4191  0.7732  0.3446
 8654SOL    HW226541   9.114   2.450   6.662 -0.9247 -0.8917 -1.2513
 8655SOL     OW26542   7.617   9.941   6.909  0.2469  0.1648  0.5459
 8655SOL    HW126543   7.703   9.941   6.867  0.2991 -0.0953  0.6524
 8655SOL    HW226544   7.625   9.879   6.981 -0.0575  0.0717  0.5007
 8656SOL     OW26545   7.681   0.061   1.226  0.0319  0.4922  0.2841
 8656SOL    HW126546   7.708   0.131   1.166 -0.8102  0.6615  0.0970
 8656SOL    HW226547   7.614   0.100   1.280  0.9125  0.3926  1.4880
 8657SOL     OW26548   2.952   7.980   2.599  0.0200 -0.5605 -0.2030
 8657SOL    HW126549   2.992   8.027   2.672 -0.1803  1.8103 -1.5282
 8657SOL    HW226550   2.858   7.982   2.618 -0.0736  0.4553 -0.7009
 8658SOL     OW26551   7.782   6.255   2.906  0.3326  0.0955  0.3691
 8658SOL    HW126552   7.710   6.193   2.906 -0.7872  1.3063 -0.8582
 8658SOL    HW226553   7.861   6.201   2.913 -0.6449 -1.3382  0.7288
 8659SOL     OW26554   7.457   6.283   6.828 -0.3690  0.3941  0.1216
 8659SOL    HW126555   7.417   6.291   6.741 -0.6767 -0.1664  0.2105
 8659SOL    HW226556   7.543   6.325   6.819 -0.3765  0.2843 -0.4653
 8660SOL     OW26557   0.533   5.977   1.825  0.0837 -0.3374 -0.2958
 8660SOL    HW126558   0.468   6.007   1.888 -0.3060  0.7783 -1.1875
 8660SOL    HW226559   0.494   5.995   1.740  1.6911  0.7121 -0.8687
 8661SOL     OW26560   9.067   3.201   7.380 -0.7132 -0.8764 -0.7775
 8661SOL    HW126561   9.110   3.209   7.295 -0.9270 -0.1300 -0.8227
 8661SOL    HW226562   9.126   3.147   7.432  0.4877  0.4166 -0.7258
 8662SOL     OW26563   0.102   7.976   9.150 -0.4496 -0.5475 -0.0087
 8662SOL    HW126564   0.060   8.058   9.177  0.6404  0.0605 -0.0954
 8662SOL    HW226565   0.056   7.949   9.071 -1.0403 -0.1979  0.2173
 8663SOL     OW26566   5.363   2.700   3.343  0.6528  0.2915 -0.3765
 8663SOL    HW126567   5.423   2.626   3.355  1.1091  0.8894  1.4222
 8663SOL    HW226568   5.276   2.660   3.338  0.9177 -0.3970  0.2593
 8664SOL     OW26569   0.107   9.326   2.584 -0.2689  0.2256  0.5971
 8664SOL    HW126570   0.040   9.275   2.629  0.3983 -0.5989  0.6915
 8664SOL    HW226571   0.097   9.301   2.492  0.9151 -1.1595  0.7941
 8665SOL     OW26572   7.949   3.072   4.227  0.0812  0.4497 -0.0927
 8665SOL    HW126573   8.015   3.028   4.174  0.4714  1.1792 -0.2346
 8665SOL    HW226574   7.996   3.144   4.270  0.4248 -1.6001  3.3436
 8666SOL     OW26575   6.036   8.789   9.157  0.0925 -0.2744  0.5154
 8666SOL    HW126576   5.941   8.793   9.159  0.0344 -1.0511 -0.0136
 8666SOL    HW226577   6.065   8.879   9.141 -0.6000 -0.2224 -0.5439
 8667SOL     OW26578   9.014   8.831   7.449 -0.1602 -0.4949  1.2622
 8667SOL    HW126579   9.085   8.823   7.514  0.0177 -0.3475  1.0861
 8667SOL    HW226580   8.977   8.918   7.466 -0.0224 -0.3995  1.0740
 8668SOL     OW26581   6.998   2.770   6.043 -0.3353  0.5699 -0.2336
 8668SOL    HW126582   7.015   2.726   5.960  0.1675 -0.4937  0.4132
 8668SOL    HW226583   6.959   2.703   6.098 -2.1050  1.6714 -0.0760
 8669SOL     OW26584   0.715   1.325   4.810  0.1565  0.0879  0.2983
 8669SOL    HW126585   0.698   1.247   4.863 -1.2545  0.8151  0.9877
 8669SOL    HW226586   0.670   1.308   4.727  0.4446 -0.1103  0.1806
 8670SOL     OW26587   2.197   9.615   8.557 -0.1485  0.1288 -0.0957
 8670SOL    HW126588   2.196   9.709   8.572 -0.8033  0.1768 -0.4346
 8670SOL    HW226589   2.290   9.593   8.550  0.0665  0.5603  1.1448
 8671SOL     OW26590   2.068   7.699   6.037 -0.0539  0.5379  0.2372
 8671SOL    HW126591   1.988   7.708   5.986 -1.0448 -1.9780  1.2155
 8671SOL    HW226592   2.084   7.787   6.071 -1.4179  1.4618 -1.3411
 8672SOL     OW26593   7.412   0.812   6.570  0.6741  0.1821  0.0998
 8672SOL    HW126594   7.426   0.877   6.501  1.5535  0.0915  0.1828
 8672SOL    HW226595   7.350   0.749   6.533  1.3341 -0.0046 -0.6989
 8673SOL     OW26596   0.039   3.979   2.746  0.8806  0.2674 -0.1710
 8673SOL    HW126597   0.022   4.033   2.823  1.7047 -0.8603  0.8490
 8673SOL    HW226598   0.123   4.011   2.712  0.8662  0.3022 -0.1735
 8674SOL     OW26599   9.182   7.092   7.243  0.0290  0.6566  0.1206
 8674SOL    HW126600   9.146   7.004   7.232 -0.5393  0.9716 -0.6813
 8674SOL    HW226601   9.239   7.086   7.320  1.9475 -1.0151 -1.3187
 8675SOL     OW26602   5.966   9.225   8.871  0.2742 -0.1120  0.4846
 8675SOL    HW126603   6.054   9.244   8.840 -0.2869  0.1391 -1.0348
 8675SOL    HW226604   5.960   9.129   8.868  0.5477 -0.1380  0.7433
 8676SOL     OW26605   6.829   2.529   7.525 -0.2083 -0.1370 -0.1656
 8676SOL    HW126606   6.913   2.484   7.516  1.1173  1.8745  1.2212
 8676SOL    HW226607   6.842   2.614   7.483 -1.3707  0.4135  0.5099
 8677SOL     OW26608   6.928   0.828   5.900  0.0491  0.1587  0.2553
 8677SOL    HW126609   6.932   0.860   5.810 -1.0883  1.2073  0.5410
 8677SOL    HW226610   6.848   0.777   5.904  1.6817 -2.6416 -0.1039
 8678SOL     OW26611   6.407   6.642   7.536 -0.7430  0.0720  0.1618
 8678SOL    HW126612   6.370   6.684   7.458 -0.2399 -1.0219 -0.6846
 8678SOL    HW226613   6.336   6.645   7.600 -1.3957  0.3710 -0.5560
 8679SOL     OW26614   1.561   9.884   4.813  0.3472  0.0872 -0.0571
 8679SOL    HW126615   1.471   9.884   4.782 -0.1182  0.2009  1.2647
 8679SOL    HW226616   1.580   9.976   4.832  0.5023 -0.0320  0.3645
 8680SOL     OW26617   5.319   5.491   3.640  0.6394  0.2123 -0.0147
 8680SOL    HW126618   5.309   5.585   3.654  0.4758  0.4656 -1.6484
 8680SOL    HW226619   5.348   5.483   3.549 -1.6454 -1.3897 -0.7103
 8681SOL     OW26620   4.458   4.456   1.684  0.4561  0.2897 -0.6378
 8681SOL    HW126621   4.412   4.375   1.706  1.5986 -0.0697  0.5273
 8681SOL    HW226622   4.432   4.517   1.754  2.4326 -0.1964  0.5685
 8682SOL     OW26623   8.200   7.422   0.329  0.2689 -0.3283 -0.3800
 8682SOL    HW126624   8.174   7.331   0.313  1.8242 -1.0110  0.6892
 8682SOL    HW226625   8.278   7.435   0.275  0.4240  0.1527 -0.0485
 8683SOL     OW26626   8.178   1.769   8.190  0.2277  0.0650 -0.0073
 8683SOL    HW126627   8.132   1.748   8.109 -0.7847  0.9542  0.3009
 8683SOL    HW226628   8.189   1.864   8.188  0.9311  0.0014  0.5137
 8684SOL     OW26629   8.875   1.550   6.467 -0.0478 -0.4320 -0.2057
 8684SOL    HW126630   8.934   1.614   6.425  0.1137 -0.4477 -0.0048
 8684SOL    HW226631   8.837   1.597   6.541  0.0978 -0.5800 -0.0369
 8685SOL     OW26632   8.859   2.761   4.313  0.2514  0.4527 -0.1590
 8685SOL    HW126633   8.788   2.704   4.285  0.0624  0.3704  0.4710
 8685SOL    HW226634   8.844   2.775   4.407  1.5784 -0.3234  0.1959
 8686SOL     OW26635   7.217   4.094   2.325  0.4392 -0.2207 -0.5237
 8686SOL    HW126636   7.157   4.113   2.397  0.9556 -2.0301  0.4547
 8686SOL    HW226637   7.235   4.179   2.286 -0.9886  0.6339  0.5802
 8687SOL     OW26638   8.790   1.305   0.748 -0.4717 -0.6653  0.4537
 8687SOL    HW126639   8.782   1.343   0.661 -0.6249 -3.0277 -0.6201
 8687SOL    HW226640   8.877   1.265   0.749 -0.1451  0.0187  1.7007
 8688SOL     OW26641   9.376   3.462   3.510 -0.2582 -0.0221  0.3244
 8688SOL    HW126642   9.390   3.556   3.507 -0.4284  0.0102  0.5199
 8688SOL    HW226643   9.458   3.424   3.478 -0.4585  0.2079 -0.4913
 8689SOL     OW26644   0.839   0.019   5.793  0.0482  0.5762  0.2771
 8689SOL    HW126645   0.912  -0.017   5.742 -0.4449 -0.8982  0.5497
 8689SOL    HW226646   0.774   0.044   5.727 -0.8460 -1.9011  0.1165
 8690SOL     OW26647   8.584   6.947   8.272  0.3852 -0.1679 -0.0696
 8690SOL    HW126648   8.530   7.018   8.237 -0.3514  0.4345  2.0784
 8690SOL    HW226649   8.616   6.981   8.356  1.0934 -1.8942  0.4058
 8691SOL     OW26650   2.916   4.725   8.060  0.2225  0.0374 -0.3252
 8691SOL    HW126651   2.988   4.700   8.002  0.9127 -1.2037  0.9965
 8691SOL    HW226652   2.922   4.663   8.133 -1.2074  0.9363  0.5970
 8692SOL     OW26653   1.540   1.996   6.205  0.5430  0.2016 -0.0824
 8692SOL    HW126654   1.456   1.957   6.229  0.6000  0.2604  0.2179
 8692SOL    HW226655   1.600   1.922   6.202  0.6078  0.2325  0.2937
 8693SOL     OW26656   9.148   5.338   5.858 -0.1051  0.1676  0.5848
 8693SOL    HW126657   9.165   5.301   5.945 -1.3266 -1.8132  0.0473
 8693SOL    HW226658   9.066   5.297   5.830 -0.4281  1.7547 -0.9828
 8694SOL     OW26659   4.225   2.498   3.762  0.2472  0.1138  0.5324
 8694SOL    HW126660   4.165   2.489   3.835 -1.3726  0.0596 -0.7567
 8694SOL    HW226661   4.298   2.550   3.796 -0.6182  0.3520  2.0705
 8695SOL     OW26662   2.734   5.360   7.708  0.7534  0.4773 -0.3186
 8695SOL    HW126663   2.786   5.373   7.629  0.7636  1.8243 -0.1164
 8695SOL    HW226664   2.756   5.434   7.764  0.7815 -0.4655  0.9853
 8696SOL     OW26665   3.106   3.209   8.326  0.4270  0.5357 -0.2854
 8696SOL    HW126666   3.166   3.240   8.258 -0.2555 -0.7163 -1.4983
 8696SOL    HW226667   3.102   3.114   8.314 -0.8151  0.4543  0.5794
 8697SOL     OW26668   5.171   0.533   5.273 -0.6182  0.3831 -0.5529
 8697SOL    HW126669   5.211   0.588   5.206  0.1245 -0.6142 -0.9382
 8697SOL    HW226670   5.240   0.474   5.301 -1.6350 -0.9516 -0.7734
 8698SOL     OW26671   6.573   4.110   3.785  0.2868  0.2416 -0.0857
 8698SOL    HW126672   6.536   4.084   3.701  1.4624  1.8440 -1.1555
 8698SOL    HW226673   6.666   4.091   3.777  0.5834  1.3932  0.4339
 8699SOL     OW26674   8.680   9.754   7.782  0.1845 -0.0119 -0.2794
 8699SOL    HW126675   8.644   9.802   7.856  0.8983  0.2854 -0.1172
 8699SOL    HW226676   8.757   9.804   7.756 -0.4997  0.3476 -1.7382
 8700SOL     OW26677   4.481   7.891   9.351  0.0490  0.3505 -0.4314
 8700SOL    HW126678   4.521   7.833   9.416 -1.3700  0.1672  0.3073
 8700SOL    HW226679   4.499   7.979   9.384  1.2653  0.3438 -0.9929
 8701SOL     OW26680   9.134   3.581   6.165  0.0702 -0.2587 -0.5856
 8701SOL    HW126681   9.127   3.492   6.131  0.5314 -1.5960  2.5308
 8701SOL    HW226682   9.189   3.627   6.101  0.2512 -2.3113 -1.9999
 8702SOL     OW26683   6.576   6.847   1.793  0.1197  0.0280 -0.4966
 8702SOL    HW126684   6.596   6.879   1.705  0.2506 -2.1603 -1.3115
 8702SOL    HW226685   6.480   6.850   1.798 -0.0480 -1.9885 -1.6268
 8703SOL     OW26686   4.338   2.986   8.189 -0.5582  0.5717 -0.0663
 8703SOL    HW126687   4.413   3.045   8.187  0.3253 -0.4812  1.0144
 8703SOL    HW226688   4.275   3.030   8.246  1.0679 -0.5590  2.8153
 8704SOL     OW26689   6.576   0.750   7.253  0.1515 -0.1898 -0.4823
 8704SOL    HW126690   6.643   0.796   7.303 -2.3175  1.4859  1.5073
 8704SOL    HW226691   6.514   0.818   7.226 -2.3430 -1.9581  0.4109
 8705SOL     OW26692   7.297   9.586   8.212 -0.8362  0.3453  0.5386
 8705SOL    HW126693   7.343   9.530   8.150  0.5857  1.1559  0.8228
 8705SOL    HW226694   7.255   9.653   8.157 -1.5822 -0.3064  0.2936
 8706SOL     OW26695   1.144   9.661   8.742 -0.5279  0.7978 -0.5063
 8706SOL    HW126696   1.090   9.604   8.688 -0.2493 -1.5772  1.5529
 8706SOL    HW226697   1.234   9.637   8.719 -0.3877 -1.1134  1.7060
 8707SOL     OW26698   1.574   5.244   6.726  0.0903 -0.4428 -0.3228
 8707SOL    HW126699   1.655   5.268   6.681 -0.3575  2.2250  0.1340
 8707SOL    HW226700   1.516   5.214   6.657  0.5383  0.3536 -1.0553
 8708SOL     OW26701   6.931   4.657   6.275  0.2473 -0.9831  0.2946
 8708SOL    HW126702   6.941   4.752   6.267  0.0939 -1.0422 -0.7381
 8708SOL    HW226703   6.944   4.624   6.187  1.0181 -2.0036  0.7768
 8709SOL     OW26704   7.338   5.650   3.303  0.1116 -0.1249 -0.4463
 8709SOL    HW126705   7.429   5.633   3.280  0.6296 -0.4562  1.6590
 8709SOL    HW226706   7.289   5.580   3.260  0.8343  0.0586 -1.6064
 8710SOL     OW26707   9.283   8.125   0.884 -0.5888 -0.0432 -0.0368
 8710SOL    HW126708   9.354   8.130   0.948 -0.4063  0.1617 -0.2503
 8710SOL    HW226709   9.204   8.118   0.936 -0.3892 -0.6256  0.2047
 8711SOL     OW26710   1.985   8.907   5.504 -0.1912  0.2373 -0.1351
 8711SOL    HW126711   1.891   8.889   5.498 -0.1016 -0.2533 -0.1080
 8711SOL    HW226712   2.026   8.822   5.494  0.4091  0.7964 -3.4543
 8712SOL     OW26713   0.460   8.621   2.938 -0.2918  0.2114  0.1609
 8712SOL    HW126714   0.463   8.529   2.964  1.3080  0.1696 -0.0908
 8712SOL    HW226715   0.402   8.622   2.861 -0.1520 -0.6149  0.0352
 8713SOL     OW26716   6.340   3.484   0.922 -0.2342 -0.5313 -0.6055
 8713SOL    HW126717   6.326   3.485   0.827  0.1178 -0.7974 -0.6635
 8713SOL    HW226718   6.376   3.397   0.940 -0.1499 -0.4254 -0.2488
 8714SOL     OW26719   2.005   8.238   3.150 -0.1165 -0.4123  0.1315
 8714SOL    HW126720   2.046   8.191   3.222  0.2804 -0.4985 -0.1428
 8714SOL    HW226721   1.963   8.171   3.097  0.3451 -0.4570 -0.1924
 8715SOL     OW26722   0.149   9.241   3.841 -0.2675  0.3748 -0.1504
 8715SOL    HW126723   0.205   9.287   3.903 -1.6300 -2.0165  3.1889
 8715SOL    HW226724   0.104   9.310   3.792  1.9478  2.3681  0.4327
 8716SOL     OW26725   9.406   7.768   9.980  0.0187  0.4039 -0.6357
 8716SOL    HW126726   9.476   7.714  10.016  0.3768  1.4733  0.3474
 8716SOL    HW226727   9.339   7.705   9.954  0.3664 -0.5157  0.5674
 8717SOL     OW26728   3.730   2.988   7.933 -0.1194 -0.2580 -0.0567
 8717SOL    HW126729   3.751   2.952   7.847 -0.6309 -0.7784  0.0289
 8717SOL    HW226730   3.648   3.037   7.920 -0.6393 -1.0117  0.2880
 8718SOL     OW26731   6.580   4.154   2.334  0.1647 -0.0585  0.2364
 8718SOL    HW126732   6.514   4.204   2.286 -1.5768  0.4739  3.0170
 8718SOL    HW226733   6.653   4.215   2.345 -0.3320  0.5454  0.2178
 8719SOL     OW26734   7.576   6.564   8.939 -0.0923 -0.1804  0.0247
 8719SOL    HW126735   7.586   6.644   8.990  1.1040 -0.0764 -0.3465
 8719SOL    HW226736   7.552   6.594   8.851 -1.6802 -0.3405  0.3632
 8720SOL     OW26737   9.476   5.231   2.198 -1.2309  0.3844 -0.2299
 8720SOL    HW126738   9.388   5.263   2.177 -1.1951  1.0270  0.5554
 8720SOL    HW226739   9.526   5.310   2.217 -0.4090  0.0375 -0.9079
 8721SOL     OW26740   9.365   5.351   0.603  0.5474 -0.6770  0.2206
 8721SOL    HW126741   9.361   5.314   0.515 -0.3523  0.5834 -0.3151
 8721SOL    HW226742   9.391   5.442   0.589 -0.9697 -0.0662  1.0974
 8722SOL     OW26743   8.590   3.045   7.088 -0.8169 -0.0741 -0.1578
 8722SOL    HW126744   8.636   2.968   7.057 -0.3996  0.1499 -0.0953
 8722SOL    HW226745   8.637   3.119   7.050 -1.5643  0.1399 -0.6990
 8723SOL     OW26746   3.262   8.889   3.444 -0.0484 -0.5037  0.1166
 8723SOL    HW126747   3.194   8.835   3.484  0.6029 -1.0430  0.5157
 8723SOL    HW226748   3.244   8.883   3.350 -1.1224  0.1480  0.2640
 8724SOL     OW26749   6.586   4.689   0.495  0.2653  0.7293 -0.1183
 8724SOL    HW126750   6.490   4.685   0.496  0.3178 -1.0903  0.6422
 8724SOL    HW226751   6.611   4.675   0.586  1.3011 -2.1292 -0.7392
 8725SOL     OW26752   4.615   7.646   5.351 -0.0855 -1.1872 -0.5823
 8725SOL    HW126753   4.651   7.564   5.385  0.3917 -0.5632  0.4667
 8725SOL    HW226754   4.652   7.653   5.263  2.4236 -0.6001  0.4235
 8726SOL     OW26755   3.168   7.232   7.345 -0.2164 -0.0449  0.1775
 8726SOL    HW126756   3.236   7.192   7.291  0.0848  0.5907  0.0733
 8726SOL    HW226757   3.199   7.322   7.360  0.1489 -0.4634  2.1520
 8727SOL     OW26758   5.630   9.390   1.437 -0.0634 -0.1115  0.0096
 8727SOL    HW126759   5.542   9.428   1.433 -0.2187 -0.5896 -1.7568
 8727SOL    HW226760   5.623   9.308   1.389  1.3301 -0.2134 -0.0506
 8728SOL     OW26761   7.397   9.908   5.833 -0.2406  0.3713  0.5356
 8728SOL    HW126762   7.418   9.814   5.830  0.3944  0.4909  1.0190
 8728SOL    HW226763   7.302   9.912   5.822 -1.0233 -0.6589  4.9361
 8729SOL     OW26764   7.791   3.623   8.524 -0.3583 -0.2684 -0.0054
 8729SOL    HW126765   7.788   3.718   8.533 -4.6198 -0.2293 -0.1401
 8729SOL    HW226766   7.772   3.589   8.612 -2.9852 -0.8132 -0.7152
 8730SOL     OW26767   2.460   6.371   8.017  0.4531  0.4285  0.5000
 8730SOL    HW126768   2.442   6.299   8.078  0.5025 -0.1828 -0.1881
 8730SOL    HW226769   2.526   6.336   7.958 -0.4756  0.5676 -0.6646
 8731SOL     OW26770  10.012   9.613   6.188 -0.1858 -0.1971  0.3138
 8731SOL    HW126771   9.989   9.701   6.157  2.1633  0.0846 -0.8058
 8731SOL    HW226772   9.936   9.560   6.164 -1.6320  1.4687  0.9418
 8732SOL     OW26773   9.781   7.364   9.270  0.0961 -0.0945 -0.3559
 8732SOL    HW126774   9.805   7.393   9.182  1.1701 -0.7885 -0.3169
 8732SOL    HW226775   9.827   7.424   9.328  1.0660 -0.8763 -0.2824
 8733SOL     OW26776   2.495   3.374   3.604 -0.2550  0.0544 -0.2225
 8733SOL    HW126777   2.490   3.279   3.596 -0.1117  0.0660 -0.4713
 8733SOL    HW226778   2.556   3.389   3.677 -0.2895 -0.0453 -0.1734
 8734SOL     OW26779   1.410   8.538   0.894 -0.2215  0.8185  0.2943
 8734SOL    HW126780   1.339   8.563   0.835  0.3672  0.4409 -0.5909
 8734SOL    HW226781   1.488   8.536   0.838  0.5599  1.5979  1.3187
 8735SOL     OW26782   0.209   0.415   7.443  0.6465 -0.1816  0.3152
 8735SOL    HW126783   0.122   0.441   7.413  1.4858  1.4006 -0.8633
 8735SOL    HW226784   0.220   0.459   7.527  0.5850  0.1934  0.1264
 8736SOL     OW26785   3.828   3.121   3.228 -0.1064  0.5491 -0.3279
 8736SOL    HW126786   3.832   3.214   3.250 -0.3359  0.3392  0.6837
 8736SOL    HW226787   3.894   3.080   3.284 -0.0532  0.0896 -0.7171
 8737SOL     OW26788   4.440   7.459   4.697 -0.1384  1.2298  0.1448
 8737SOL    HW126789   4.353   7.419   4.701 -0.0416  1.0191  0.1536
 8737SOL    HW226790   4.495   7.391   4.658  0.3161  0.8523  1.3942
 8738SOL     OW26791   4.925   4.111   3.339  0.1326  0.0908  0.2128
 8738SOL    HW126792   4.855   4.047   3.349 -1.4678  1.3964 -1.6419
 8738SOL    HW226793   5.001   4.060   3.313 -0.8820 -1.1527 -0.4410
 8739SOL     OW26794   2.468   0.692   0.332  0.7945  0.0998  0.1577
 8739SOL    HW126795   2.501   0.633   0.400  1.7981  0.8265  0.3220
 8739SOL    HW226796   2.534   0.689   0.263 -0.7004 -1.4297 -1.3007
 8740SOL     OW26797   9.017   8.687   9.309 -0.1227  0.3531  0.4406
 8740SOL    HW126798   9.035   8.639   9.228 -1.4660  0.3182  0.1342
 8740SOL    HW226799   9.098   8.681   9.359  0.8084  0.5636 -0.9902
 8741SOL     OW26800   6.615   3.356   2.828 -0.6620  0.5480 -0.3411
 8741SOL    HW126801   6.620   3.276   2.776 -0.3820  1.2974 -1.4893
 8741SOL    HW226802   6.522   3.364   2.851 -0.6087 -0.4006  0.2936
 8742SOL     OW26803   4.888   2.075   4.981 -0.1097  0.2893  0.0368
 8742SOL    HW126804   4.839   2.026   5.047 -1.1584  2.2960  0.8484
 8742SOL    HW226805   4.965   2.108   5.027  0.4735 -0.3527 -0.4444
 8743SOL     OW26806   2.550   6.484   0.872 -0.3044 -0.2963 -0.1896
 8743SOL    HW126807   2.611   6.423   0.913  0.6053  0.5518 -0.2491
 8743SOL    HW226808   2.595   6.512   0.792 -1.6560 -1.2229 -1.3232
 8744SOL     OW26809   3.153   6.427   2.852 -0.0346  0.1036  0.0628
 8744SOL    HW126810   3.216   6.398   2.918 -0.6584 -0.3969  0.4447
 8744SOL    HW226811   3.069   6.395   2.883 -0.7600  2.2353  0.4693
 8745SOL     OW26812   1.413   7.150   5.347  0.1414  0.6094  0.0500
 8745SOL    HW126813   1.406   7.079   5.411 -0.3375 -0.4963 -1.1923
 8745SOL    HW226814   1.332   7.201   5.358 -0.5006 -0.2776 -0.4721
 8746SOL     OW26815   9.070   5.040   7.321  0.5723  0.6910 -0.5826
 8746SOL    HW126816   9.065   4.974   7.389 -0.5230 -0.1595 -1.4443
 8746SOL    HW226817   8.979   5.055   7.295  1.0268 -0.2296 -2.9737
 8747SOL     OW26818   7.117   3.029   6.118 -0.0251  0.0742  0.0676
 8747SOL    HW126819   7.086   2.939   6.113 -0.4942  0.3038 -1.8845
 8747SOL    HW226820   7.200   3.029   6.072  0.4483  0.4768  0.8860
 8748SOL     OW26821   7.875   4.608   5.672  0.0884 -0.0830  0.7591
 8748SOL    HW126822   7.805   4.551   5.705 -0.7023  0.3951 -0.0430
 8748SOL    HW226823   7.920   4.639   5.751  0.0307 -1.1800  1.2392
 8749SOL     OW26824   6.935   8.669   6.158  0.5448  0.3923 -0.3366
 8749SOL    HW126825   6.851   8.713   6.145 -0.2755 -1.0034 -0.0502
 8749SOL    HW226826   6.953   8.627   6.074  0.8237  0.4545 -0.3087
 8750SOL     OW26827   7.331   5.005   6.947 -0.4705  0.5097  0.5185
 8750SOL    HW126828   7.271   5.080   6.949  0.3225  1.1451  1.6717
 8750SOL    HW226829   7.296   4.945   7.013 -1.7655 -0.7179 -1.1889
 8751SOL     OW26830   3.236   4.538   0.995 -0.4677 -0.1394  0.3647
 8751SOL    HW126831   3.269   4.626   1.013 -2.3266  1.1256 -1.9265
 8751SOL    HW226832   3.304   4.498   0.940 -0.4526  0.5997 -0.1726
 8752SOL     OW26833   0.316   3.769   2.298 -0.0740 -0.1668  0.3846
 8752SOL    HW126834   0.403   3.808   2.295 -0.6061  1.0304 -0.4382
 8752SOL    HW226835   0.257   3.842   2.280 -1.2107 -1.0756  0.3303
 8753SOL     OW26836   5.661   4.725   6.841 -0.4671 -0.7809 -0.4300
 8753SOL    HW126837   5.580   4.732   6.791 -0.3802  0.9416 -0.3763
 8753SOL    HW226838   5.638   4.754   6.929  0.5992  1.7795 -0.9063
 8754SOL     OW26839   2.338   0.321   2.925 -0.0520 -0.0564  0.0129
 8754SOL    HW126840   2.412   0.264   2.946 -0.4115 -0.7757 -0.6475
 8754SOL    HW226841   2.334   0.322   2.830 -0.6010  0.3575  0.0320
 8755SOL     OW26842   5.897   7.115   2.607  0.2773 -0.6513 -0.2973
 8755SOL    HW126843   5.991   7.129   2.619 -0.2238  1.0630  2.4794
 8755SOL    HW226844   5.860   7.122   2.695 -2.3921 -2.1354 -1.1814
 8756SOL     OW26845   7.569   7.959   9.407  0.2073  0.4867  0.3389
 8756SOL    HW126846   7.521   7.943   9.488 -1.2323 -0.2988 -0.6197
 8756SOL    HW226847   7.609   7.874   9.386  1.2637  0.8970  0.6386
 8757SOL     OW26848   3.857   8.941   0.044 -0.1123  0.2913 -0.2628
 8757SOL    HW126849   3.859   8.960   0.138  0.2914 -0.0201 -0.2007
 8757SOL    HW226850   3.768   8.962   0.016  0.0260  1.2653 -0.0012
 8758SOL     OW26851   0.495   3.300   0.601 -0.6152  0.1873 -0.1489
 8758SOL    HW126852   0.551   3.223   0.597  2.9744  2.6161 -0.7674
 8758SOL    HW226853   0.547   3.370   0.564 -3.5340  3.0644  0.7205
 8759SOL     OW26854   3.290   2.839   4.143 -0.5214  0.1319 -0.3764
 8759SOL    HW126855   3.267   2.922   4.101  0.0157  0.5454  0.1180
 8759SOL    HW226856   3.291   2.859   4.237  1.2631  0.0175 -0.3248
 8760SOL     OW26857   7.799   4.410   0.374  0.2505 -0.4521 -0.3980
 8760SOL    HW126858   7.768   4.466   0.446  0.1844  0.8528 -1.4109
 8760SOL    HW226859   7.729   4.346   0.362  0.1317 -0.4993  0.5075
 8761SOL     OW26860   3.285   9.245   7.718 -0.5284  0.4763  0.4318
 8761SOL    HW126861   3.344   9.266   7.645 -0.6921 -0.7976 -0.0923
 8761SOL    HW226862   3.328   9.173   7.763 -0.8518  0.6932  1.1058
 8762SOL     OW26863   4.314   4.829   0.951 -0.4291  0.4766 -0.3874
 8762SOL    HW126864   4.314   4.912   1.000 -1.6068 -0.5311  1.4345
 8762SOL    HW226865   4.225   4.796   0.960  0.3283 -1.5716 -0.0409
 8763SOL     OW26866   0.735   1.684   5.334  0.0291 -0.9413 -0.2960
 8763SOL    HW126867   0.794   1.665   5.262 -0.2346 -0.7794 -0.5599
 8763SOL    HW226868   0.652   1.707   5.291 -0.5817 -2.3218  0.0887
 8764SOL     OW26869   9.897   5.185   5.398 -0.4047  0.0415  0.2008
 8764SOL    HW126870   9.901   5.270   5.356 -1.6478  0.1462  0.2448
 8764SOL    HW226871   9.955   5.129   5.347  0.4514  0.9155  0.1974
 8765SOL     OW26872   4.184   1.066   0.687 -0.5485 -0.0453 -0.4811
 8765SOL    HW126873   4.224   1.047   0.772  0.7166 -0.8189 -1.2095
 8765SOL    HW226874   4.203   1.159   0.672  0.4149 -0.2372 -0.5112
 8766SOL     OW26875   0.979   7.679   5.054 -0.9091 -0.4327 -0.1672
 8766SOL    HW126876   1.050   7.743   5.051  0.3504 -1.8028 -1.0723
 8766SOL    HW226877   0.926   7.705   5.129 -0.2657  1.4605 -0.3206
 8767SOL     OW26878   6.185   7.451   5.223  0.0766 -0.4597  0.1986
 8767SOL    HW126879   6.144   7.366   5.242  3.7508 -2.6831 -0.7144
 8767SOL    HW226880   6.217   7.442   5.134  2.8386  0.7815  0.9569
 8768SOL     OW26881   2.504   8.288   7.838 -0.2014  0.2010  0.0956
 8768SOL    HW126882   2.584   8.253   7.876  0.1955  0.9033 -0.0761
 8768SOL    HW226883   2.532   8.368   7.792 -0.5713 -0.8257 -2.0323
 8769SOL     OW26884   5.825   3.218   4.790  0.0770  0.3823  0.1390
 8769SOL    HW126885   5.811   3.276   4.864  1.2307  2.1754 -0.9788
 8769SOL    HW226886   5.896   3.160   4.818  1.1215  1.6354  0.1526
 8770SOL     OW26887   9.330   0.670   2.311 -0.2353  0.2013  0.2353
 8770SOL    HW126888   9.244   0.676   2.268 -1.9600 -1.9088  3.0353
 8770SOL    HW226889   9.390   0.650   2.239 -2.7202 -2.0054 -1.4547
 8771SOL     OW26890   2.130   2.211   4.102  0.1370 -0.6074 -0.0357
 8771SOL    HW126891   2.120   2.208   4.197 -0.3614 -0.8906 -0.0954
 8771SOL    HW226892   2.090   2.295   4.076  0.9030 -0.2021  0.0751
 8772SOL     OW26893   3.306   7.571   1.232  0.1625 -0.1843  0.3117
 8772SOL    HW126894   3.223   7.557   1.187  0.5950  1.9558 -1.2915
 8772SOL    HW226895   3.349   7.486   1.230 -1.4960 -1.0522  0.1534
 8773SOL     OW26896   9.628   2.380   9.874  0.0158  0.3271  0.6101
 8773SOL    HW126897   9.633   2.360   9.968 -0.7331 -0.2228  0.5469
 8773SOL    HW226898   9.537   2.363   9.851  0.2014  0.4229 -0.2318
 8774SOL     OW26899   1.260   1.493   7.057 -0.3530 -0.1021  0.7502
 8774SOL    HW126900   1.216   1.433   6.997 -1.1554  0.1420  1.0760
 8774SOL    HW226901   1.329   1.534   7.005 -0.9627  0.0240  0.0218
 8775SOL     OW26902   0.195   3.725   3.446  0.6171 -0.3183  0.2020
 8775SOL    HW126903   0.177   3.816   3.420 -2.5932 -0.5450  1.1876
 8775SOL    HW226904   0.244   3.689   3.373  2.0565  2.1798 -0.2002
 8776SOL     OW26905   6.230   5.552   7.783  0.1340  0.2109  0.9251
 8776SOL    HW126906   6.159   5.616   7.774  1.2619  1.5097  0.7732
 8776SOL    HW226907   6.254   5.529   7.694  1.3912  1.5590  0.8735
 8777SOL     OW26908   1.861   8.960   7.823  0.2370 -0.0693 -0.8136
 8777SOL    HW126909   1.807   9.039   7.822  0.1139 -0.1110  0.6370
 8777SOL    HW226910   1.927   8.977   7.891  0.2335 -1.1894 -0.5181
 8778SOL     OW26911   8.599   5.048   1.598 -0.9998 -0.2244 -0.1835
 8778SOL    HW126912   8.619   4.955   1.589 -0.2286 -0.0793 -0.0792
 8778SOL    HW226913   8.616   5.084   1.511  1.9730  0.3796  0.5493
 8779SOL     OW26914   1.416   5.637   3.278 -0.5177 -0.4401  0.1055
 8779SOL    HW126915   1.402   5.573   3.208  0.4423 -0.5436 -0.0074
 8779SOL    HW226916   1.473   5.593   3.340  0.8267  0.5600 -0.3682
 8780SOL     OW26917   7.840   9.809   9.282 -0.3650 -0.3432  0.4025
 8780SOL    HW126918   7.799   9.736   9.235 -0.9220 -0.4983  1.1196
 8780SOL    HW226919   7.810   9.799   9.372 -0.6642  0.9348  0.4540
 8781SOL     OW26920   0.875   2.480   3.740  0.0867 -0.0957 -0.5393
 8781SOL    HW126921   0.868   2.568   3.704  1.5657  0.7754  1.1337
 8781SOL    HW226922   0.853   2.490   3.833  0.4083 -1.4563 -0.2942
 8782SOL     OW26923   0.432   3.801   4.442 -0.8038 -0.2963  0.1747
 8782SOL    HW126924   0.414   3.721   4.491  0.5344 -0.4821  0.4178
 8782SOL    HW226925   0.497   3.847   4.496  1.1094 -0.7576 -1.6295
 8783SOL     OW26926   4.526   8.275   6.207 -0.1249  0.1170 -0.2984
 8783SOL    HW126927   4.473   8.299   6.130 -1.1248 -0.1306  0.2987
 8783SOL    HW226928   4.590   8.213   6.173 -0.6612 -0.1220 -0.9019
 8784SOL     OW26929   9.377   3.346   2.099 -0.0200  0.2020  0.2640
 8784SOL    HW126930   9.287   3.334   2.131  0.0283  0.8699  0.6538
 8784SOL    HW226931   9.370   3.332   2.005 -0.1716 -1.7428  0.5234
 8785SOL     OW26932   6.161   7.116   9.758  0.2711  0.1563  0.2857
 8785SOL    HW126933   6.153   7.202   9.800  0.6935  1.1555 -1.5513
 8785SOL    HW226934   6.191   7.058   9.828  0.7101  1.6739  1.4159
 8786SOL     OW26935   4.478   7.313   9.674 -0.1155  0.4496 -0.1372
 8786SOL    HW126936   4.551   7.311   9.736  0.0615  1.7082 -0.2932
 8786SOL    HW226937   4.402   7.338   9.727 -0.2613  0.0644 -0.1574
 8787SOL     OW26938   5.450   8.582   6.057 -0.1236 -0.5037 -0.1487
 8787SOL    HW126939   5.414   8.638   5.988 -1.2491 -0.9271  0.0720
 8787SOL    HW226940   5.497   8.513   6.010 -1.2929 -1.0664 -0.5356
 8788SOL     OW26941   1.993   0.176   8.763  0.1599  0.0665  0.1513
 8788SOL    HW126942   1.987   0.082   8.749  0.9699  0.0696 -0.2601
 8788SOL    HW226943   2.036   0.210   8.684 -3.8004  1.3684 -1.7377
 8789SOL     OW26944   0.513   6.163   5.137  0.1030  0.0065 -0.8771
 8789SOL    HW126945   0.436   6.220   5.141 -0.0920 -0.1371 -2.1493
 8789SOL    HW226946   0.511   6.126   5.049  2.4009  1.0995 -1.4806
 8790SOL     OW26947   9.712   6.789   6.861  0.4229  0.1593  0.0885
 8790SOL    HW126948   9.782   6.725   6.852 -1.6271 -2.1478 -0.7549
 8790SOL    HW226949   9.691   6.814   6.771 -1.6381 -1.4232  0.0415
 8791SOL     OW26950   1.053   2.894   2.142  0.2587  0.3446  0.8036
 8791SOL    HW126951   1.140   2.878   2.104 -0.3242  0.1268 -0.4729
 8791SOL    HW226952   0.993   2.889   2.068 -1.0358 -1.0928  1.8880
 8792SOL     OW26953   5.031   9.479   0.363 -0.2933 -0.0700 -0.1206
 8792SOL    HW126954   4.978   9.467   0.285 -0.4195  0.5527 -0.1363
 8792SOL    HW226955   5.087   9.554   0.343  1.6693 -1.6013 -0.6871
 8793SOL     OW26956   2.841   1.086   7.751  0.4335  0.0672  0.0942
 8793SOL    HW126957   2.771   1.132   7.706  0.3674  0.7994  0.9077
 8793SOL    HW226958   2.872   1.148   7.817  0.7575 -0.8371  0.8169
 8794SOL     OW26959   4.318   9.565   3.171  0.0329  0.0022 -0.2428
 8794SOL    HW126960   4.232   9.601   3.147  0.4304  1.1027 -0.0588
 8794SOL    HW226961   4.320   9.571   3.267 -0.2780 -1.4298 -0.1274
 8795SOL     OW26962   2.729   5.144   5.322 -0.7034 -0.6171 -0.3753
 8795SOL    HW126963   2.658   5.170   5.264 -0.4990 -0.6130 -0.6272
 8795SOL    HW226964   2.806   5.190   5.288 -1.0865  1.6480  1.5667
 8796SOL     OW26965   3.619   6.853   2.312 -0.3704  0.3498  0.2241
 8796SOL    HW126966   3.559   6.916   2.353 -0.4993  0.7000 -0.4787
 8796SOL    HW226967   3.568   6.772   2.305 -0.2676  0.2157  0.9580
 8797SOL     OW26968   9.632   3.837   7.858 -0.1121 -0.3464  0.0056
 8797SOL    HW126969   9.687   3.893   7.803 -0.6648 -0.0244 -0.2201
 8797SOL    HW226970   9.695   3.784   7.908  0.4511  1.0570  0.8459
 8798SOL     OW26971   1.604   8.547   6.011  0.3902 -0.0770  0.3641
 8798SOL    HW126972   1.575   8.638   6.010 -1.7751 -0.6197  3.0463
 8798SOL    HW226973   1.665   8.542   6.085  2.5081 -0.3697 -1.2966
 8799SOL     OW26974   8.801   9.587   3.194  0.0472 -0.7361 -0.2962
 8799SOL    HW126975   8.728   9.631   3.237 -0.1500  0.1815 -1.4956
 8799SOL    HW226976   8.876   9.603   3.251 -0.4227 -0.5460  0.2763
 8800SOL     OW26977   2.014   9.907   7.409  0.0379 -0.5316 -0.1485
 8800SOL    HW126978   2.024   9.854   7.488 -2.4096 -0.6193  0.1739
 8800SOL    HW226979   1.921   9.929   7.407  0.3114  0.6373 -2.2791
 8801SOL     OW26980   7.535   4.624   0.337  0.2603 -0.6297 -0.5694
 8801SOL    HW126981   7.444   4.596   0.326  0.5225 -1.7731  0.0202
 8801SOL    HW226982   7.538   4.660   0.425  0.5058 -1.1565 -0.3581
 8802SOL     OW26983   8.417   5.762   0.351 -0.1890 -0.2173 -0.5121
 8802SOL    HW126984   8.340   5.793   0.399  0.1494  0.0385 -0.1186
 8802SOL    HW226985   8.388   5.754   0.260 -0.2589  1.4125 -0.6637
 8803SOL     OW26986   5.355   3.591   3.497 -0.3453 -0.3999 -0.2445
 8803SOL    HW126987   5.404   3.512   3.475  0.4567 -0.0025  0.0778
 8803SOL    HW226988   5.367   3.649   3.421 -0.9060 -0.5624 -0.4665
 8804SOL     OW26989   6.291   2.573   9.222  0.0974  0.4880 -0.3515
 8804SOL    HW126990   6.301   2.667   9.204 -1.0599  0.2465 -2.5598
 8804SOL    HW226991   6.364   2.532   9.176 -1.8814  0.0130 -3.3581
 8805SOL     OW26992   0.479   4.665   3.329 -0.3086  0.2636  0.2645
 8805SOL    HW126993   0.557   4.662   3.384 -0.5842 -0.7519  0.6201
 8805SOL    HW226994   0.512   4.674   3.240  0.1738  0.8111  0.4907
 8806SOL     OW26995   2.465   4.299   8.755  0.5289  0.4592 -0.5485
 8806SOL    HW126996   2.392   4.354   8.781 -0.5399 -1.3125  0.3592
 8806SOL    HW226997   2.543   4.346   8.787 -0.3951  1.0423  0.9193
 8807SOL     OW26998   1.396   6.603   7.255 -0.1683 -0.7365  0.2378
 8807SOL    HW126999   1.356   6.521   7.225  0.7489 -0.9193 -0.5440
 8807SOL    HW227000   1.350   6.672   7.208 -0.4099 -0.8553  0.2989
 8808SOL     OW27001   4.639   2.118   5.234  0.0445 -0.3266 -0.0144
 8808SOL    HW127002   4.577   2.179   5.274  0.9942  0.6216  0.0515
 8808SOL    HW227003   4.719   2.127   5.286  0.3073 -1.4155 -0.1922
 8809SOL     OW27004   0.127   4.619   1.512  0.0340 -0.3426 -0.0451
 8809SOL    HW127005   0.047   4.624   1.563  0.3538 -2.8927  0.8301
 8809SOL    HW227006   0.197   4.613   1.577  0.9142  1.1991 -0.7995
 8810SOL     OW27007   1.765   0.036   1.905 -0.2117  0.4235  0.0699
 8810SOL    HW127008   1.817   0.011   1.829 -1.5173 -0.5053 -0.5588
 8810SOL    HW227009   1.811  -0.003   1.980 -0.6419 -1.5078 -0.6054
 8811SOL     OW27010   4.763   2.722   3.438  0.3523  0.0308  0.0400
 8811SOL    HW127011   4.818   2.730   3.360 -0.6472  1.6195 -0.5462
 8811SOL    HW227012   4.687   2.778   3.420  0.2303  0.6732  2.2711
 8812SOL     OW27013   1.236   2.258   1.152  0.8146 -0.4431  0.2731
 8812SOL    HW127014   1.182   2.324   1.195  0.3582 -1.3755  1.1710
 8812SOL    HW227015   1.240   2.287   1.061  0.4251  0.6868  0.5987
 8813SOL     OW27016   0.133   4.199   5.155 -0.1340  0.6300 -0.4275
 8813SOL    HW127017   0.215   4.203   5.106  0.4203 -1.0891  0.2706
 8813SOL    HW227018   0.067   4.231   5.094  0.9484  1.3973 -1.2437
 8814SOL     OW27019   9.344   4.603   2.354  0.0762  0.0364 -0.4587
 8814SOL    HW127020   9.290   4.584   2.431  0.9627 -1.1355 -0.0911
 8814SOL    HW227021   9.417   4.655   2.388  1.0237 -1.3555 -0.2734
 8815SOL     OW27022   0.588   5.137   0.099  0.0409  0.4096 -0.4075
 8815SOL    HW127023   0.658   5.144   0.163 -0.3400  0.2640  0.0335
 8815SOL    HW227024   0.632   5.143   0.014  0.7330 -0.8467 -0.1663
 8816SOL     OW27025   4.781   3.490   8.890 -0.3250 -0.5883  0.2422
 8816SOL    HW127026   4.789   3.584   8.908 -0.3775 -0.6225  0.4489
 8816SOL    HW227027   4.697   3.466   8.930  0.1529 -0.9265  1.0605
 8817SOL     OW27028   2.201   5.470   5.896 -0.4766  0.0533  0.1892
 8817SOL    HW127029   2.177   5.561   5.879 -0.0984 -0.0106 -0.7443
 8817SOL    HW227030   2.204   5.463   5.991 -0.1934  1.1000  0.2635
 8818SOL     OW27031   7.934   1.574   7.471 -0.3496  0.0440  0.5049
 8818SOL    HW127032   7.965   1.484   7.460 -0.4762 -0.0979  1.2673
 8818SOL    HW227033   8.014   1.626   7.477 -0.2449  0.2665 -1.8977
 8819SOL     OW27034   9.269   2.669   6.268 -0.3585 -0.7693  0.0557
 8819SOL    HW127035   9.238   2.757   6.247 -0.5859 -0.3297  2.1092
 8819SOL    HW227036   9.218   2.642   6.344  1.2091 -1.8235  0.7791
 8820SOL     OW27037   4.313   6.192   6.660 -0.1506 -0.6155  0.2640
 8820SOL    HW127038   4.292   6.240   6.740 -2.1610  0.2445 -0.7197
 8820SOL    HW227039   4.401   6.222   6.636 -0.9288  1.8583  0.2429
 8821SOL     OW27040   5.878   9.346   9.092 -0.2069 -0.2622 -0.0929
 8821SOL    HW127041   5.901   9.305   9.009  0.6059  0.4286 -0.2251
 8821SOL    HW227042   5.790   9.315   9.111  0.1699 -1.6162 -0.4633
 8822SOL     OW27043   4.235   1.937   0.542  0.6294 -0.1806  0.5495
 8822SOL    HW127044   4.258   1.912   0.453 -1.3489 -0.1383 -0.0156
 8822SOL    HW227045   4.315   1.975   0.578  1.5464 -0.4838 -1.0930
 8823SOL     OW27046   6.825   7.853   8.323  0.1496 -0.2306  0.5289
 8823SOL    HW127047   6.872   7.916   8.377 -0.9446  2.0300 -0.9789
 8823SOL    HW227048   6.734   7.883   8.324 -0.2499 -1.2611 -0.9638
 8824SOL     OW27049   9.857   4.990   1.147  0.2252 -0.4229  0.0303
 8824SOL    HW127050   9.768   4.992   1.182 -0.4049 -0.2990 -1.4962
 8824SOL    HW227051   9.902   4.924   1.200 -1.1316 -1.3943  0.0102
 8825SOL     OW27052   2.672   5.635   0.043  0.8016 -0.7860 -0.0652
 8825SOL    HW127053   2.585   5.628   0.082  0.9370 -0.8394  0.2228
 8825SOL    HW227054   2.733   5.623   0.116  1.0639  1.7664  0.2227
 8826SOL     OW27055   4.237   6.648   9.743  0.5078 -0.3060 -0.2633
 8826SOL    HW127056   4.166   6.712   9.733 -0.9968 -1.9838 -1.0067
 8826SOL    HW227057   4.308   6.682   9.689  0.3485  1.4831  0.5842
 8827SOL     OW27058   7.165   3.415   3.015 -0.2972  0.4612  0.1411
 8827SOL    HW127059   7.233   3.421   2.948  0.7199 -1.3381  0.9230
 8827SOL    HW227060   7.090   3.375   2.970  0.5879 -1.3088  0.1600
 8828SOL     OW27061   5.959   9.290   6.898  0.1118  0.6792  0.3344
 8828SOL    HW127062   5.995   9.377   6.916  1.0594  0.4897 -0.5604
 8828SOL    HW227063   6.030   9.242   6.857 -0.6337 -0.2865  0.1251
 8829SOL     OW27064   7.009   0.035   2.291 -0.2608  0.9731  0.3153
 8829SOL    HW127065   7.037  -0.053   2.266  1.2907  1.3820  0.5096
 8829SOL    HW227066   7.023   0.039   2.385  1.9244  2.1474  0.0059
 8830SOL     OW27067   4.258   4.208   9.264  0.3731  0.0248  0.1480
 8830SOL    HW127068   4.278   4.116   9.284 -0.6642 -0.1846  0.2835
 8830SOL    HW227069   4.222   4.205   9.176 -0.2160  0.2183  0.3793
 8831SOL     OW27070   5.788   6.839   5.573  0.4350 -0.1086 -0.0773
 8831SOL    HW127071   5.703   6.804   5.544 -0.0010  1.0375 -0.2614
 8831SOL    HW227072   5.778   6.850   5.668  0.7766 -0.9815  0.0731
 8832SOL     OW27073   0.797   5.570   0.708 -0.1090  0.0145  0.4521
 8832SOL    HW127074   0.885   5.603   0.686 -0.5480  1.4914  0.7936
 8832SOL    HW227075   0.739   5.645   0.692 -1.6195 -1.4807 -1.6854
 8833SOL     OW27076   9.908   9.476   1.061 -0.1525 -0.4990  0.3557
 8833SOL    HW127077   9.877   9.519   0.981  1.7791 -0.1396 -0.2531
 8833SOL    HW227078   9.906   9.383   1.041 -1.5742 -0.5452  0.6309
 8834SOL     OW27079   0.742   9.603   7.819 -0.1243  0.0160  0.4365
 8834SOL    HW127080   0.796   9.642   7.749 -1.5537  1.0180 -0.1482
 8834SOL    HW227081   0.750   9.508   7.804  0.5552  0.1798 -0.3503
 8835SOL     OW27082   7.532   2.845   4.286  0.6365 -0.0025 -0.0031
 8835SOL    HW127083   7.497   2.804   4.365 -0.7372 -1.6629 -1.3838
 8835SOL    HW227084   7.625   2.824   4.287  0.8616  0.9763  1.7200
 8836SOL     OW27085   7.108   5.203   9.579 -0.1479  0.5304 -0.3019
 8836SOL    HW127086   7.030   5.149   9.563 -0.2157  0.3710  0.4871
 8836SOL    HW227087   7.074   5.290   9.597  0.0046  1.0611 -2.3595
 8837SOL     OW27088   9.474   8.306   5.494  0.1002  0.1881  0.2084
 8837SOL    HW127089   9.380   8.291   5.483  0.2072 -2.1762  1.7933
 8837SOL    HW227090   9.513   8.219   5.493  2.1584  1.0373  0.6161
 8838SOL     OW27091   9.836   3.137   0.527  0.0795  0.3974 -0.1711
 8838SOL    HW127092   9.921   3.101   0.553 -0.3277  0.3016  1.0946
 8838SOL    HW227093   9.795   3.066   0.478  0.9590  0.6597 -1.3284
 8839SOL     OW27094   6.250   8.753   6.209 -0.7332 -0.2089 -0.2648
 8839SOL    HW127095   6.158   8.740   6.188 -0.6207 -0.9316 -0.3136
 8839SOL    HW227096   6.252   8.838   6.253 -1.2010  0.5407 -1.6296
 8840SOL     OW27097   6.627   8.250   0.297 -0.3441 -0.0455  0.2670
 8840SOL    HW127098   6.625   8.334   0.342 -2.1155 -0.5574  1.2112
 8840SOL    HW227099   6.698   8.202   0.340  1.4226  1.2748 -0.9906
 8841SOL     OW27100   5.075   2.325   3.932 -0.4547 -0.0008  0.1166
 8841SOL    HW127101   5.129   2.395   3.969  1.0308 -1.3260  0.5669
 8841SOL    HW227102   5.005   2.313   3.997  0.6822 -0.5713  1.2765
 8842SOL     OW27103   3.321   9.069   4.040 -0.1437 -0.1503 -0.0286
 8842SOL    HW127104   3.255   9.050   4.107 -0.2228  1.8061  0.5279
 8842SOL    HW227105   3.311   9.000   3.975 -1.0052 -1.3235  1.2908
 8843SOL     OW27106   0.405   6.298   5.851 -0.4509  0.4447 -0.0211
 8843SOL    HW127107   0.448   6.251   5.779 -0.7305 -0.2873  0.2791
 8843SOL    HW227108   0.393   6.231   5.919 -3.2028  0.2907 -0.5671
 8844SOL     OW27109   4.840   0.424   6.500  0.1127  0.1753  0.0355
 8844SOL    HW127110   4.774   0.443   6.433  0.6006 -0.9244 -0.7838
 8844SOL    HW227111   4.900   0.499   6.495 -0.4161  0.6022 -0.0348
 8845SOL     OW27112   6.282   0.274   4.883  0.2125  0.0293  0.1195
 8845SOL    HW127113   6.270   0.205   4.817  1.0029  1.8343 -2.0242
 8845SOL    HW227114   6.376   0.274   4.900  0.1855  0.4516  0.2676
 8846SOL     OW27115   1.011   8.596   8.283 -0.2792 -0.0174 -0.1434
 8846SOL    HW127116   1.077   8.606   8.215 -0.5862  1.2754 -0.2687
 8846SOL    HW227117   0.946   8.537   8.244  1.1262 -1.9564  0.2688
 8847SOL     OW27118   7.180   5.084   2.012 -0.4005 -0.0304 -0.1704
 8847SOL    HW127119   7.270   5.107   2.037 -0.3972 -1.3898  1.2428
 8847SOL    HW227120   7.191   5.023   1.939 -0.2454  0.9230 -0.9543
 8848SOL     OW27121   8.151   9.071   9.898 -0.0635  0.0884 -0.3121
 8848SOL    HW127122   8.179   9.163   9.893 -1.2364  0.4477 -0.6827
 8848SOL    HW227123   8.085   9.070   9.967  0.1962 -0.5508 -0.0683
 8849SOL     OW27124   3.599   7.143   0.459  0.4330 -0.1212 -0.0689
 8849SOL    HW127125   3.672   7.192   0.497 -0.8071  0.6554  1.4399
 8849SOL    HW227126   3.610   7.054   0.491  0.2153  0.2100  0.9846
 8850SOL     OW27127   9.943   6.501   4.479  0.1068 -0.1549 -0.4762
 8850SOL    HW127128  10.026   6.467   4.446  0.3070 -0.6056  0.4685
 8850SOL    HW227129   9.881   6.485   4.408  0.5459 -1.0105 -0.6823
 8851SOL     OW27130   1.744   2.507   7.737 -0.4923  0.4012  0.3540
 8851SOL    HW127131   1.794   2.446   7.791 -1.0383  0.0244  0.4481
 8851SOL    HW227132   1.765   2.483   7.647  2.2614  2.5269  0.2945
 8852SOL     OW27133   6.548   3.789   6.939 -1.0254  0.2210 -0.7823
 8852SOL    HW127134   6.548   3.878   6.974 -0.1520  0.2571 -0.8507
 8852SOL    HW227135   6.537   3.733   7.016  1.6742  0.2606 -0.2690
 8853SOL     OW27136   8.307   3.115   2.220  0.3829 -0.0056 -0.3758
 8853SOL    HW127137   8.325   3.178   2.150  1.8713 -0.5295 -0.5043
 8853SOL    HW227138   8.363   3.040   2.199 -1.1714 -1.2992 -0.1006
 8854SOL     OW27139   1.578   0.721   9.124  0.4941  0.3102  0.2755
 8854SOL    HW127140   1.632   0.642   9.123 -0.5959 -0.4698 -0.7220
 8854SOL    HW227141   1.537   0.723   9.037 -0.0947  1.5575  0.5545
 8855SOL     OW27142   9.126   1.067   5.294  0.0451 -0.0616  0.7580
 8855SOL    HW127143   9.051   1.100   5.245  0.6034  1.6632  0.9796
 8855SOL    HW227144   9.146   0.982   5.255 -1.9405 -0.5220  0.6443
 8856SOL     OW27145   0.040   9.757   8.425 -0.3573  0.3061 -0.2619
 8856SOL    HW127146   0.066   9.841   8.462  1.2864 -1.5746  3.3171
 8856SOL    HW227147  -0.038   9.731   8.475 -0.1434 -0.8129 -0.4775
 8857SOL     OW27148   4.324   1.421   6.843 -0.4262  0.0875 -0.1974
 8857SOL    HW127149   4.333   1.428   6.938  0.5444  0.2814 -0.2944
 8857SOL    HW227150   4.352   1.331   6.823  2.0394  0.8642 -0.5621
 8858SOL     OW27151   2.109   4.909   1.050 -0.3132 -0.1942 -0.3521
 8858SOL    HW127152   2.028   4.951   1.080  1.2916  0.6228  3.3016
 8858SOL    HW227153   2.095   4.815   1.068 -0.1947  0.0372  1.0520
 8859SOL     OW27154   4.449   4.552   5.122  0.0020  0.0615 -0.3522
 8859SOL    HW127155   4.535   4.580   5.089 -0.1130  0.7036 -0.1056
 8859SOL    HW227156   4.453   4.456   5.119  0.3906  0.0960 -1.2120
 8860SOL     OW27157   9.259   8.906   1.377  0.4752 -0.4733  0.7504
 8860SOL    HW127158   9.288   8.816   1.365  1.3140 -0.0688 -0.5561
 8860SOL    HW227159   9.255   8.942   1.288  0.1423  0.7801  1.2415
 8861SOL     OW27160   5.787   9.536   4.961 -0.2478  0.1278 -0.0458
 8861SOL    HW127161   5.815   9.597   4.893  0.4570  1.1595  1.1331
 8861SOL    HW227162   5.770   9.590   5.038  1.8526 -1.2459  1.5127
 8862SOL     OW27163   4.470   9.501   6.997 -0.1887  0.3954  0.3845
 8862SOL    HW127164   4.397   9.442   6.978  0.1325 -0.1363  0.7602
 8862SOL    HW227165   4.530   9.448   7.051 -1.1800  1.8766  3.1534
 8863SOL     OW27166   8.224   2.423   9.148  0.0260  0.4841 -0.3079
 8863SOL    HW127167   8.215   2.339   9.191 -1.7850  2.0361  2.6976
 8863SOL    HW227168   8.313   2.423   9.112 -0.0741 -2.8011 -0.8604
 8864SOL     OW27169   5.448   3.821   5.298  0.0608  0.5659  0.0306
 8864SOL    HW127170   5.474   3.815   5.206  0.0122  0.1765  0.0388
 8864SOL    HW227171   5.396   3.742   5.313  1.9771 -0.5814  1.0101
 8865SOL     OW27172   2.760   6.617   7.812 -0.4388 -0.5048  0.5357
 8865SOL    HW127173   2.728   6.564   7.885 -0.5554 -0.8997  0.2026
 8865SOL    HW227174   2.831   6.668   7.849  1.0963 -2.4154  0.3903
 8866SOL     OW27175   4.172   3.203   0.844 -0.0368  0.2620 -0.0801
 8866SOL    HW127176   4.200   3.185   0.933  0.9748  1.0634 -0.2074
 8866SOL    HW227177   4.250   3.185   0.790 -0.1625  1.2083 -0.6131
 8867SOL     OW27178   9.531   4.828   5.202  0.3595  0.1543  0.2792
 8867SOL    HW127179   9.543   4.733   5.195  2.0996  0.2617  1.3487
 8867SOL    HW227180   9.552   4.849   5.293  1.3284  1.7293 -0.2672
 8868SOL     OW27181   3.733   3.732   9.225  0.3751  0.1470  0.0832
 8868SOL    HW127182   3.711   3.755   9.135  0.8605 -1.0057 -0.3444
 8868SOL    HW227183   3.674   3.660   9.247 -0.2194  0.8824  0.9403
 8869SOL     OW27184   6.531   0.074   9.615  0.1937 -0.3743 -0.2461
 8869SOL    HW127185   6.484   0.127   9.551  0.2913  0.9484  0.7138
 8869SOL    HW227186   6.613   0.122   9.630  0.3346 -0.8412  0.5898
 8870SOL     OW27187   2.693   8.551   2.866 -0.0556 -0.1306  0.2958
 8870SOL    HW127188   2.696   8.494   2.790 -0.6946 -1.7959  1.4457
 8870SOL    HW227189   2.602   8.582   2.869 -0.1552 -0.4464  0.6267
 8871SOL     OW27190   3.459   9.949   0.791 -0.3867  0.0491 -0.5064
 8871SOL    HW127191   3.478  10.042   0.785 -0.8939  0.2681  0.7873
 8871SOL    HW227192   3.461   9.917   0.701 -1.0872  1.4945 -1.0603
 8872SOL     OW27193   0.378   2.398   1.747  0.3560 -0.2708 -0.0286
 8872SOL    HW127194   0.422   2.353   1.675  0.3297 -2.8967  1.4575
 8872SOL    HW227195   0.291   2.419   1.712  0.6156 -0.7815 -1.0164
 8873SOL     OW27196   7.208   0.990   4.234 -0.0162  0.3728 -0.0571
 8873SOL    HW127197   7.156   0.954   4.162  2.3991 -2.2652 -0.6634
 8873SOL    HW227198   7.263   1.056   4.192 -0.4357  0.7024 -0.0942
 8874SOL     OW27199   1.397   0.019   0.590  0.3757 -0.1949 -0.1131
 8874SOL    HW127200   1.425  -0.062   0.632 -2.6798 -1.5428 -0.4460
 8874SOL    HW227201   1.316   0.043   0.635  1.0002  2.5477 -0.2584
 8875SOL     OW27202   7.361   8.251   9.032 -0.3999 -0.1101 -0.7870
 8875SOL    HW127203   7.309   8.252   9.113  0.9798 -0.4534  0.1413
 8875SOL    HW227204   7.427   8.184   9.047 -0.6910 -0.8632 -2.6159
 8876SOL     OW27205   3.218   9.549   4.423  0.3635  0.1721 -0.0683
 8876SOL    HW127206   3.246   9.459   4.408  0.9143  0.6078 -1.9968
 8876SOL    HW227207   3.204   9.555   4.517 -1.8202 -2.5449 -0.0720
 8877SOL     OW27208   6.931   8.652   6.427 -0.1292 -0.2983 -0.1047
 8877SOL    HW127209   6.933   8.646   6.331  1.6960  3.4143 -0.4692
 8877SOL    HW227210   6.988   8.725   6.448 -0.4841 -0.9341  3.9010
 8878SOL     OW27211   7.141   4.590   1.425  0.3995 -0.3440 -0.0523
 8878SOL    HW127212   7.202   4.579   1.352  2.7528 -1.2206  1.9031
 8878SOL    HW227213   7.127   4.501   1.457 -1.4127 -0.0748 -0.0063
 8879SOL     OW27214   0.586   0.801   1.682 -0.2414 -0.1438  0.1597
 8879SOL    HW127215   0.546   0.887   1.691 -0.3613 -0.3038  1.4799
 8879SOL    HW227216   0.560   0.755   1.762  2.9455 -0.0856  1.3590
 8880SOL     OW27217   9.028   0.505   0.244  0.2667 -0.1355 -0.2361
 8880SOL    HW127218   9.104   0.511   0.301 -0.0128  1.2679  0.0246
 8880SOL    HW227219   8.957   0.476   0.302  0.4428 -0.7845 -0.3368
 8881SOL     OW27220   6.976   5.510   5.838 -0.0479  0.6216  0.1968
 8881SOL    HW127221   6.989   5.420   5.868  1.1451  0.9618  0.7585
 8881SOL    HW227222   6.961   5.560   5.918  1.6070  1.2816  0.1459
 8882SOL     OW27223   1.892   4.720   2.967  0.2554 -0.5216 -0.2194
 8882SOL    HW127224   1.858   4.809   2.957  1.7146 -0.0818 -1.4632
 8882SOL    HW227225   1.814   4.665   2.962 -0.5612  0.6101 -0.4384
 8883SOL     OW27226   2.178   6.475   8.657 -0.0513  0.7529  0.1645
 8883SOL    HW127227   2.181   6.534   8.582  0.2925  1.3846  0.6727
 8883SOL    HW227228   2.207   6.528   8.731  0.3736 -0.0830  0.6076
 8884SOL     OW27229   1.120   0.760   6.992 -0.0074 -0.4393  0.2456
 8884SOL    HW127230   1.203   0.769   6.946  0.3091  0.8337  1.0089
 8884SOL    HW227231   1.074   0.842   6.975 -1.8286 -1.7338 -1.4588
 8885SOL     OW27232   9.005   0.007   8.092  0.3785  0.1689 -0.4495
 8885SOL    HW127233   9.029   0.098   8.075 -2.0648  1.2946  1.5016
 8885SOL    HW227234   8.916   0.012   8.126  0.4465 -2.9153  0.4495
 8886SOL     OW27235   5.342   4.895   9.954 -1.0482  0.0648  0.3600
 8886SOL    HW127236   5.288   4.954  10.006 -0.0564 -0.5229  2.1345
 8886SOL    HW227237   5.427   4.939   9.950 -1.2120  0.3072 -1.1891
 8887SOL     OW27238   3.249   8.217   0.077 -0.1596 -0.4397 -0.5080
 8887SOL    HW127239   3.330   8.178   0.108  0.7478  1.1561 -0.7947
 8887SOL    HW227240   3.180   8.161   0.114  1.0481 -2.4788 -1.1821
 8888SOL     OW27241   9.643   6.694   8.883 -0.2574 -0.2526 -0.0762
 8888SOL    HW127242   9.621   6.751   8.957 -0.9743  1.2073 -1.3551
 8888SOL    HW227243   9.705   6.632   8.919 -0.5426  0.4383  1.7492
 8889SOL     OW27244   9.104   5.945   1.024  0.1933 -0.0020 -0.1513
 8889SOL    HW127245   9.086   5.956   0.930 -2.1801  2.7478  0.4700
 8889SOL    HW227246   9.110   6.034   1.058  1.1729 -0.9264  2.3240
 8890SOL     OW27247   0.053   1.137   4.756 -0.5226  0.0371  0.3729
 8890SOL    HW127248   0.019   1.182   4.678  0.1145 -0.5863 -0.2768
 8890SOL    HW227249   0.110   1.068   4.721  0.6887  0.4758  1.4146
 8891SOL     OW27250   3.847   7.818   6.424  0.3820 -0.1887  0.3327
 8891SOL    HW127251   3.912   7.801   6.492 -0.8164 -1.1892  1.2823
 8891SOL    HW227252   3.898   7.847   6.349  1.8658 -0.4006  1.2154
 8892SOL     OW27253   2.068   0.182   7.320  0.0674 -0.1136  0.3405
 8892SOL    HW127254   2.138   0.198   7.257  0.1150  0.4949  0.5382
 8892SOL    HW227255   2.067   0.087   7.332  1.3367 -0.0821  0.8786
 8893SOL     OW27256   2.790   7.128   0.362  0.6991 -0.7504  0.4349
 8893SOL    HW127257   2.734   7.200   0.392  1.1931 -0.5845  0.9816
 8893SOL    HW227258   2.753   7.102   0.278  0.4619  0.0905  0.2724
 8894SOL     OW27259   6.795   2.532   4.445  1.2479  0.2104 -0.5385
 8894SOL    HW127260   6.724   2.594   4.461 -0.9185 -2.6071  2.0170
 8894SOL    HW227261   6.773   2.492   4.361  0.2784  0.0302 -0.2148
 8895SOL     OW27262   9.233   4.736   8.480 -0.1348 -0.3376  0.3999
 8895SOL    HW127263   9.185   4.668   8.529 -0.6531 -0.4644 -0.2606
 8895SOL    HW227264   9.315   4.694   8.455 -0.0272 -0.3942  0.8407
 8896SOL     OW27265   4.401   2.726   6.089  0.5831  0.2405 -0.2688
 8896SOL    HW127266   4.384   2.677   6.009  1.8487  0.0961 -0.4726
 8896SOL    HW227267   4.353   2.678   6.157 -0.6133  0.4408 -0.9377
 8897SOL     OW27268   7.720   5.515   2.560 -0.0195  0.0112  0.6417
 8897SOL    HW127269   7.681   5.433   2.592  0.6237 -0.3720  0.4641
 8897SOL    HW227270   7.717   5.507   2.465  0.9954 -0.2844  0.6182
 8898SOL     OW27271   9.466   7.259   0.025  0.7189 -0.0085 -0.2098
 8898SOL    HW127272   9.484   7.311   0.103  1.7130  0.6202 -0.8360
 8898SOL    HW227273   9.419   7.319  -0.034 -1.7705 -1.0328  0.6040
 8899SOL     OW27274   3.318   6.411   1.430 -0.1135  0.2220  0.3330
 8899SOL    HW127275   3.297   6.326   1.390  2.2397  0.0185 -0.6591
 8899SOL    HW227276   3.380   6.389   1.500  2.4097  1.1883 -1.4388
 8900SOL     OW27277   8.005   7.507   0.518 -0.0188 -0.5308  0.1057
 8900SOL    HW127278   8.062   7.495   0.442  0.2829 -0.4209  0.3177
 8900SOL    HW227279   7.953   7.585   0.497  2.0261  1.2388  1.2133
 8901SOL     OW27280   8.159   4.954   6.434  0.4664 -0.4928 -0.3161
 8901SOL    HW127281   8.122   5.007   6.504 -0.0110 -1.4119  0.1388
 8901SOL    HW227282   8.250   4.939   6.460  1.4547  2.3144 -1.7466
 8902SOL     OW27283   4.786   3.219   4.394 -0.0401 -0.1721  0.1416
 8902SOL    HW127284   4.870   3.215   4.348 -0.4223  0.6356 -0.6685
 8902SOL    HW227285   4.809   3.226   4.486  0.8032  0.7102 -0.1157
 8903SOL     OW27286   0.868   4.715   5.151  0.4730 -0.1837 -0.1369
 8903SOL    HW127287   0.831   4.744   5.068 -0.6475 -2.4448 -0.4916
 8903SOL    HW227288   0.868   4.620   5.146  1.7889 -0.3500  1.8685
 8904SOL     OW27289   8.875   2.965   9.120 -0.0162  0.4244 -0.4222
 8904SOL    HW127290   8.802   2.903   9.123 -0.3233  0.8144  0.1933
 8904SOL    HW227291   8.902   2.975   9.211 -0.2765  1.5593 -0.4634
 8905SOL     OW27292   3.125   1.213   1.315  0.2627  0.0136 -0.2226
 8905SOL    HW127293   3.105   1.306   1.308 -0.3072  0.0209  1.0815
 8905SOL    HW227294   3.046   1.174   1.352  1.2033 -0.6121  1.2719
 8906SOL     OW27295   4.421   2.034   6.974 -0.2981  0.1876  0.4313
 8906SOL    HW127296   4.455   2.122   6.957  1.0839 -0.5653 -0.9595
 8906SOL    HW227297   4.350   2.023   6.911  1.3442 -0.6557 -1.3606
 8907SOL     OW27298   1.402   1.979   8.855 -0.2692 -0.5074 -0.0558
 8907SOL    HW127299   1.340   1.990   8.783  1.8655  1.1058 -1.8118
 8907SOL    HW227300   1.472   1.926   8.818  0.4206 -0.4743  1.1477
 8908SOL     OW27301   7.271   2.631   3.913 -0.5447 -0.3174  0.1503
 8908SOL    HW127302   7.251   2.539   3.892 -1.7138 -0.4329  1.5697
 8908SOL    HW227303   7.322   2.626   3.994  0.6788  0.2457 -0.5668
 8909SOL     OW27304   5.781   2.167   4.879  0.4281  0.1723  0.6180
 8909SOL    HW127305   5.717   2.109   4.919  1.0588  0.0084  1.4152
 8909SOL    HW227306   5.859   2.113   4.868  0.5736  0.4869  0.0580
 8910SOL     OW27307   7.695   6.160   8.718 -0.1717  0.2060 -0.0065
 8910SOL    HW127308   7.652   6.160   8.632 -1.4397 -0.1485  0.6026
 8910SOL    HW227309   7.624   6.141   8.780  1.2462 -2.9886  0.8395
 8911SOL     OW27310   8.091   7.173   5.738 -0.5153 -0.6949  0.0803
 8911SOL    HW127311   8.186   7.182   5.743 -0.5174 -1.1771  1.4354
 8911SOL    HW227312   8.060   7.198   5.825 -1.7556  0.7532 -0.7343
 8912SOL     OW27313   7.403   4.704   2.513 -0.5754 -0.2791 -0.3621
 8912SOL    HW127314   7.406   4.619   2.469 -0.8408 -0.8105  0.6002
 8912SOL    HW227315   7.422   4.768   2.445 -0.0908 -1.1360 -1.0471
 8913SOL     OW27316   8.668   0.886   6.083  0.2141  0.0369 -0.4047
 8913SOL    HW127317   8.610   0.809   6.083  0.4999 -0.1971 -1.5111
 8913SOL    HW227318   8.608   0.960   6.079 -0.0606 -0.1363  0.4379
 8914SOL     OW27319   3.987   0.697   1.570 -0.3592  0.1463  0.1003
 8914SOL    HW127320   3.976   0.642   1.492 -1.2242 -0.5912  0.7121
 8914SOL    HW227321   3.902   0.740   1.581 -0.2971  0.1141  0.7266
 8915SOL     OW27322   8.118   9.878   5.162  0.4475  0.7143 -0.2381
 8915SOL    HW127323   8.031   9.915   5.151 -0.8813 -1.8918  0.8126
 8915SOL    HW227324   8.153   9.872   5.073 -0.6089  1.4116 -0.7170
 8916SOL     OW27325   7.706   2.983   1.289 -0.6702 -0.5237  0.0632
 8916SOL    HW127326   7.771   2.925   1.250  1.6839  2.0138 -0.0941
 8916SOL    HW227327   7.688   3.048   1.221  0.2042  1.4593  1.6152
 8917SOL     OW27328   8.771   7.147   2.802  0.1317 -0.5989  0.7295
 8917SOL    HW127329   8.830   7.175   2.732 -0.5399  0.2891  0.5080
 8917SOL    HW227330   8.685   7.181   2.776  0.1659  1.2604  2.8491
 8918SOL     OW27331   3.163   6.754   4.926 -0.1919 -0.5146  0.0626
 8918SOL    HW127332   3.256   6.776   4.932 -0.6273  1.2556  0.7188
 8918SOL    HW227333   3.155   6.672   4.976  1.1351 -1.1742 -0.7401
 8919SOL     OW27334   0.107   0.299   1.263 -0.0714 -0.0103 -0.4906
 8919SOL    HW127335   0.105   0.286   1.168 -1.1774 -2.3426 -0.2101
 8919SOL    HW227336   0.036   0.360   1.281 -0.3358 -0.1408 -1.0824
 8920SOL     OW27337   7.385   1.919   7.065 -0.1165 -0.2443  0.1709
 8920SOL    HW127338   7.429   1.901   7.148  0.2205  0.7049  0.2144
 8920SOL    HW227339   7.456   1.942   7.005 -0.4509  0.1984 -0.0648
 8921SOL     OW27340   0.593   7.415   0.818 -0.1238 -0.0119  0.1836
 8921SOL    HW127341   0.542   7.476   0.764  1.1125  0.1123 -0.8777
 8921SOL    HW227342   0.628   7.351   0.756  2.2761  0.7879  0.6125
 8922SOL     OW27343   8.470   0.427   5.200 -0.0206  0.4473  0.1294
 8922SOL    HW127344   8.472   0.518   5.230  1.2073  0.5019 -0.0762
 8922SOL    HW227345   8.378   0.411   5.179 -0.0081  2.2384 -1.5724
 8923SOL     OW27346   6.020   9.831   5.010  0.1231 -0.4773 -0.4881
 8923SOL    HW127347   5.995   9.870   5.093  2.1963  0.5309 -0.2688
 8923SOL    HW227348   6.087   9.766   5.032  3.0102  1.9330 -1.4790
 8924SOL     OW27349   9.358   9.833   1.230  0.5604  0.1364 -0.2687
 8924SOL    HW127350   9.341   9.747   1.191 -2.1207  0.2829  0.4101
 8924SOL    HW227351   9.357   9.893   1.155 -0.3445 -0.0914 -0.4471
 8925SOL     OW27352   1.217   7.190   0.005 -0.3665  0.1229  0.3260
 8925SOL    HW127353   1.302   7.174  -0.035 -1.0128 -2.2216 -0.2545
 8925SOL    HW227354   1.237   7.213   0.096  0.8723 -1.6261  0.5468
 8926SOL     OW27355   3.008   2.216   5.064 -0.0976  0.6424  0.1603
 8926SOL    HW127356   3.096   2.197   5.094 -0.6371 -2.3956  0.0557
 8926SOL    HW227357   2.966   2.258   5.139  0.9303  0.6189  0.7677
 8927SOL     OW27358   5.497   1.389   6.344 -0.0645 -0.1205 -0.1043
 8927SOL    HW127359   5.496   1.457   6.410 -1.2736 -1.8078  1.7169
 8927SOL    HW227360   5.409   1.353   6.344  0.2066 -0.9183 -1.8754
 8928SOL     OW27361   2.557   6.263   9.543  0.3723 -0.6530 -0.3263
 8928SOL    HW127362   2.589   6.352   9.524  0.7811 -0.8132 -0.4095
 8928SOL    HW227363   2.479   6.276   9.596 -1.6193 -0.1113 -3.1573
 8929SOL     OW27364   3.035   2.169   3.085  0.0700 -0.4341  0.0649
 8929SOL    HW127365   3.117   2.127   3.111  0.8035  1.6318  1.4021
 8929SOL    HW227366   2.972   2.143   3.152  0.4367  0.2632  0.7049
 8930SOL     OW27367   8.129   0.475   9.789 -0.5389  0.4446 -0.1910
 8930SOL    HW127368   8.191   0.413   9.827  0.1634  1.3706  0.1860
 8930SOL    HW227369   8.086   0.425   9.719 -1.5093 -1.1427  1.4373
 8931SOL     OW27370   3.487   5.818   8.152  0.7711 -0.0919  0.1367
 8931SOL    HW127371   3.443   5.734   8.162  0.4661 -0.3676 -2.7642
 8931SOL    HW227372   3.568   5.809   8.202  0.4344 -1.8559  0.4138
 8932SOL     OW27373   3.424   3.758   7.679  0.0007 -0.4683  0.2081
 8932SOL    HW127374   3.330   3.774   7.678 -0.0510 -0.6691  0.8162
 8932SOL    HW227375   3.460   3.815   7.612 -0.6351 -0.8994 -0.5076
 8933SOL     OW27376   1.954   1.217   6.880 -0.3371  0.0470  0.4561
 8933SOL    HW127377   1.972   1.240   6.972  0.7798  0.7293  0.0913
 8933SOL    HW227378   2.037   1.234   6.835 -0.7644 -0.6528 -0.6182
 8934SOL     OW27379   2.827   6.106   6.078 -0.0662 -0.1505  0.3315
 8934SOL    HW127380   2.767   6.043   6.117  2.8166 -2.5030  1.3156
 8934SOL    HW227381   2.909   6.094   6.126  1.1305  3.2197 -0.5981
 8935SOL     OW27382   6.150   4.464   3.690 -0.3949  0.4665 -0.5615
 8935SOL    HW127383   6.181   4.409   3.618 -1.3741 -1.9074  0.7134
 8935SOL    HW227384   6.211   4.446   3.761 -0.6154  1.2303 -0.1725
 8936SOL     OW27385   9.491   0.786   9.229 -0.5076  0.5909 -0.2380
 8936SOL    HW127386   9.482   0.755   9.319 -1.7716  0.2081 -0.4788
 8936SOL    HW227387   9.568   0.740   9.196 -1.0813 -0.6677  0.0979
 8937SOL     OW27388   4.105   7.412   0.879  0.0641 -0.0781 -0.2663
 8937SOL    HW127389   4.079   7.423   0.787 -2.3312  0.0580  0.3680
 8937SOL    HW227390   4.057   7.335   0.909  0.6500 -0.0016  0.9322
 8938SOL     OW27391   2.632   2.557   1.801  0.3726  0.1982  0.6093
 8938SOL    HW127392   2.576   2.570   1.877  1.3868 -0.7251  1.5450
 8938SOL    HW227393   2.614   2.633   1.745 -0.4809  0.8293  1.6974
 8939SOL     OW27394   8.658   7.908   8.427 -0.4322  0.4985 -0.3110
 8939SOL    HW127395   8.644   7.816   8.451  0.7860  0.4290  0.2198
 8939SOL    HW227396   8.734   7.905   8.369 -1.2524  1.0406 -1.4489
 8940SOL     OW27397   7.767   8.996   3.365 -0.4584 -0.3231  0.1286
 8940SOL    HW127398   7.706   9.021   3.295 -1.1125  1.5846  1.2830
 8940SOL    HW227399   7.711   8.983   3.441  0.3310 -1.4255  0.5416
 8941SOL     OW27400   7.289   1.790   8.653 -0.4605  0.6816  0.4741
 8941SOL    HW127401   7.318   1.699   8.653 -0.1478  0.7757 -0.4192
 8941SOL    HW227402   7.289   1.815   8.746 -0.7686 -0.2877  0.7515
 8942SOL     OW27403   2.633   6.909   9.359 -0.5098  0.0828  0.5875
 8942SOL    HW127404   2.661   6.964   9.433  1.2726  0.1900 -0.1147
 8942SOL    HW227405   2.685   6.830   9.368 -2.4815 -1.2265  1.1205
 8943SOL     OW27406   0.569  -0.027   1.434 -0.3533 -0.2759 -0.3029
 8943SOL    HW127407   0.514   0.028   1.378  0.8408  1.9545  0.6195
 8943SOL    HW227408   0.617   0.034   1.489  1.1124 -2.2620  0.7565
 8944SOL     OW27409   2.817   1.128   9.976  0.1374 -0.2765  0.0436
 8944SOL    HW127410   2.899   1.080   9.988 -1.1204 -2.4416  0.5028
 8944SOL    HW227411   2.802   1.126   9.882 -0.0309 -1.0094  0.0853
 8945SOL     OW27412   5.818   4.904   9.934  0.3772 -0.0839 -0.4213
 8945SOL    HW127413   5.775   4.924  10.017  1.0677  0.8376 -0.2688
 8945SOL    HW227414   5.884   4.973   9.924  1.5021 -1.2056 -0.8682
 8946SOL     OW27415   0.378   4.150   5.493 -0.3101 -0.1932 -0.1778
 8946SOL    HW127416   0.459   4.131   5.446 -0.2824 -2.2710  0.6247
 8946SOL    HW227417   0.400   4.140   5.586 -1.4622 -0.7205  0.0574
 8947SOL     OW27418   6.506   1.293   0.475 -0.4740 -0.1631 -0.3999
 8947SOL    HW127419   6.576   1.350   0.443 -1.6707  0.6409 -1.7014
 8947SOL    HW227420   6.449   1.351   0.524 -0.0032 -0.9120  1.0881
 8948SOL     OW27421   8.420   4.445   2.065 -0.4618 -0.6816  0.0033
 8948SOL    HW127422   8.466   4.519   2.104 -0.6882 -1.0149  0.9294
 8948SOL    HW227423   8.489   4.385   2.036 -0.2920 -1.1512  1.3275
 8949SOL     OW27424   5.723   6.721   1.220 -0.3371  0.1682  0.5351
 8949SOL    HW127425   5.751   6.653   1.282  1.5685  1.8161  1.5771
 8949SOL    HW227426   5.780   6.796   1.239 -1.2730  1.5225 -1.6789
 8950SOL     OW27427   9.600   9.529   2.027 -0.1456  0.2451 -0.0772
 8950SOL    HW127428   9.557   9.610   2.054  0.4770  1.0505 -1.4428
 8950SOL    HW227429   9.599   9.531   1.932  2.1873 -0.1004 -0.1512
 8951SOL     OW27430   5.510   3.429   7.302  0.1082 -0.3664 -0.1710
 8951SOL    HW127431   5.449   3.492   7.266  0.4840 -0.0581 -0.2723
 8951SOL    HW227432   5.596   3.468   7.288  0.4809 -1.7022 -1.8759
 8952SOL     OW27433   3.291   6.445   3.102 -0.2172 -0.3331  0.5761
 8952SOL    HW127434   3.385   6.458   3.118  0.1266 -1.7135 -0.1661
 8952SOL    HW227435   3.270   6.364   3.149 -0.6159 -1.0272 -0.7706
 8953SOL     OW27436   4.166   0.439   6.683  0.2051  0.0298  0.2229
 8953SOL    HW127437   4.104   0.506   6.713 -0.5191  0.6341 -2.4172
 8953SOL    HW227438   4.141   0.422   6.592  0.2971 -3.9100  0.7497
 8954SOL     OW27439   9.933   5.813   5.347  0.4201 -0.3709 -0.0742
 8954SOL    HW127440   9.858   5.762   5.377  0.2046 -0.5872 -0.9566
 8954SOL    HW227441   9.895   5.888   5.302  0.6353 -1.9820 -3.1610
 8955SOL     OW27442   5.876   1.613   3.560 -0.1028 -0.2826  0.9301
 8955SOL    HW127443   5.941   1.653   3.502 -1.3580 -1.6804 -1.6117
 8955SOL    HW227444   5.817   1.685   3.583  0.8322  0.4513  1.0873
 8956SOL     OW27445   3.920   3.222   1.141 -0.1142 -0.1009  0.3993
 8956SOL    HW127446   3.887   3.223   1.052 -0.3729 -0.0784  0.4936
 8956SOL    HW227447   3.843   3.205   1.195  0.0200 -0.0007  0.6262
 8957SOL     OW27448   1.082   3.942   3.668  0.0441  0.7575  0.4474
 8957SOL    HW127449   1.177   3.925   3.672 -0.0988 -0.3064 -0.2397
 8957SOL    HW227450   1.064   3.953   3.575 -0.8562 -1.3148  0.3356
 8958SOL     OW27451   2.743   2.593   9.851 -0.4973  0.2010 -0.2923
 8958SOL    HW127452   2.787   2.510   9.833  0.2504  0.4385  0.3757
 8958SOL    HW227453   2.652   2.578   9.827 -0.0859 -0.3507 -1.5598
 8959SOL     OW27454   7.450   1.656   8.398  0.2614 -0.0985  0.6050
 8959SOL    HW127455   7.383   1.601   8.357  0.5213 -0.3048  0.4600
 8959SOL    HW227456   7.438   1.641   8.492  0.4461 -0.5405  0.5593
 8960SOL     OW27457   7.256   9.199   5.112  0.3897 -0.4497 -0.0193
 8960SOL    HW127458   7.301   9.164   5.035  0.3623 -1.0677  0.2387
 8960SOL    HW227459   7.296   9.152   5.186 -0.9540 -1.3325  0.1816
 8961SOL     OW27460   3.731   1.209   6.480  0.7345 -0.1478  0.2589
 8961SOL    HW127461   3.706   1.273   6.413 -0.1774 -1.4739 -0.7158
 8961SOL    HW227462   3.815   1.241   6.514  2.0809 -0.2756 -2.6805
 8962SOL     OW27463   1.350   0.139   5.128  0.0339  0.9615  0.0556
 8962SOL    HW127464   1.443   0.160   5.137 -0.2296  2.0252  0.4448
 8962SOL    HW227465   1.313   0.158   5.214 -0.3707 -0.4917  0.2372
 8963SOL     OW27466   3.848   8.654   8.855 -0.4177 -0.4412 -0.4501
 8963SOL    HW127467   3.875   8.725   8.914 -0.0821 -0.6885 -0.3021
 8963SOL    HW227468   3.758   8.675   8.832 -0.4971 -0.2528  0.0189
 8964SOL     OW27469   3.062   0.855   9.637 -0.0853 -0.0596 -0.2178
 8964SOL    HW127470   3.035   0.838   9.547  0.0149  0.1676 -0.2921
 8964SOL    HW227471   2.984   0.892   9.678 -0.2508 -0.5385 -0.1024
 8965SOL     OW27472   4.034   8.108   0.482  0.2569  0.1773  0.0493
 8965SOL    HW127473   4.072   8.044   0.422  0.1442 -0.1405  0.3105
 8965SOL    HW227474   4.065   8.081   0.569 -1.2368 -0.6109  0.3764
 8966SOL     OW27475   1.492   3.365   8.861  0.0746  0.1668 -0.4278
 8966SOL    HW127476   1.408   3.336   8.824  0.5972 -0.6230 -1.0369
 8966SOL    HW227477   1.558   3.313   8.814  0.8258 -0.2038  0.9859
 8967SOL     OW27478   0.334   8.012   6.375 -0.6492  0.2526 -0.1384
 8967SOL    HW127479   0.406   8.053   6.423  0.2362  0.3886 -1.5429
 8967SOL    HW227480   0.262   8.010   6.438  0.3950  0.6389  1.1156
 8968SOL     OW27481   5.839   2.969   0.050  0.2925  0.7944  0.2014
 8968SOL    HW127482   5.825   3.055   0.013  0.7688  0.5274 -0.6170
 8968SOL    HW227483   5.761   2.919   0.027  0.7657  0.5064 -0.8313
 8969SOL     OW27484   7.065   8.022   6.087 -0.0110  0.3447  0.4431
 8969SOL    HW127485   7.085   8.105   6.045  0.2124  0.2861  0.4295
 8969SOL    HW227486   7.062   7.958   6.016  0.0069  0.3083  0.4749
 8970SOL     OW27487   0.325   4.292   0.382 -0.6930 -0.2418 -0.1775
 8970SOL    HW127488   0.322   4.265   0.291 -1.3724  0.0005 -0.2356
 8970SOL    HW227489   0.356   4.383   0.380  0.7802 -0.7108 -0.0425
 8971SOL     OW27490   7.776   8.318   4.567 -0.0945 -0.2581  0.0669
 8971SOL    HW127491   7.862   8.316   4.526 -0.1045  0.1711  0.0211
 8971SOL    HW227492   7.754   8.411   4.571 -0.4604 -0.3541  0.2759
 8972SOL     OW27493   3.280   0.371   1.650  0.0740 -0.1718  0.1467
 8972SOL    HW127494   3.353   0.326   1.609 -1.4423 -1.3406 -1.4436
 8972SOL    HW227495   3.240   0.421   1.579 -2.1173 -1.5706  0.2929
 8973SOL     OW27496   6.028   9.878   0.486 -0.4282 -0.2982  0.3021
 8973SOL    HW127497   6.078   9.887   0.405 -1.1207 -1.5102 -0.2923
 8973SOL    HW227498   6.078   9.927   0.551  1.1055 -0.8138 -0.4367
 8974SOL     OW27499   2.299   7.873   5.312 -0.6907 -0.2729 -0.3219
 8974SOL    HW127500   2.220   7.906   5.269 -0.1891 -0.5097 -1.4731
 8974SOL    HW227501   2.272   7.791   5.354 -0.7330 -1.1704 -2.0220
 8975SOL     OW27502   5.991   1.697   8.617  0.0090  0.5032  0.9203
 8975SOL    HW127503   5.935   1.774   8.609 -1.2132 -0.3657  0.8607
 8975SOL    HW227504   6.006   1.688   8.711 -2.5453 -1.0088  1.2619
 8976SOL     OW27505   6.724   4.005  -0.005 -0.0221  0.2583 -0.4801
 8976SOL    HW127506   6.778   4.066   0.044  0.4494  0.2234 -0.9441
 8976SOL    HW227507   6.637   4.012   0.035  0.0211  1.2307 -0.5260
 8977SOL     OW27508   0.041   9.220   7.901 -0.7081 -0.2582  0.5762
 8977SOL    HW127509   0.017   9.296   7.848  0.1087  0.2259  0.8808
 8977SOL    HW227510   0.104   9.253   7.964 -2.5833 -0.5421  2.7227
 8978SOL     OW27511   3.703   9.495   3.437 -0.2111 -0.3485  0.7867
 8978SOL    HW127512   3.639   9.484   3.507 -1.3298  0.6134 -0.0613
 8978SOL    HW227513   3.668   9.565   3.382  1.3841 -0.0590  0.0826
 8979SOL     OW27514   5.219   7.413   5.400 -0.0078  0.1603 -0.5833
 8979SOL    HW127515   5.254   7.491   5.443 -0.3392 -0.3842  0.7262
 8979SOL    HW227516   5.150   7.447   5.344 -1.0026  0.7305  0.9025
 8980SOL     OW27517   7.462   7.933   6.461  0.9678 -0.3609 -0.3265
 8980SOL    HW127518   7.423   7.885   6.534  1.2309 -0.7688 -0.4536
 8980SOL    HW227519   7.389   7.981   6.421  0.9308  0.4005  0.6142
 8981SOL     OW27520   5.353   5.146   8.570 -0.0454 -0.1450 -0.0065
 8981SOL    HW127521   5.428   5.087   8.571 -1.1363 -1.5812 -0.2987
 8981SOL    HW227522   5.283   5.096   8.529 -1.0850  1.2829 -0.0647
 8982SOL     OW27523   9.642   8.367   9.695  0.2494 -0.4930 -0.3060
 8982SOL    HW127524   9.556   8.388   9.659 -0.4518  0.9515  1.9849
 8982SOL    HW227525   9.633   8.278   9.729 -0.4231 -0.2600  0.1338
 8983SOL     OW27526   1.613   1.370   1.079  0.2362  0.0526  0.0256
 8983SOL    HW127527   1.532   1.356   1.128  0.6036  0.3161  0.7213
 8983SOL    HW227528   1.635   1.283   1.044 -0.5048  0.0388 -0.4326
 8984SOL     OW27529   2.825   4.745   3.807 -0.0259  0.9403 -0.3513
 8984SOL    HW127530   2.862   4.733   3.719  1.1272 -0.1027  0.2377
 8984SOL    HW227531   2.902   4.753   3.863 -0.7366  0.6767  0.6735
 8985SOL     OW27532   3.869   0.761   0.827  0.0848  0.4511  0.0628
 8985SOL    HW127533   3.780   0.797   0.828  0.5299  1.5608  0.4992
 8985SOL    HW227534   3.909   0.797   0.748 -0.5029 -1.7535 -1.3334
 8986SOL     OW27535   8.498   5.747   3.420  0.1626 -0.2079  0.5165
 8986SOL    HW127536   8.584   5.787   3.407  0.5285 -1.3908 -0.9918
 8986SOL    HW227537   8.474   5.770   3.510  0.5050  3.0000 -0.0950
 8987SOL     OW27538   5.378   0.677   5.452 -0.1569  0.0742 -0.8628
 8987SOL    HW127539   5.386   0.583   5.433 -0.4842 -0.0002 -0.6509
 8987SOL    HW227540   5.324   0.680   5.532 -1.7294  0.5012 -1.8924
 8988SOL     OW27541   4.208   8.737   7.597 -0.2474  0.1578  0.1487
 8988SOL    HW127542   4.241   8.826   7.584  0.6906 -0.3341 -1.1216
 8988SOL    HW227543   4.158   8.719   7.517  3.1251 -1.9079 -1.7546
 8989SOL     OW27544   3.833   9.581   0.465  0.1816 -0.4523  0.4337
 8989SOL    HW127545   3.835   9.487   0.448  0.8385 -0.4548  0.4897
 8989SOL    HW227546   3.823   9.589   0.560  1.5316 -0.4881  0.5957
 8990SOL     OW27547   3.293   2.326   0.123 -0.4813  0.2328  0.5770
 8990SOL    HW127548   3.257   2.263   0.061  0.7617 -0.1164  0.1819
 8990SOL    HW227549   3.373   2.358   0.082 -0.9146  1.8520  0.9194
 8991SOL     OW27550   6.518   8.478   9.549 -0.4054 -0.0164 -0.2857
 8991SOL    HW127551   6.525   8.385   9.573  0.8374 -0.0982 -0.8963
 8991SOL    HW227552   6.465   8.516   9.618  1.0227 -0.7257  1.2780
 8992SOL     OW27553   3.710   5.629   2.245  0.1912  0.8787  0.2876
 8992SOL    HW127554   3.621   5.631   2.280  0.4658  3.0248  0.9955
 8992SOL    HW227555   3.703   5.574   2.167 -2.5887  3.7183 -1.7151
 8993SOL     OW27556   9.283   6.834   2.882  0.2318 -0.0703 -0.9954
 8993SOL    HW127557   9.373   6.864   2.895 -0.2968  0.7445  1.2206
 8993SOL    HW227558   9.271   6.763   2.945 -0.9514  0.4522 -0.5990
 8994SOL     OW27559   0.108   8.709   4.816  0.4286  0.2229 -1.0250
 8994SOL    HW127560   0.080   8.799   4.834 -0.0527  0.0997 -1.1349
 8994SOL    HW227561   0.160   8.684   4.892 -1.0602 -0.0714 -0.0669
 8995SOL     OW27562   5.049   4.096   4.881  0.5134 -0.1926  0.1766
 8995SOL    HW127563   5.062   4.074   4.789 -0.7295 -0.3042  0.0053
 8995SOL    HW227564   5.037   4.191   4.881  1.9258  0.0080  0.4204
 8996SOL     OW27565   3.629   4.293   2.327 -0.2596 -0.3900  0.2741
 8996SOL    HW127566   3.704   4.287   2.385 -0.3398  0.0225  0.4189
 8996SOL    HW227567   3.574   4.218   2.351 -0.2440 -0.2793  0.6553
 8997SOL     OW27568   2.119   2.975   5.067  0.2819 -0.0174 -0.2412
 8997SOL    HW127569   2.177   2.927   5.126  1.6000  1.4804 -0.2605
 8997SOL    HW227570   2.088   3.049   5.120 -1.6648 -0.7738 -0.2257
 8998SOL     OW27571   0.915   3.867   1.329 -0.3964 -0.2663 -0.8907
 8998SOL    HW127572   0.827   3.844   1.358 -0.2370  0.7886  0.4906
 8998SOL    HW227573   0.960   3.894   1.408  0.7461  0.5744 -1.8044
 8999SOL     OW27574   0.522   7.114   5.882 -0.4048  1.1946  0.0173
 8999SOL    HW127575   0.535   7.158   5.966  2.8112 -2.4750  1.7776
 8999SOL    HW227576   0.443   7.061   5.895  0.5849 -0.0699  1.2083
 9000SOL     OW27577   9.450   3.588   4.022  0.1451 -0.1897 -0.1724
 9000SOL    HW127578   9.476   3.621   4.108 -0.1336 -1.3598  0.3919
 9000SOL    HW227579   9.391   3.515   4.042  0.0469 -0.4553 -1.3629
 9001SOL     OW27580   8.824   2.989   6.362  0.2142  0.1620  0.0823
 9001SOL    HW127581   8.808   2.930   6.288 -1.2358  0.1897  0.3418
 9001SOL    HW227582   8.916   3.013   6.354  0.6680 -1.6257 -0.4023
 9002SOL     OW27583   4.764   8.466   9.056  0.5243  0.0749  0.0649
 9002SOL    HW127584   4.838   8.501   9.106  0.9767 -0.1203 -0.4540
 9002SOL    HW227585   4.703   8.434   9.123  1.4084 -0.7793  0.4987
 9003SOL     OW27586   9.091   0.408   2.114  0.3524 -0.1482  0.0655
 9003SOL    HW127587   8.998   0.420   2.132  0.5990  2.1948  0.0830
 9003SOL    HW227588   9.132   0.407   2.201  0.4361 -0.3380  0.0253
 9004SOL     OW27589   1.357   9.844   1.243  0.2521 -0.0580  0.2589
 9004SOL    HW127590   1.310   9.875   1.320 -1.6015 -2.8238  0.4093
 9004SOL    HW227591   1.289   9.802   1.189  1.9792 -0.8764 -1.4023
 9005SOL     OW27592   9.319   4.532   2.982  0.1181  0.8349  0.9353
 9005SOL    HW127593   9.246   4.572   3.029 -0.0053  0.2923  1.2038
 9005SOL    HW227594   9.386   4.520   3.049 -0.1492 -0.1690  1.0362
 9006SOL     OW27595   8.888   5.009   8.613 -0.3062  0.3964  0.1353
 9006SOL    HW127596   8.824   5.079   8.600 -1.3201 -0.6707 -0.8369
 9006SOL    HW227597   8.961   5.034   8.556 -0.2330  1.1531  0.5464
 9007SOL     OW27598   8.772   1.262   8.217  0.0945  0.5353  0.7887
 9007SOL    HW127599   8.824   1.184   8.194 -0.3135  0.1371  1.1979
 9007SOL    HW227600   8.694   1.255   8.162 -0.5129  0.0043  1.6987
 9008SOL     OW27601   1.054   4.122   6.604  0.1841  0.1549 -0.0954
 9008SOL    HW127602   1.035   4.210   6.636 -0.7873  0.4500 -1.4275
 9008SOL    HW227603   0.972   4.074   6.616  0.3211 -0.2035 -0.5730
 9009SOL     OW27604   4.481   3.397   7.200  0.0031  0.1860 -0.3583
 9009SOL    HW127605   4.513   3.439   7.281  0.8631  0.7088 -0.9488
 9009SOL    HW227606   4.418   3.459   7.165 -1.1637 -0.5203  0.4376
 9010SOL     OW27607   4.562   0.497   0.265 -0.3265 -1.0215 -0.0880
 9010SOL    HW127608   4.557   0.545   0.183  2.0659 -0.2795  0.1158
 9010SOL    HW227609   4.602   0.413   0.241 -0.9963 -1.4012  0.1075
 9011SOL     OW27610   4.629   1.193   3.369 -0.4101  1.0622  0.0463
 9011SOL    HW127611   4.709   1.214   3.320 -0.9475  2.9888 -0.0751
 9011SOL    HW227612   4.656   1.124   3.430  0.6582 -0.2686 -1.8393
 9012SOL     OW27613   9.493   1.400   3.359  0.3185 -0.0536 -0.2420
 9012SOL    HW127614   9.552   1.469   3.329 -0.7452  0.6768 -0.7234
 9012SOL    HW227615   9.455   1.434   3.439  0.2200 -0.3316 -0.1693
 9013SOL     OW27616   3.557   0.953   5.056  0.2223 -0.5769  0.1518
 9013SOL    HW127617   3.543   0.994   5.142 -0.2603 -1.9282  0.7373
 9013SOL    HW227618   3.564   1.027   4.996  0.6116  0.4033  1.3549
 9014SOL     OW27619   7.798   2.690   6.207  0.4833  0.3184 -0.3957
 9014SOL    HW127620   7.866   2.630   6.179 -1.1091 -1.2746 -1.0180
 9014SOL    HW227621   7.838   2.741   6.277  3.1320  1.2765 -2.4119
 9015SOL     OW27622   1.473   9.177   7.718  0.0848 -0.8654 -0.0030
 9015SOL    HW127623   1.498   9.126   7.641  0.5793 -1.5998  0.6329
 9015SOL    HW227624   1.470   9.267   7.686 -0.5191 -1.2406 -1.0738
 9016SOL     OW27625   7.235   5.353   6.439 -0.5078 -0.2909 -0.3554
 9016SOL    HW127626   7.227   5.260   6.459 -2.9461 -0.2295 -0.7393
 9016SOL    HW227627   7.323   5.377   6.468  0.4190 -2.8485 -0.8845
 9017SOL     OW27628   0.789   2.331   3.217  0.3042  0.1236  0.8018
 9017SOL    HW127629   0.872   2.284   3.210  1.3171  2.0975 -2.8797
 9017SOL    HW227630   0.807   2.418   3.183 -2.6452  1.6675  2.7128
 9018SOL     OW27631   5.607   5.523   1.803  0.5049 -0.0577 -0.9804
 9018SOL    HW127632   5.575   5.434   1.816 -1.4479  0.5908 -1.0290
 9018SOL    HW227633   5.537   5.566   1.753  0.3808  2.0896  0.9119
 9019SOL     OW27634   7.128   2.520   4.565  0.5340 -0.5946 -0.2601
 9019SOL    HW127635   7.047   2.477   4.592  0.8767 -0.9653  0.1746
 9019SOL    HW227636   7.129   2.510   4.469 -1.5664  2.2444 -0.7335
 9020SOL     OW27637   5.273   5.651   1.391  0.3665 -0.1290  0.3376
 9020SOL    HW127638   5.270   5.723   1.327 -0.7805  0.4564  1.0139
 9020SOL    HW227639   5.182   5.628   1.406  0.6974 -1.3585  0.5708
 9021SOL     OW27640   7.899   2.201   9.905  0.4407 -0.3001 -0.0077
 9021SOL    HW127641   7.883   2.107   9.893  2.5303 -0.7403  0.3626
 9021SOL    HW227642   7.904   2.213  10.000  0.4203  0.1558 -0.0597
 9022SOL     OW27643   9.983   6.006   4.167  0.4342  0.2475 -0.3239
 9022SOL    HW127644   9.895   5.979   4.141  0.8908 -1.1198 -0.5053
 9022SOL    HW227645  10.017   6.053   4.091 -0.5773  1.9458  0.2025
 9023SOL     OW27646   1.070   7.845   3.426  0.5005 -0.2706 -0.5253
 9023SOL    HW127647   1.089   7.928   3.470  2.5727 -0.0899 -1.6592
 9023SOL    HW227648   0.991   7.863   3.375  0.1669  0.5843  0.2634
 9024SOL     OW27649   3.366   7.515   7.152  0.0969  0.7460 -0.5805
 9024SOL    HW127650   3.318   7.514   7.069 -0.4474  0.9725 -0.2775
 9024SOL    HW227651   3.300   7.493   7.218  1.1656 -2.8680 -0.5071
 9025SOL     OW27652   9.076   4.080   4.017  0.0372  0.4606  0.2835
 9025SOL    HW127653   9.073   3.993   4.057 -3.2578  0.8325  1.1104
 9025SOL    HW227654   9.048   4.066   3.927 -1.6769  0.7426  0.7389
 9026SOL     OW27655   6.955   2.205   7.571  0.0604  0.3386 -0.1380
 9026SOL    HW127656   7.027   2.255   7.531  0.5024 -0.7440 -0.7564
 9026SOL    HW227657   6.970   2.212   7.665  0.8866  0.2622 -0.2572
 9027SOL     OW27658   6.386   0.933   8.862  0.2805  0.5402 -0.3354
 9027SOL    HW127659   6.293   0.911   8.868  0.6583 -1.0350  0.3815
 9027SOL    HW227660   6.419   0.919   8.951  1.3535  0.3178 -0.7561
 9028SOL     OW27661   3.399   1.185   8.494 -0.3032  0.0190  0.2848
 9028SOL    HW127662   3.361   1.107   8.533  0.7032 -0.1301  1.0406
 9028SOL    HW227663   3.334   1.216   8.431 -0.3811 -1.8539 -0.5993
 9029SOL     OW27664   5.425   3.196   2.746  0.3409  0.2910 -0.3324
 9029SOL    HW127665   5.330   3.181   2.749  0.2992  0.6813  1.4374
 9029SOL    HW227666   5.445   3.203   2.653 -1.1856 -0.8746 -0.7902
 9030SOL     OW27667   2.493   2.021   4.850  0.2003 -0.0789  0.0945
 9030SOL    HW127668   2.552   2.072   4.795  1.0153 -1.0789  0.0281
 9030SOL    HW227669   2.453   2.085   4.909  0.6280  0.7379 -0.4956
 9031SOL     OW27670   8.601   9.227   8.731 -0.0729  0.9299  0.4611
 9031SOL    HW127671   8.517   9.221   8.777  0.3991  3.0368  1.7445
 9031SOL    HW227672   8.660   9.172   8.783 -0.7781 -1.2764 -0.9433
 9032SOL     OW27673   0.461   2.232   0.045  0.1143 -0.1167 -0.2306
 9032SOL    HW127674   0.452   2.153  -0.008 -0.2931 -0.1195 -0.1669
 9032SOL    HW227675   0.554   2.253   0.044  0.2468 -0.6938 -0.1147
 9033SOL     OW27676   4.555   1.487   2.364  0.7791  0.4162  0.1917
 9033SOL    HW127677   4.532   1.539   2.442  1.0396  2.5414 -1.0749
 9033SOL    HW227678   4.470   1.465   2.325  0.5865  3.4339 -1.4113
 9034SOL     OW27679   0.732   5.233   8.506 -0.1390 -1.0403  0.1117
 9034SOL    HW127680   0.768   5.158   8.553  0.6817  0.0697  1.3663
 9034SOL    HW227681   0.807   5.270   8.459 -0.2214 -0.2934  0.5451
 9035SOL     OW27682   0.395   5.844   6.365  0.0241 -0.2682  0.2932
 9035SOL    HW127683   0.313   5.798   6.351 -0.6894  0.7031  1.1647
 9035SOL    HW227684   0.462   5.784   6.332 -0.8279 -2.1236  1.7894
 9036SOL     OW27685   5.322   0.397   9.651 -0.0276 -0.0420  0.4245
 9036SOL    HW127686   5.339   0.472   9.593 -0.3301 -1.2453 -1.2901
 9036SOL    HW227687   5.246   0.423   9.703 -0.4903  0.6194 -0.5582
 9037SOL     OW27688   4.455   5.474   5.418  0.1165 -0.2268  0.2549
 9037SOL    HW127689   4.515   5.548   5.412 -0.4820  0.2610  0.1503
 9037SOL    HW227690   4.368   5.514   5.412 -0.3577 -0.5568  3.3485
 9038SOL     OW27691   2.687   1.085   3.803 -0.1117  0.0523 -0.1260
 9038SOL    HW127692   2.644   1.001   3.820 -0.0237  0.5313  3.0473
 9038SOL    HW227693   2.713   1.080   3.711 -0.6602 -3.1215 -0.2318
 9039SOL     OW27694   0.731   8.556   1.880  0.6753 -0.5357  0.0271
 9039SOL    HW127695   0.726   8.613   1.958  1.9144  1.0453 -0.9889
 9039SOL    HW227696   0.791   8.601   1.821 -0.2515 -1.6805 -1.8922
 9040SOL     OW27697   9.768   6.257   7.683 -0.3489  0.0347 -0.2502
 9040SOL    HW127698   9.840   6.199   7.657  0.6134  0.7744  0.6558
 9040SOL    HW227699   9.791   6.342   7.645  0.4237  0.8144  1.8357
 9041SOL     OW27700   0.185   9.256   1.174  0.3651  0.7326  0.0721
 9041SOL    HW127701   0.199   9.194   1.103 -1.2328 -1.3138  1.3999
 9041SOL    HW227702   0.228   9.336   1.145  1.4529 -0.5927 -2.2970
 9042SOL     OW27703   8.149   7.164   4.636 -0.3807  0.0455  0.0107
 9042SOL    HW127704   8.097   7.092   4.601  0.9247 -1.1619  0.4696
 9042SOL    HW227705   8.148   7.150   4.731  1.9228 -0.8661 -0.0372
 9043SOL     OW27706   3.819   7.412   0.001 -0.4439 -0.6436 -0.1508
 9043SOL    HW127707   3.828   7.349  -0.070 -0.3394  0.3829 -1.0668
 9043SOL    HW227708   3.841   7.362   0.080  0.6155 -1.4990 -0.9555
 9044SOL     OW27709   7.370   0.324   2.344 -1.0783  0.2674  0.0058
 9044SOL    HW127710   7.428   0.346   2.272 -2.0501  0.1830 -0.8219
 9044SOL    HW227711   7.426   0.325   2.422 -0.5053  2.8433 -0.3793
 9045SOL     OW27712   4.138   8.591   9.493 -0.8020 -0.2294  0.0030
 9045SOL    HW127713   4.071   8.641   9.448 -1.4195 -0.2062  0.9193
 9045SOL    HW227714   4.221   8.628   9.463 -1.1474 -0.7574 -1.7245
 9046SOL     OW27715   3.597   8.720   8.872 -0.2732  0.1654  0.3979
 9046SOL    HW127716   3.600   8.717   8.967  0.8172  0.1455  0.3727
 9046SOL    HW227717   3.538   8.649   8.847 -0.3408 -0.0096  1.0447
 9047SOL     OW27718   6.231   7.462   4.961  0.1351 -0.2551 -0.2828
 9047SOL    HW127719   6.287   7.399   4.915  0.0217  0.6738 -1.7717
 9047SOL    HW227720   6.143   7.444   4.929 -0.1124 -0.2759  0.3948
 9048SOL     OW27721   5.048   8.963   3.326 -0.3247  0.2378 -0.1836
 9048SOL    HW127722   5.138   8.932   3.338  0.4588  1.7635 -1.7467
 9048SOL    HW227723   5.023   8.998   3.412  0.7060  0.1476  0.1695
 9049SOL     OW27724   2.174   9.930   1.210 -0.0234  0.4276  0.1442
 9049SOL    HW127725   2.180   9.963   1.120  1.0080  0.9022  0.3785
 9049SOL    HW227726   2.233   9.985   1.260  2.1015 -1.9813  0.4957
 9050SOL     OW27727   8.707   9.192   5.918  0.7876  0.3232 -0.9667
 9050SOL    HW127728   8.642   9.122   5.914  0.1591  0.8342 -0.1320
 9050SOL    HW227729   8.750   9.190   5.832 -0.1961 -0.1567 -1.4645
 9051SOL     OW27730   2.792   9.562   7.508  0.5560  0.4030  0.2688
 9051SOL    HW127731   2.709   9.557   7.460  0.6701 -1.0877  0.1668
 9051SOL    HW227732   2.782   9.636   7.567  0.9626  3.4336 -3.0731
 9052SOL     OW27733   1.069   6.439   3.312 -0.1630  0.2014 -0.2426
 9052SOL    HW127734   1.023   6.519   3.286 -1.1776 -0.2037  0.2360
 9052SOL    HW227735   1.144   6.470   3.363 -1.1010  0.8483  0.8015
 9053SOL     OW27736   4.572   3.285   4.231 -0.6730 -0.1495 -0.6103
 9053SOL    HW127737   4.633   3.311   4.162 -0.0005  0.4755  0.2030
 9053SOL    HW227738   4.628   3.254   4.302 -1.2661  1.0012  0.3843
 9054SOL     OW27739   4.954   6.617   6.690 -0.4615 -0.3729  0.0940
 9054SOL    HW127740   5.041   6.633   6.654  0.1852  1.3082  2.1428
 9054SOL    HW227741   4.896   6.676   6.642  0.2194  1.1651  1.0908
 9055SOL     OW27742   5.851   5.135   7.940  0.1827  0.0284 -0.0614
 9055SOL    HW127743   5.813   5.123   7.852  1.4496  0.4004 -0.6787
 9055SOL    HW227744   5.881   5.048   7.965 -0.3492 -0.1149  0.0897
 9056SOL     OW27745   2.178   5.315   7.877 -0.8723 -0.4411 -0.3801
 9056SOL    HW127746   2.238   5.379   7.916 -0.1620 -1.3858  0.1218
 9056SOL    HW227747   2.101   5.366   7.853  0.4938  1.0278 -1.9587
 9057SOL     OW27748   4.679   7.701   2.359  0.3327  0.2443  0.0874
 9057SOL    HW127749   4.599   7.707   2.411  0.2204 -0.5993  0.0257
 9057SOL    HW227750   4.664   7.760   2.285 -0.5217 -0.4351 -0.2936
 9058SOL     OW27751   2.445   0.854   6.306 -0.5923 -0.2772  0.3088
 9058SOL    HW127752   2.429   0.800   6.383 -1.6931 -1.0046 -0.3951
 9058SOL    HW227753   2.360   0.891   6.284  0.1996  2.1608  1.0246
 9059SOL     OW27754   2.615   5.066   0.727  0.5405 -0.1137  0.2149
 9059SOL    HW127755   2.611   4.984   0.678  1.6685  0.5945 -1.1335
 9059SOL    HW227756   2.523   5.092   0.738  0.1946 -1.2700  0.2199
 9060SOL     OW27757   6.000   5.629   9.522 -0.3535  0.4729  0.1258
 9060SOL    HW127758   5.957   5.602   9.441  2.5948 -1.8631 -0.8477
 9060SOL    HW227759   5.961   5.575   9.590  1.2042 -2.0372 -0.8301
 9061SOL     OW27760   9.842   9.847   0.633 -0.6217 -0.5352 -0.8096
 9061SOL    HW127761   9.749   9.863   0.648 -0.3155  0.1281  0.5269
 9061SOL    HW227762   9.853   9.861   0.539 -1.7309  0.1258 -0.8673
 9062SOL     OW27763   4.969   1.048   9.017  0.1121 -0.0566 -0.2117
 9062SOL    HW127764   5.000   0.986   8.951  1.0985 -0.6317  0.7492
 9062SOL    HW227765   4.949   0.994   9.093 -2.4542  0.4125 -0.4653
 9063SOL     OW27766   4.549   3.567   1.449 -0.0719 -0.0231  0.3986
 9063SOL    HW127767   4.570   3.484   1.492  1.7923 -0.0267 -0.4320
 9063SOL    HW227768   4.498   3.615   1.514 -3.6614 -2.8021 -0.0189
 9064SOL     OW27769   9.391   7.471   3.580  0.0661  0.0774  0.2354
 9064SOL    HW127770   9.414   7.406   3.513  1.6483  0.2189  0.5941
 9064SOL    HW227771   9.421   7.554   3.543  0.3682  0.2417  0.8483
 9065SOL     OW27772   6.569   2.182   8.094 -0.2638  0.6413 -0.8860
 9065SOL    HW127773   6.618   2.166   8.175  0.7825  0.7522 -1.4766
 9065SOL    HW227774   6.532   2.269   8.105 -1.9286 -0.1666  0.3379
 9066SOL     OW27775   7.550   5.530   2.099 -0.0654  0.1471  0.2616
 9066SOL    HW127776   7.493   5.454   2.106 -1.3219  0.9457 -0.7700
 9066SOL    HW227777   7.544   5.573   2.184 -0.0965 -0.3889  0.5340
 9067SOL     OW27778   0.895   5.568   1.972  0.0713  0.0198 -0.6570
 9067SOL    HW127779   0.845   5.609   2.043 -0.7708  1.6609 -2.1162
 9067SOL    HW227780   0.944   5.498   2.014 -0.1076  1.1768  1.5985
 9068SOL     OW27781   9.179   3.593   2.353  0.0300  0.3674 -0.2038
 9068SOL    HW127782   9.177   3.669   2.412 -0.9884 -1.5764  2.4581
 9068SOL    HW227783   9.272   3.572   2.344  0.2870  1.5447 -0.5004
 9069SOL     OW27784   4.205   7.672   7.049  0.3017 -0.3727  0.2199
 9069SOL    HW127785   4.255   7.649   6.971  1.0227  0.3772  0.4443
 9069SOL    HW227786   4.267   7.659   7.121  0.5364  1.5160  0.4232
 9070SOL     OW27787   1.828   0.107   0.308  0.3186 -0.1139  0.3506
 9070SOL    HW127788   1.809   0.168   0.237 -1.5853 -0.9397  0.0789
 9070SOL    HW227789   1.911   0.066   0.282  1.0767  1.5460  0.0204
 9071SOL     OW27790   3.960   0.060   7.198 -0.0172 -0.1405  0.3058
 9071SOL    HW127791   3.930  -0.009   7.138 -1.7734  1.6271 -0.9646
 9071SOL    HW227792   3.883   0.114   7.214  1.2882  1.5572  1.2600
 9072SOL     OW27793   7.693   0.873   8.198 -0.3357 -0.2731 -0.4048
 9072SOL    HW127794   7.606   0.913   8.193 -0.5166 -0.7157 -0.9493
 9072SOL    HW227795   7.738   0.921   8.268 -0.7901  0.3926 -0.5606
 9073SOL     OW27796   5.470   6.653   7.055  0.3297  0.1821  0.9466
 9073SOL    HW127797   5.556   6.685   7.080 -1.0074  3.2717  2.0081
 9073SOL    HW227798   5.476   6.639   6.960  1.8466  0.7683  0.9351
 9074SOL     OW27799   5.477   1.787   1.464 -0.3603 -0.6654  0.5756
 9074SOL    HW127800   5.566   1.791   1.429 -0.4742  1.6418  0.3904
 9074SOL    HW227801   5.447   1.698   1.444  0.5374 -0.3583 -2.8662
 9075SOL     OW27802   7.464   4.500   3.492  0.4368 -0.3032  0.1182
 9075SOL    HW127803   7.547   4.504   3.445  0.2858  1.0929 -0.0519
 9075SOL    HW227804   7.459   4.410   3.524  2.1783 -0.3002  0.4570
 9076SOL     OW27805   7.296   4.257   4.676  0.4312 -0.2962 -0.5415
 9076SOL    HW127806   7.322   4.205   4.600  0.8984 -0.7589 -0.0762
 9076SOL    HW227807   7.362   4.325   4.683 -1.1272  1.5078 -2.2015
 9077SOL     OW27808   8.475   9.972   4.788 -0.3699  0.8037 -0.2502
 9077SOL    HW127809   8.562   9.948   4.818  0.5153  0.7037 -2.6999
 9077SOL    HW227810   8.428   9.889   4.781 -0.3269  0.7542  0.0149
 9078SOL     OW27811   1.677   4.739   9.497  1.1034 -0.6407 -0.5396
 9078SOL    HW127812   1.668   4.831   9.472  0.6583 -0.1438  1.3374
 9078SOL    HW227813   1.647   4.691   9.420 -0.5555  0.8117 -0.8667
 9079SOL     OW27814   5.555   9.324   7.090 -0.0192  0.0447  0.0074
 9079SOL    HW127815   5.517   9.412   7.090 -2.0747 -0.7317  2.4230
 9079SOL    HW227816   5.492   9.270   7.041 -0.2279 -0.5947  0.9646
 9080SOL     OW27817   6.435   6.696   9.469 -0.3359 -0.0227 -0.0422
 9080SOL    HW127818   6.415   6.623   9.528 -1.2036 -0.3728 -0.7576
 9080SOL    HW227819   6.362   6.699   9.408 -0.3174  1.4702 -0.0173
 9081SOL     OW27820   2.655   1.920   9.953 -0.1480 -0.2956  0.0832
 9081SOL    HW127821   2.638   2.013   9.967 -1.6308 -0.4946 -0.1823
 9081SOL    HW227822   2.616   1.877  10.029  0.3384 -0.7104  0.1004
 9082SOL     OW27823   6.404   3.689   4.590 -0.4097 -0.2798  0.4698
 9082SOL    HW127824   6.463   3.746   4.541 -1.1381 -0.6954 -0.9344
 9082SOL    HW227825   6.365   3.747   4.656 -0.3937  0.6107 -0.2852
 9083SOL     OW27826   2.044   6.781   3.081 -0.0534  0.2785  0.4353
 9083SOL    HW127827   1.964   6.750   3.124 -0.5736  0.8336 -0.1175
 9083SOL    HW227828   2.103   6.705   3.082 -1.2062 -0.6647 -0.6654
 9084SOL     OW27829   8.314   8.641   4.143 -0.2626  0.3998 -0.3316
 9084SOL    HW127830   8.409   8.637   4.153 -0.4196 -0.4202  1.0905
 9084SOL    HW227831   8.281   8.646   4.233 -1.5918 -0.0325 -0.7731
 9085SOL     OW27832   7.316   0.363   3.310 -0.3824 -0.2034  0.3496
 9085SOL    HW127833   7.226   0.365   3.279 -0.7924 -1.2107  1.4060
 9085SOL    HW227834   7.366   0.326   3.237 -1.1376 -1.4226  0.4187
 9086SOL     OW27835   9.979   0.337   8.359 -0.0260  0.3387 -0.1123
 9086SOL    HW127836   9.914   0.269   8.377 -0.0183  1.0860  3.4648
 9086SOL    HW227837   9.927   0.412   8.330 -0.0564 -0.8842 -3.7774
 9087SOL     OW27838   0.693   9.997   3.390 -0.2025 -0.2872 -0.0019
 9087SOL    HW127839   0.780   9.969   3.361 -0.8230 -1.2606 -0.9787
 9087SOL    HW227840   0.663   9.928   3.448 -0.8691 -0.6141 -0.7286
 9088SOL     OW27841   6.301   3.733   7.855  0.4819  0.6795 -0.1938
 9088SOL    HW127842   6.278   3.810   7.907 -0.0878  0.0217  0.5556
 9088SOL    HW227843   6.255   3.746   7.772 -0.5519  0.6273  0.3482
 9089SOL     OW27844   2.707   3.538   8.392 -0.6196  0.3695  0.0015
 9089SOL    HW127845   2.687   3.463   8.448  0.5302 -0.3699 -0.5373
 9089SOL    HW227846   2.658   3.611   8.431 -2.0117 -0.7120  0.3581
 9090SOL     OW27847   9.183   0.542   3.916 -0.3456  0.0106 -0.4946
 9090SOL    HW127848   9.240   0.572   3.986 -1.1106 -0.1092  0.1959
 9090SOL    HW227849   9.185   0.446   3.922  1.2043 -0.0873 -1.9713
 9091SOL     OW27850   0.125   7.171   9.981  0.1584  0.4499 -0.2779
 9091SOL    HW127851   0.168   7.086   9.972 -2.0146 -0.7280 -0.2590
 9091SOL    HW227852   0.031   7.152   9.974 -0.3745  3.0167 -1.5350
 9092SOL     OW27853   4.370   7.323   7.286  0.5745 -0.5914 -0.1013
 9092SOL    HW127854   4.298   7.372   7.327  0.7414 -0.0908 -0.4021
 9092SOL    HW227855   4.410   7.385   7.226  1.5116 -0.7544  0.3506
 9093SOL     OW27856   8.438   4.480   4.801 -0.4870  0.2771 -0.3416
 9093SOL    HW127857   8.397   4.556   4.845  2.0354  0.1271  2.6226
 9093SOL    HW227858   8.522   4.513   4.770  0.1680 -1.0310 -0.0177
 9094SOL     OW27859   0.913   0.663   5.937 -0.0059 -0.6757  0.7720
 9094SOL    HW127860   0.983   0.616   5.982  0.2790 -0.8978  0.1100
 9094SOL    HW227861   0.957   0.707   5.864 -0.5740 -0.8931  0.2946
 9095SOL     OW27862   4.245   5.788   1.057 -0.5133 -0.5434  0.6658
 9095SOL    HW127863   4.253   5.736   1.138  0.2108 -2.5181 -0.5862
 9095SOL    HW227864   4.253   5.723   0.987 -4.2964  0.5914 -1.0636
 9096SOL     OW27865   1.429   1.545   2.028 -0.0254 -0.0776  0.6842
 9096SOL    HW127866   1.479   1.536   2.109  2.6414 -1.1419 -0.9594
 9096SOL    HW227867   1.395   1.457   2.011  1.0223 -0.3166 -0.2722
 9097SOL     OW27868   7.061   8.106   0.125 -0.4022  0.1622  0.3132
 9097SOL    HW127869   7.041   8.192   0.162 -0.2557  0.4177 -0.1929
 9097SOL    HW227870   7.141   8.078   0.171  1.3201  1.6388 -1.6087
 9098SOL     OW27871   8.657   4.904   6.654  0.4975 -0.1707  0.4521
 9098SOL    HW127872   8.641   4.824   6.704  2.4086 -1.1804 -0.4165
 9098SOL    HW227873   8.651   4.876   6.562 -2.3944  1.5146  0.0170
 9099SOL     OW27874   8.646   9.164   3.438  0.4825  0.5260 -0.9004
 9099SOL    HW127875   8.712   9.102   3.405 -0.0144 -1.3549  1.3157
 9099SOL    HW227876   8.586   9.177   3.365  2.1610  0.6599 -2.3183
 9100SOL     OW27877   0.044   2.488   0.827  0.0756  0.0804 -0.5443
 9100SOL    HW127878   0.028   2.448   0.741  0.3143 -0.0673 -0.5189
 9100SOL    HW227879   0.138   2.506   0.828 -0.1268  1.2741 -0.8340
 9101SOL     OW27880   6.178   4.254   4.109 -0.2515 -0.4817 -0.4235
 9101SOL    HW127881   6.095   4.272   4.153 -0.1896 -0.5191 -0.2935
 9101SOL    HW227882   6.197   4.334   4.059  1.0409  0.6137  1.7075
 9102SOL     OW27883   6.015   8.868   6.416 -0.1001 -0.6789  0.5393
 9102SOL    HW127884   5.994   8.826   6.333  0.2772  0.3627 -0.1091
 9102SOL    HW227885   5.931   8.876   6.460 -0.2221 -1.7842  0.5351
 9103SOL     OW27886   5.168   3.118   5.823 -0.1599  0.1445 -0.1427
 9103SOL    HW127887   5.193   3.032   5.790  0.0464  0.3320 -0.4853
 9103SOL    HW227888   5.076   3.110   5.846 -0.1872 -0.1164 -0.3456
 9104SOL     OW27889   8.212   0.370   9.215 -0.2954  0.2752  0.3298
 9104SOL    HW127890   8.250   0.451   9.247 -0.5698  0.0793  1.1959
 9104SOL    HW227891   8.286   0.317   9.186 -0.2157  1.4022 -1.6700
 9105SOL     OW27892   6.214   4.810   7.611  0.0432  0.0198 -0.1512
 9105SOL    HW127893   6.164   4.746   7.662  0.0189  0.1098 -0.0611
 9105SOL    HW227894   6.305   4.790   7.632  0.0417 -0.0815 -0.2397
 9106SOL     OW27895   6.068   1.005   1.840 -0.4637 -0.0501 -0.5146
 9106SOL    HW127896   6.061   0.948   1.917  1.3220  1.1265  0.5873
 9106SOL    HW227897   6.078   0.945   1.767  3.0501 -1.2825  0.7793
 9107SOL     OW27898   6.222   3.226   5.448 -0.3227 -0.1032  0.3923
 9107SOL    HW127899   6.141   3.236   5.399 -1.0527  1.0192  1.7691
 9107SOL    HW227900   6.205   3.154   5.509 -0.5470  0.5703  1.1444
 9108SOL     OW27901   1.070   8.114   3.518 -0.3574 -0.3325  0.0245
 9108SOL    HW127902   1.047   8.182   3.455  1.7135  0.6041  0.2218
 9108SOL    HW227903   1.094   8.161   3.598 -0.0022 -1.3471  0.5385
 9109SOL     OW27904   1.995   4.568   4.972 -0.8931 -0.1358 -0.1765
 9109SOL    HW127905   2.048   4.534   4.900 -0.5082 -1.9395  0.9004
 9109SOL    HW227906   2.059   4.588   5.041 -1.4631 -0.8305  0.5639
 9110SOL     OW27907   9.278   2.868   7.759  0.8738  0.4374  0.8064
 9110SOL    HW127908   9.335   2.851   7.834  3.4943  0.9662 -0.9189
 9110SOL    HW227909   9.273   2.784   7.714  3.0022  1.0220 -0.6989
 9111SOL     OW27910   6.127   7.306   2.947  0.2844  0.4760 -0.2660
 9111SOL    HW127911   6.102   7.331   2.858  0.9663  0.9172 -0.3393
 9111SOL    HW227912   6.220   7.327   2.953  0.4913 -0.4884  0.2240
 9112SOL     OW27913   9.751   2.914   6.483  0.3852  0.5702 -0.4013
 9112SOL    HW127914   9.821   2.850   6.499 -0.4428  0.0284  1.3218
 9112SOL    HW227915   9.696   2.875   6.416 -0.1006 -0.5549  0.6193
 9113SOL     OW27916   8.234   7.169   3.902  0.1396 -0.0745 -0.3926
 9113SOL    HW127917   8.257   7.261   3.897  3.3656 -0.6214  1.7151
 9113SOL    HW227918   8.162   7.165   3.965 -1.0729  1.0259 -1.6197
 9114SOL     OW27919   7.145   3.504   9.693  0.3231  0.0126  0.1281
 9114SOL    HW127920   7.133   3.598   9.700  0.2565 -0.0495  0.8708
 9114SOL    HW227921   7.239   3.493   9.677  0.4818  0.1659  0.9156
 9115SOL     OW27922   5.986   4.904   3.517 -1.0794 -1.1056  0.2919
 9115SOL    HW127923   5.906   4.939   3.557 -0.0871  0.3452  1.0675
 9115SOL    HW227924   6.027   4.854   3.587 -0.6559 -0.7787  0.2741
 9116SOL     OW27925   1.268   0.054   3.951 -0.4538 -0.4194 -0.0518
 9116SOL    HW127926   1.338   0.091   4.005  0.2142  0.7059 -1.6268
 9116SOL    HW227927   1.203   0.124   3.946 -1.3567 -1.1707  0.7376
 9117SOL     OW27928   2.675   5.933   8.941 -0.3765  0.1482  0.1053
 9117SOL    HW127929   2.659   6.019   8.979 -0.9984  0.2531 -0.3774
 9117SOL    HW227930   2.705   5.951   8.852 -2.7115 -0.1602 -0.7916
 9118SOL     OW27931   8.907   1.533   8.528 -0.1777 -0.1015  0.0796
 9118SOL    HW127932   8.862   1.586   8.593 -1.4139  1.8580 -2.1968
 9118SOL    HW227933   8.998   1.531   8.557 -0.8593 -0.1765  2.3381
 9119SOL     OW27934   8.971   1.678   7.195  0.1298 -0.8003 -0.3982
 9119SOL    HW127935   9.051   1.710   7.238  1.2126 -0.6048 -2.4145
 9119SOL    HW227936   8.968   1.585   7.216 -1.3511 -0.1449  2.9544
 9120SOL     OW27937   6.499   8.661   5.190 -0.4442 -0.4449  0.2366
 9120SOL    HW127938   6.493   8.756   5.178 -0.3579 -0.4909 -0.1800
 9120SOL    HW227939   6.415   8.628   5.158 -0.3143 -0.5442 -0.0068
 9121SOL     OW27940   3.820   3.311   3.761  0.8513  0.0072  0.3561
 9121SOL    HW127941   3.793   3.402   3.769 -2.4284 -0.6061 -1.6885
 9121SOL    HW227942   3.891   3.312   3.696  2.4839  1.2218  2.0562
 9122SOL     OW27943   7.103   1.669   5.913  0.1734  0.0754  0.5499
 9122SOL    HW127944   7.074   1.716   5.991 -1.5289  1.2528 -0.7315
 9122SOL    HW227945   7.179   1.718   5.883  0.9879 -0.5217  1.5487
 9123SOL     OW27946   3.362   0.459   3.944  0.0578  0.2332 -0.2092
 9123SOL    HW127947   3.377   0.553   3.936 -0.6934  0.4598  0.8243
 9123SOL    HW227948   3.404   0.434   4.026  0.6406 -0.4286 -0.6967
 9124SOL     OW27949   8.184   8.462   6.100 -0.2963 -0.0046 -0.2038
 9124SOL    HW127950   8.119   8.524   6.069 -0.0394  1.3609  1.8216
 9124SOL    HW227951   8.148   8.428   6.182  0.3656 -1.2372 -0.3903
 9125SOL     OW27952   9.244   8.130   6.382 -0.0979 -0.2487  0.3015
 9125SOL    HW127953   9.221   8.222   6.369 -0.0604  0.0145  1.8935
 9125SOL    HW227954   9.338   8.130   6.397  0.1620 -0.7439 -1.1486
 9126SOL     OW27955   4.395   0.565   6.555 -0.5029 -0.1761  0.2929
 9126SOL    HW127956   4.335   0.546   6.627  0.9070 -4.0985  0.6948
 9126SOL    HW227957   4.404   0.482   6.509  0.1325  1.7150 -3.3564
 9127SOL     OW27958   6.739   3.770   1.493 -0.4548 -0.1057 -0.2565
 9127SOL    HW127959   6.728   3.701   1.558 -0.2309  0.4441  0.3713
 9127SOL    HW227960   6.773   3.724   1.416  0.1989 -0.6113  0.3231
 9128SOL     OW27961   2.847   8.485   6.700  0.3935  0.0370 -0.4219
 9128SOL    HW127962   2.772   8.447   6.653  1.2195  1.1118 -2.7879
 9128SOL    HW227963   2.919   8.425   6.680  1.0179  1.1387 -1.6121
 9129SOL     OW27964   6.823   9.175   4.085  0.3175 -0.1267 -1.0987
 9129SOL    HW127965   6.771   9.098   4.110  0.1304 -0.2067 -1.7201
 9129SOL    HW227966   6.896   9.139   4.035  1.0995 -0.0302 -0.0716
 9130SOL     OW27967   0.948   5.665   5.475  0.3790 -0.2486 -0.6350
 9130SOL    HW127968   0.974   5.690   5.564  1.9152 -2.1672 -0.4676
 9130SOL    HW227969   0.943   5.747   5.427 -0.4140  0.8253  1.1877
 9131SOL     OW27970   8.427   7.294   6.306 -0.0647  0.2789 -0.1145
 9131SOL    HW127971   8.483   7.371   6.306  1.4263 -0.7427 -0.6826
 9131SOL    HW227972   8.417   7.271   6.398 -3.1749  2.9002  0.3419
 9132SOL     OW27973   4.911   1.658   5.572  0.4640 -0.0722  0.3859
 9132SOL    HW127974   4.903   1.751   5.549  0.4579 -0.1709 -0.0236
 9132SOL    HW227975   4.981   1.626   5.514  0.2475 -0.3946  0.3013
 9133SOL     OW27976   4.278   4.477   1.209  0.2494  0.2778 -0.2850
 9133SOL    HW127977   4.238   4.494   1.295  2.2242  0.3222  0.6721
 9133SOL    HW227978   4.370   4.498   1.221  0.7240 -0.5560 -2.1988
 9134SOL     OW27979   2.297   2.011   8.784 -0.1851 -0.0607 -0.1023
 9134SOL    HW127980   2.209   2.047   8.790  0.2240  1.0818 -0.8011
 9134SOL    HW227981   2.354   2.087   8.772  0.9437 -0.7478  0.6721
 9135SOL     OW27982   7.047   2.859   7.675  0.6733 -0.1644 -0.0945
 9135SOL    HW127983   7.066   2.835   7.766  4.5544  2.6298  0.0608
 9135SOL    HW227984   6.988   2.934   7.681 -0.1489 -0.8065  0.0112
 9136SOL     OW27985   5.572   3.614   7.608  0.7557 -0.0708 -0.2581
 9136SOL    HW127986   5.590   3.707   7.620  0.0343 -0.0078  0.4163
 9136SOL    HW227987   5.611   3.571   7.684  0.7134 -0.2783 -0.3503
 9137SOL     OW27988   3.119   3.233   9.542  0.2040  0.4298  0.4149
 9137SOL    HW127989   3.150   3.149   9.509 -0.5249  0.2085  0.2804
 9137SOL    HW227990   3.188   3.295   9.518  1.3004 -0.3085  1.5128
 9138SOL     OW27991   3.753   5.129   7.431  0.0754 -0.2802  0.4589
 9138SOL    HW127992   3.824   5.107   7.491 -0.3435 -0.9995  0.6948
 9138SOL    HW227993   3.737   5.222   7.446  2.7768  0.6558 -1.4854
 9139SOL     OW27994   3.055   6.236   1.151  0.3645 -0.2682  0.3558
 9139SOL    HW127995   3.048   6.164   1.087  0.0106  0.6563 -0.6770
 9139SOL    HW227996   3.142   6.226   1.188  0.5797 -0.8375 -0.2733
 9140SOL     OW27997   1.523   2.302   7.315 -0.1454 -0.5654  0.1882
 9140SOL    HW127998   1.549   2.210   7.309  0.1913 -0.5995  1.7182
 9140SOL    HW227999   1.434   2.300   7.351 -0.0362 -0.2899  0.4807
 9141SOL     OW28000   6.846   0.654   2.380 -0.1915 -0.3330  0.2347
 9141SOL    HW128001   6.796   0.616   2.453 -0.1282  0.7582  0.8698
 9141SOL    HW228002   6.885   0.579   2.336 -0.7883 -1.0620  0.9167
 9142SOL     OW28003   2.609   9.129   9.115 -0.4578  0.0639  0.0584
 9142SOL    HW128004   2.545   9.062   9.136  0.3770 -1.0941 -0.9139
 9142SOL    HW228005   2.651   9.150   9.198  0.2228 -1.6711  0.1810
 9143SOL     OW28006   5.492   5.961   3.018  0.1807 -0.2148  0.1585
 9143SOL    HW128007   5.428   5.939   3.086 -0.6699  1.5019 -0.0343
 9143SOL    HW228008   5.558   5.893   3.025 -1.2842 -1.6354  0.8626
 9144SOL     OW28009   0.330   5.598   0.042 -0.0810  0.2612 -0.0748
 9144SOL    HW128010   0.379   5.574  -0.037  0.4478  1.5555 -0.1670
 9144SOL    HW228011   0.398   5.614   0.108 -0.5385 -2.4662  1.2130
 9145SOL     OW28012   6.762   2.699   5.233  0.1147  0.4927 -0.2775
 9145SOL    HW128013   6.668   2.689   5.247  0.1978 -0.3078 -0.2414
 9145SOL    HW228014   6.772   2.698   5.137  0.0194  1.3530 -0.3095
 9146SOL     OW28015   7.338   2.264   2.431  0.4583 -0.4816 -0.1561
 9146SOL    HW128016   7.367   2.271   2.522 -1.4462 -0.3193  0.4872
 9146SOL    HW228017   7.289   2.345   2.416 -0.5563 -1.2003 -0.8086
 9147SOL     OW28018   7.045   4.923   0.909 -0.3013  0.7661 -0.4112
 9147SOL    HW128019   7.050   4.966   0.995 -1.5834  0.2352 -0.0543
 9147SOL    HW228020   7.036   4.995   0.847 -1.0919  1.0950  0.0630
 9148SOL     OW28021   9.857   0.829   0.317 -0.0084  0.0769  0.1380
 9148SOL    HW128022   9.893   0.872   0.394 -1.2743  0.8724  0.3281
 9148SOL    HW228023   9.904   0.746   0.311 -0.3117 -0.2996  2.1496
 9149SOL     OW28024   9.613   3.940   6.202  0.1437  0.0020 -0.2859
 9149SOL    HW128025   9.533   3.944   6.150  0.0248 -2.2982 -0.4048
 9149SOL    HW228026   9.587   3.896   6.283  1.0524  0.3255  0.2012
 9150SOL     OW28027   4.159   9.009   3.465 -0.0666  0.4029 -0.0379
 9150SOL    HW128028   4.254   9.013   3.465 -0.0238 -0.1343 -1.2142
 9150SOL    HW228029   4.139   8.925   3.508  0.0051  0.3095 -0.1869
 9151SOL     OW28030   4.474   6.549   1.358  0.2181 -0.6028 -0.1371
 9151SOL    HW128031   4.483   6.539   1.263  1.6874 -1.4674  0.0537
 9151SOL    HW228032   4.508   6.637   1.376  0.1630 -0.5308 -0.3822
 9152SOL     OW28033   3.253   1.769   6.255 -0.2939 -0.2197 -0.7516
 9152SOL    HW128034   3.298   1.733   6.332 -0.4305  0.7702 -0.1855
 9152SOL    HW228035   3.324   1.806   6.202 -0.2109 -0.8026 -1.0538
 9153SOL     OW28036   2.169   9.506   6.597  0.3596  0.4350 -0.2295
 9153SOL    HW128037   2.236   9.557   6.642 -0.9932  1.5160  0.6397
 9153SOL    HW228038   2.102   9.570   6.572 -0.9490 -0.7675  0.0494
 9154SOL     OW28039   3.289   3.256   8.094  0.4584  0.4587 -0.1526
 9154SOL    HW128040   3.363   3.195   8.099  0.6446  0.7180  0.3407
 9154SOL    HW228041   3.325   3.339   8.126 -0.2792  0.3711  0.9635
 9155SOL     OW28042   1.551   1.024   3.938  0.4316  0.1665 -0.0426
 9155SOL    HW128043   1.626   1.071   3.902  0.4766 -1.0104 -1.6151
 9155SOL    HW228044   1.588   0.945   3.977  0.1005  0.0353  0.0128
 9156SOL     OW28045   3.026   6.233   0.075 -0.1305  0.0095  0.1653
 9156SOL    HW128046   3.115   6.204   0.092 -0.5390 -0.3372  1.8801
 9156SOL    HW228047   2.996   6.176   0.004  0.2682 -1.4366  1.1065
 9157SOL     OW28048   2.384   1.082   1.164 -0.2130 -0.1969  0.2163
 9157SOL    HW128049   2.332   1.143   1.112 -0.8053 -0.8248  0.0519
 9157SOL    HW228050   2.472   1.119   1.163  0.0408 -0.6788 -2.1054
 9158SOL     OW28051   7.151   6.633   0.813 -0.3872  0.2663  0.1403
 9158SOL    HW128052   7.139   6.599   0.901 -0.4831 -0.4180 -0.1279
 9158SOL    HW228053   7.234   6.596   0.784 -0.0622  0.9716  0.1613
 9159SOL     OW28054   1.493   3.112   0.068 -0.2092  0.1275 -0.2977
 9159SOL    HW128055   1.522   3.027   0.034 -1.6976 -0.3097 -0.5626
 9159SOL    HW228056   1.559   3.174   0.037  0.3035 -0.7701 -1.0674
 9160SOL     OW28057   0.466   8.061   2.139  0.3661  0.1931  0.6370
 9160SOL    HW128058   0.497   7.986   2.190 -0.6060 -0.1842  0.7089
 9160SOL    HW228059   0.475   8.034   2.048 -3.1233 -1.4953  0.5969
 9161SOL     OW28060   1.708   9.425   6.760  0.1844 -0.3967  0.4683
 9161SOL    HW128061   1.642   9.377   6.710  0.5259 -1.3443  0.9053
 9161SOL    HW228062   1.661   9.457   6.837 -0.0667  0.0588  0.1295
 9162SOL     OW28063   8.303   3.176   4.631 -0.1181 -0.0365 -0.4362
 9162SOL    HW128064   8.331   3.201   4.543  0.3816  1.6514  0.1703
 9162SOL    HW228065   8.261   3.255   4.667 -1.8851 -1.2067  0.2408
 9163SOL     OW28066   2.635   1.747   9.037  0.6159  0.3223 -0.3011
 9163SOL    HW128067   2.539   1.748   9.044  0.6095 -0.4451 -0.2144
 9163SOL    HW228068   2.662   1.671   9.088  1.3558  1.1817  0.6310
 9164SOL     OW28069   3.806   5.527   8.210  0.3673  0.0685 -0.0857
 9164SOL    HW128070   3.739   5.518   8.278  1.2785 -4.8783  0.4955
 9164SOL    HW228071   3.880   5.568   8.256 -0.1224 -0.2362  1.0187
 9165SOL     OW28072   1.300   1.205   8.253  0.3357  0.3194  0.8225
 9165SOL    HW128073   1.335   1.149   8.322  0.1198 -1.0483 -0.1179
 9165SOL    HW228074   1.236   1.150   8.207  0.0989  1.3474 -0.1445
 9166SOL     OW28075   8.010   6.478   8.862  0.0394  0.0737  0.5864
 9166SOL    HW128076   8.086   6.458   8.808 -0.9646  0.6642 -1.0950
 9166SOL    HW228077   7.935   6.465   8.805 -1.0009  2.2725  1.3383
 9167SOL     OW28078   5.445   3.085   6.865  0.5425  0.0010  0.0225
 9167SOL    HW128079   5.380   3.038   6.916  1.4401 -0.2065  0.9969
 9167SOL    HW228080   5.507   3.119   6.929  0.7505  1.2366 -0.7758
 9168SOL     OW28081   3.237   5.224   1.866  0.3464 -0.2803 -0.7819
 9168SOL    HW128082   3.205   5.150   1.918 -0.9100  0.5550 -0.3272
 9168SOL    HW228083   3.220   5.199   1.775  0.1857 -0.6694 -0.6467
 9169SOL     OW28084   6.286   1.618   5.555  0.3840 -0.3864 -0.0848
 9169SOL    HW128085   6.292   1.585   5.466 -2.8691  0.3974 -0.7264
 9169SOL    HW228086   6.233   1.554   5.602  1.2153 -0.2910  1.0340
 9170SOL     OW28087   7.626   9.053   6.861 -0.3827 -0.2222 -0.1442
 9170SOL    HW128088   7.632   8.961   6.837 -0.9293 -0.8302  1.8266
 9170SOL    HW228089   7.624   9.053   6.957  2.0487  2.0060  0.0123
 9171SOL     OW28090   7.007   3.487   6.221 -0.6399  0.1307 -0.3046
 9171SOL    HW128091   7.028   3.460   6.132 -0.2177  0.2121 -0.2355
 9171SOL    HW228092   6.989   3.581   6.214  0.0236  0.2731 -0.2108
 9172SOL     OW28093   4.017   6.086   7.431 -0.2731 -0.5437  0.1194
 9172SOL    HW128094   3.927   6.116   7.440  0.1113  0.2641  1.4481
 9172SOL    HW228095   4.019   6.001   7.475 -0.0903  0.0653  1.3241
 9173SOL     OW28096   3.659   0.625   6.441  0.2318 -0.0993 -0.0257
 9173SOL    HW128097   3.629   0.556   6.500  0.5392 -0.5788 -0.4274
 9173SOL    HW228098   3.584   0.641   6.383  0.6741 -1.1976 -0.9369
 9174SOL     OW28099   9.280   9.596   0.142 -0.3803  0.9470  0.0380
 9174SOL    HW128100   9.230   9.567   0.065 -0.2365  1.7016 -0.3531
 9174SOL    HW228101   9.271   9.691   0.141 -0.4098  0.9582  0.9908
 9175SOL     OW28102   1.592   4.541   8.917  0.3097 -0.8247  0.2219
 9175SOL    HW128103   1.680   4.510   8.896  0.4961 -1.6665  2.0310
 9175SOL    HW228104   1.585   4.626   8.873  1.9488 -0.8375 -0.1057
 9176SOL     OW28105   2.416   4.418   9.361  0.1110 -0.2251  0.2254
 9176SOL    HW128106   2.451   4.330   9.347 -0.2876 -0.3725  0.1391
 9176SOL    HW228107   2.413   4.456   9.273 -0.4782 -0.4217  0.1508
 9177SOL     OW28108   0.326   7.395   5.112 -0.1380  0.4158 -0.0066
 9177SOL    HW128109   0.386   7.352   5.051 -0.9255  0.9935 -1.2294
 9177SOL    HW228110   0.348   7.357   5.197  2.5048  1.1873 -0.2524
 9178SOL     OW28111   3.978   1.703   0.891  0.0075 -0.6878 -0.5934
 9178SOL    HW128112   3.946   1.626   0.937 -1.3649  0.6228  0.7697
 9178SOL    HW228113   3.904   1.734   0.839  0.2822  0.1579 -0.5018
 9179SOL     OW28114   9.369   0.708   9.742  0.2024 -0.1028 -0.3594
 9179SOL    HW128115   9.369   0.650   9.818  0.1533 -0.3070 -0.5170
 9179SOL    HW228116   9.452   0.757   9.749  0.0549  0.1020 -0.0033
 9180SOL     OW28117   2.845   1.769   4.827  0.5635 -0.0788 -0.0257
 9180SOL    HW128118   2.861   1.860   4.854 -0.5406 -0.3544  1.6867
 9180SOL    HW228119   2.825   1.776   4.734  2.4323  1.1777 -0.4040
 9181SOL     OW28120   8.387   6.251   0.789  0.3861  0.3961  0.0600
 9181SOL    HW128121   8.393   6.170   0.739  0.0555 -0.7568  1.7782
 9181SOL    HW228122   8.296   6.253   0.819 -0.2014  2.5192 -1.6697
 9182SOL     OW28123   3.618   7.778   9.805 -0.4821  0.6368  0.3501
 9182SOL    HW128124   3.537   7.807   9.848 -1.4648  0.4394 -1.2990
 9182SOL    HW228125   3.674   7.748   9.877 -2.5459 -0.9140  1.4068
 9183SOL     OW28126   6.313   8.632   3.372 -0.2648  0.8065  0.5701
 9183SOL    HW128127   6.260   8.582   3.434 -0.6808 -0.0160 -0.4192
 9183SOL    HW228128   6.395   8.584   3.365 -0.1016  1.0625  0.7049
 9184SOL     OW28129   6.331   2.327   0.203  0.1463  0.3131 -0.0270
 9184SOL    HW128130   6.399   2.381   0.245  0.0325  0.0100  0.5534
 9184SOL    HW228131   6.380   2.264   0.151  0.2738  1.5769 -1.5042
 9185SOL     OW28132   8.737   5.902   3.741 -0.4451  0.5854 -1.1779
 9185SOL    HW128133   8.703   5.937   3.823 -0.6121  1.0744 -1.4529
 9185SOL    HW228134   8.827   5.935   3.736  0.4434 -1.4545 -0.0001
 9186SOL     OW28135   2.919   8.299   7.545 -0.5019 -0.2309 -0.3297
 9186SOL    HW128136   2.956   8.250   7.619 -0.5029  0.7141  0.3175
 9186SOL    HW228137   2.830   8.321   7.573 -0.3263  0.5788 -0.3810
 9187SOL     OW28138   3.834   0.099   3.423 -0.1963  0.0825  0.0912
 9187SOL    HW128139   3.902   0.107   3.489 -1.3884  0.5832  1.2898
 9187SOL    HW228140   3.767   0.163   3.449 -0.2562  1.0283 -2.1565
 9188SOL     OW28141   2.253   5.177   4.233  0.1861  0.1288 -0.1892
 9188SOL    HW128142   2.310   5.251   4.212 -0.0678  0.4734  0.3144
 9188SOL    HW228143   2.165   5.208   4.210 -0.1321  0.5920  1.4987
 9189SOL     OW28144   0.023   9.578   2.725 -0.0847  0.2765 -0.1206
 9189SOL    HW128145   0.042   9.495   2.683  1.2890  0.5765 -0.1391
 9189SOL    HW228146  -0.047   9.617   2.672 -1.4824 -1.2877  0.4873
 9190SOL     OW28147   0.937   2.832   8.108  0.2486  0.0747  0.2358
 9190SOL    HW128148   0.877   2.867   8.042  1.7384  1.6127 -0.3868
 9190SOL    HW228149   1.001   2.781   8.058  0.0342 -0.7381  0.7762
 9191SOL     OW28150   9.748   1.948   4.268 -0.2735  0.0718  0.2588
 9191SOL    HW128151   9.702   2.023   4.306 -0.9664 -0.3676  0.2943
 9191SOL    HW228152   9.730   1.953   4.174 -0.0103  0.1564  0.2109
 9192SOL     OW28153   3.304   5.670   7.851  0.1678 -0.2090 -0.2003
 9192SOL    HW128154   3.220   5.678   7.896 -0.2596 -0.9577 -0.8451
 9192SOL    HW228155   3.328   5.760   7.831 -0.8911 -0.0319 -0.7455
 9193SOL     OW28156   7.320   1.540   1.629 -0.3925 -0.6066 -0.0535
 9193SOL    HW128157   7.324   1.635   1.620 -0.9436 -0.3437  2.0367
 9193SOL    HW228158   7.250   1.513   1.570 -2.1894  0.6461  1.4301
 9194SOL     OW28159   3.031   5.451   4.339 -0.2643 -0.5426 -0.7332
 9194SOL    HW128160   2.979   5.461   4.260 -0.3392  2.5840 -0.4251
 9194SOL    HW228161   3.112   5.500   4.321  0.0923 -0.5068  0.8054
 9195SOL     OW28162   7.834   4.662   9.342  0.5292 -0.3463 -0.0844
 9195SOL    HW128163   7.890   4.731   9.308 -0.0028  0.1017 -0.0684
 9195SOL    HW228164   7.776   4.639   9.269  0.1794 -0.2177  0.1486
 9196SOL     OW28165   2.300   0.317   5.667 -0.2529 -0.2339 -0.2176
 9196SOL    HW128166   2.245   0.395   5.663  0.9619  0.7687  1.3232
 9196SOL    HW228167   2.253   0.257   5.726  0.3777  0.7405  1.3474
 9197SOL     OW28168   5.890   0.592   4.227  0.2747  0.0760 -0.2636
 9197SOL    HW128169   5.821   0.647   4.264 -1.1071 -1.3621 -0.5955
 9197SOL    HW228170   5.853   0.504   4.227  1.6583 -0.5465 -1.6150
 9198SOL     OW28171   0.217   8.589   8.295 -0.5113 -0.4145  0.4184
 9198SOL    HW128172   0.185   8.620   8.379  0.2740  1.7855 -0.0488
 9198SOL    HW228173   0.285   8.526   8.317 -0.1868  0.2763  1.4282
 9199SOL     OW28174   1.176   8.664   2.459  0.3707  0.1026  0.2413
 9199SOL    HW128175   1.230   8.722   2.406 -0.9490  3.0357  1.8565
 9199SOL    HW228176   1.093   8.658   2.413 -0.0308  0.8171  0.8663
 9200SOL     OW28177   0.230   4.227   7.406  0.0099 -0.5568  0.3220
 9200SOL    HW128178   0.283   4.292   7.360  1.3091 -1.9032 -0.1507
 9200SOL    HW228179   0.159   4.206   7.346  0.0032 -0.1277  0.1767
 9201SOL     OW28180   1.972   0.952   6.936  0.8926 -0.5311 -0.5310
 9201SOL    HW128181   2.012   0.998   6.862  1.3116 -0.0567 -0.0182
 9201SOL    HW228182   1.920   1.019   6.980 -0.1707 -1.0477 -0.9607
 9202SOL     OW28183   0.580   7.096   4.742 -0.1431 -0.0648 -0.2323
 9202SOL    HW128184   0.634   7.119   4.666 -0.4385  0.0255 -0.4169
 9202SOL    HW228185   0.643   7.065   4.807  0.0348 -1.1667 -0.8891
 9203SOL     OW28186   6.972   7.213   6.698 -0.1084 -0.0715  0.3336
 9203SOL    HW128187   6.934   7.241   6.615 -1.1500  0.1455  0.8684
 9203SOL    HW228188   6.919   7.137   6.725  1.4511 -1.3874 -0.1385
 9204SOL     OW28189   8.693   6.047   5.082 -0.1597  0.0958 -0.2313
 9204SOL    HW128190   8.779   6.083   5.061 -0.8080  0.0865 -3.3276
 9204SOL    HW228191   8.684   6.062   5.177  2.7071  1.1724 -0.0181
 9205SOL     OW28192   8.341   6.979   4.911 -0.1804  0.3411  0.7108
 9205SOL    HW128193   8.416   7.036   4.929  0.3184 -0.3308  0.8480
 9205SOL    HW228194   8.264   7.031   4.935  0.3283  0.4656  2.2221
 9206SOL     OW28195   4.783   8.631   6.507  0.0436 -0.2695  0.2714
 9206SOL    HW128196   4.802   8.723   6.494  1.5829 -0.2263  2.3652
 9206SOL    HW228197   4.831   8.586   6.437 -0.8994  0.4567 -0.8981
 9207SOL     OW28198   2.328   8.995   0.463  0.0945 -0.3295  0.6035
 9207SOL    HW128199   2.327   8.909   0.505  0.6029  0.3744  2.1460
 9207SOL    HW228200   2.241   9.030   0.479 -0.2302 -0.6691 -0.3306
 9208SOL     OW28201   3.500   4.507   4.366 -0.0543 -0.5176  0.7264
 9208SOL    HW128202   3.519   4.601   4.367 -0.2917 -0.3796 -1.8113
 9208SOL    HW228203   3.446   4.494   4.288 -2.0650 -2.4352  2.3144
 9209SOL     OW28204   2.882   9.551   3.193  0.1424  0.1907  0.2679
 9209SOL    HW128205   2.945   9.506   3.136 -0.0922  0.0945  0.0841
 9209SOL    HW228206   2.936   9.604   3.251  0.3584  0.8052 -0.4779
 9210SOL     OW28207   8.396   4.010   3.313  0.2833  0.2173  0.5977
 9210SOL    HW128208   8.425   4.033   3.401  0.9036  0.0679  0.4397
 9210SOL    HW228209   8.474   4.021   3.258 -0.1123  0.3782  0.0569
 9211SOL     OW28210   8.072   5.548   3.517 -0.0856 -0.1928 -0.3535
 9211SOL    HW128211   8.029   5.489   3.578  0.8606 -0.4561  0.0729
 9211SOL    HW228212   8.005   5.613   3.496 -0.3805  0.0072  1.0966
 9212SOL     OW28213   6.701   8.448   5.108  0.2745  0.7158  0.0969
 9212SOL    HW128214   6.630   8.509   5.086  0.5002  0.7576 -0.5378
 9212SOL    HW228215   6.747   8.434   5.025 -0.7877 -1.6682 -0.1594
 9213SOL     OW28216   9.670   3.663   1.478  0.0209 -0.1326  0.6432
 9213SOL    HW128217   9.597   3.610   1.446 -0.2443 -0.4044  1.6664
 9213SOL    HW228218   9.632   3.716   1.548  0.8321 -0.3623  1.2619
 9214SOL     OW28219   9.788   1.542   1.470 -0.2422  0.0895 -0.0973
 9214SOL    HW128220   9.757   1.599   1.399  1.1547 -0.5741 -1.2998
 9214SOL    HW228221   9.791   1.455   1.431  1.7352 -0.0968  0.3318
 9215SOL     OW28222   6.664   6.244   4.282  0.2394 -0.0897  0.7355
 9215SOL    HW128223   6.756   6.255   4.308 -0.2283  1.1059  1.9880
 9215SOL    HW228224   6.667   6.243   4.186  1.6988 -1.5711  0.7474
 9216SOL     OW28225   3.565   4.848   2.813 -0.3632  0.1029  0.5321
 9216SOL    HW128226   3.477   4.842   2.777 -0.3436  0.1341  0.4788
 9216SOL    HW228227   3.584   4.942   2.816 -0.1822  0.0776  0.1799
 9217SOL     OW28228   0.493   3.381   2.427 -0.1006 -0.8567 -0.2443
 9217SOL    HW128229   0.460   3.358   2.514  1.9333 -1.2164  0.4922
 9217SOL    HW228230   0.419   3.423   2.383 -1.5301 -1.7446  1.2206
 9218SOL     OW28231   1.641   9.908   8.712  0.3090  0.3283  0.1800
 9218SOL    HW128232   1.547   9.913   8.726 -0.0148  1.7786 -2.0350
 9218SOL    HW228233   1.678   9.905   8.800 -1.7931 -0.9411  1.1008
 9219SOL     OW28234   0.074   1.553   2.049 -0.0156  0.0371  0.0580
 9219SOL    HW128235   0.133   1.576   2.121 -0.7219  1.3154  0.2676
 9219SOL    HW228236   0.121   1.486   1.999  0.1316 -1.5329  2.1770
 9220SOL     OW28237   0.338   6.787   2.730  0.1719  0.6763 -0.1946
 9220SOL    HW128238   0.284   6.744   2.664 -1.7271  2.4762  0.0876
 9220SOL    HW228239   0.402   6.836   2.678 -0.5391  1.1115 -0.6913
 9221SOL     OW28240   5.710   0.191   7.355  0.0870  0.4657  0.1681
 9221SOL    HW128241   5.683   0.132   7.285  0.0135  0.3117  0.3227
 9221SOL    HW228242   5.778   0.246   7.317  1.5846 -1.0244  0.5591
 9222SOL     OW28243   5.382   1.270   5.685  0.0215  0.0693 -0.4647
 9222SOL    HW128244   5.358   1.322   5.762 -0.6053  1.0264 -1.2642
 9222SOL    HW228245   5.298   1.254   5.641  0.3591 -0.5690 -0.8758
 9223SOL     OW28246   6.401   1.712   8.719 -0.0854  0.1142 -0.4899
 9223SOL    HW128247   6.468   1.776   8.696  0.3607  0.1030  0.6763
 9223SOL    HW228248   6.343   1.759   8.779  1.1343 -0.9416  1.6479
 9224SOL     OW28249   7.561   8.497   6.591  0.0674  0.6240 -0.1064
 9224SOL    HW128250   7.640   8.512   6.643 -0.5076  0.4644  0.8353
 9224SOL    HW228251   7.571   8.409   6.556 -1.2500 -0.8457  2.9164
 9225SOL     OW28252   3.701   2.012   9.473  0.5423 -0.2590  0.0710
 9225SOL    HW128253   3.703   2.070   9.549 -1.6844 -1.8634  1.4441
 9225SOL    HW228254   3.677   2.070   9.400  0.7369  0.9526  0.9368
 9226SOL     OW28255   8.368   4.030   0.724  0.8789  0.0669 -0.0143
 9226SOL    HW128256   8.451   4.078   0.722  1.0105 -0.1511  0.1735
 9226SOL    HW228257   8.359   3.994   0.636  0.5901  0.7557 -0.2793
 9227SOL     OW28258   1.261   9.255   9.832  0.1575 -0.6311  0.0156
 9227SOL    HW128259   1.312   9.287   9.757  1.4779  0.3261  1.2605
 9227SOL    HW228260   1.172   9.286   9.815  0.4408 -0.3841 -1.1229
 9228SOL     OW28261   3.131   2.711   3.332 -0.7175 -0.4682  0.0121
 9228SOL    HW128262   3.158   2.778   3.396  0.5353 -0.3197 -0.6282
 9228SOL    HW228263   3.118   2.632   3.384  0.5277 -0.4128  0.4458
 9229SOL     OW28264   9.671   4.859   6.653  0.1123  0.5446  0.1319
 9229SOL    HW128265   9.599   4.837   6.594 -0.0281  0.5880  0.2850
 9229SOL    HW228266   9.711   4.937   6.614  0.0426  0.5512  0.0742
 9230SOL     OW28267   3.859   4.262   8.541 -0.0284  0.0314  0.1935
 9230SOL    HW128268   3.814   4.219   8.614 -0.6252 -2.2610 -1.4134
 9230SOL    HW228269   3.941   4.294   8.580 -1.4297  1.2541  2.4044
 9231SOL     OW28270   2.310   4.447   0.734  0.3117  0.4343  0.0628
 9231SOL    HW128271   2.273   4.441   0.645  0.5372 -0.8179  0.0306
 9231SOL    HW228272   2.405   4.439   0.721  0.4663  1.6684  0.3127
 9232SOL     OW28273   7.314   0.636   3.262  0.4165 -0.0628 -0.6490
 9232SOL    HW128274   7.334   0.542   3.259  2.9536  0.3924 -0.3632
 9232SOL    HW228275   7.399   0.678   3.278 -0.6811  2.2844 -0.5800
 9233SOL     OW28276   2.383   2.866   6.956 -0.2880  0.3690 -0.0013
 9233SOL    HW128277   2.414   2.864   6.866 -0.2782  1.3624 -0.0271
 9233SOL    HW228278   2.392   2.957   6.983 -1.3834  0.3097  0.6212
 9234SOL     OW28279   7.843   0.170   2.060  0.7416 -0.7073  0.5494
 9234SOL    HW128280   7.859   0.261   2.086 -0.3833  0.2602 -1.8768
 9234SOL    HW228281   7.916   0.149   2.001  1.3252 -1.6218  1.5640
 9235SOL     OW28282   2.951   5.382   0.477  0.0862  0.3799  0.0286
 9235SOL    HW128283   3.034   5.430   0.488 -0.3002  0.8113  1.1960
 9235SOL    HW228284   2.889   5.448   0.447 -0.0678  0.2469  0.0544
 9236SOL     OW28285   0.660   2.963   9.558  0.4710 -0.1422  0.0086
 9236SOL    HW128286   0.594   3.031   9.569  2.3128  1.3571  3.3363
 9236SOL    HW228287   0.622   2.885   9.598 -0.9540 -0.6885 -2.2397
 9237SOL     OW28288   1.655   7.977   0.661  0.0481 -0.1770  0.3218
 9237SOL    HW128289   1.731   7.969   0.603  0.1868 -0.0949  0.4930
 9237SOL    HW228290   1.679   8.045   0.723  0.4003 -1.1282  1.2530
 9238SOL     OW28291   3.240   5.718   7.500 -0.0771  0.7041 -0.2669
 9238SOL    HW128292   3.313   5.657   7.506 -0.6429  0.1181  1.0936
 9238SOL    HW228293   3.189   5.687   7.425 -0.6668 -0.8903  0.7383
 9239SOL     OW28294   5.452   9.825   7.878  0.2139  0.3384 -0.2524
 9239SOL    HW128295   5.475   9.735   7.900  0.7481 -0.1061 -2.4084
 9239SOL    HW228296   5.383   9.817   7.812 -1.1205  1.5766  0.9122
 9240SOL     OW28297   5.488   9.047   7.347 -0.4694 -0.6255  0.7539
 9240SOL    HW128298   5.540   9.081   7.420  2.2648 -3.1981  0.1879
 9240SOL    HW228299   5.410   9.010   7.389  0.7288 -1.4720  2.3428
 9241SOL     OW28300   6.887   7.040   3.020  0.4143 -0.5557 -0.0783
 9241SOL    HW128301   6.795   7.058   3.001  0.8534  0.0016 -1.8769
 9241SOL    HW228302   6.886   6.993   3.103 -1.6161 -1.9784 -0.8462
 9242SOL     OW28303   0.784   2.779   0.921  0.2038  0.0586 -0.2153
 9242SOL    HW128304   0.786   2.850   0.985 -1.4093 -0.3010  0.2687
 9242SOL    HW228305   0.813   2.821   0.839  2.8737  0.3818  0.7893
 9243SOL     OW28306   1.288   0.356   2.889 -0.9740  0.0974  0.0644
 9243SOL    HW128307   1.204   0.330   2.852 -1.1780  1.4025 -0.4495
 9243SOL    HW228308   1.300   0.447   2.861 -0.0247  0.3782  1.2584
 9244SOL     OW28309   9.264   2.529   4.414  0.1308  0.1664 -0.1351
 9244SOL    HW128310   9.183   2.480   4.398 -0.4385  1.2127 -0.6215
 9244SOL    HW228311   9.296   2.496   4.498 -2.0770  1.3626  1.2920
 9245SOL     OW28312   8.983   4.012   1.551 -0.2707 -0.1055  0.0422
 9245SOL    HW128313   9.058   4.052   1.596 -0.7632  2.6150 -1.3898
 9245SOL    HW228314   9.020   3.934   1.509  0.7735 -1.1889  2.7829
 9246SOL     OW28315   3.245   5.846   1.139 -0.5488 -0.4705  0.0196
 9246SOL    HW128316   3.266   5.793   1.217 -1.7865  1.6042  1.8670
 9246SOL    HW228317   3.150   5.857   1.142 -0.7072 -0.7780 -2.1551
 9247SOL     OW28318   0.857   9.708   7.580  0.2310  0.1580 -0.1774
 9247SOL    HW128319   0.815   9.791   7.554  0.4681  0.0563 -0.8911
 9247SOL    HW228320   0.879   9.665   7.498 -2.5882 -2.0285  0.0463
 9248SOL     OW28321   9.786   8.617   2.722 -0.4074 -0.3943 -0.1484
 9248SOL    HW128322   9.796   8.528   2.691 -2.4322  0.1451 -2.6422
 9248SOL    HW228323   9.845   8.623   2.798 -0.8590 -4.0468  0.6486
 9249SOL     OW28324   8.523   1.252   6.403 -0.0875  0.0724  0.0344
 9249SOL    HW128325   8.481   1.283   6.323  1.0106 -0.8266 -0.9283
 9249SOL    HW228326   8.492   1.162   6.414 -0.0274  0.1016  0.4680
 9250SOL     OW28327   4.336   8.399   2.733 -1.0701 -0.3255  0.2324
 9250SOL    HW128328   4.275   8.377   2.804 -2.2545  0.2109 -0.5821
 9250SOL    HW228329   4.296   8.361   2.655  0.3975 -1.2254 -0.1282
 9251SOL     OW28330   9.677   3.668   6.999  0.7724  0.4856 -0.0220
 9251SOL    HW128331   9.757   3.640   7.043  0.7233  0.7590  0.2477
 9251SOL    HW228332   9.624   3.707   7.068 -0.3652 -1.2784  0.1614
 9252SOL     OW28333   9.424   2.656   6.550 -0.3427  0.1309  0.0494
 9252SOL    HW128334   9.446   2.575   6.597  1.4156  0.9653  0.7701
 9252SOL    HW228335   9.492   2.663   6.483 -0.1859  1.2446  0.3110
 9253SOL     OW28336   8.752   2.944   5.658 -0.6463  0.7723  0.2716
 9253SOL    HW128337   8.831   2.918   5.610  0.1132  2.2648  0.6306
 9253SOL    HW228338   8.727   2.866   5.707  1.0859  0.4766  0.7697
 9254SOL     OW28339   0.606   8.643   7.478 -0.0856  0.3348  0.2039
 9254SOL    HW128340   0.555   8.574   7.436 -2.2400  2.0702 -0.1980
 9254SOL    HW228341   0.549   8.720   7.477  1.4974  1.6540  2.3119
 9255SOL     OW28342   1.992   1.390   4.056 -0.5253 -1.1194  0.7197
 9255SOL    HW128343   2.048   1.380   3.979 -1.5935  0.3106 -0.2967
 9255SOL    HW228344   2.048   1.431   4.122  0.1306 -1.4541  0.3767
 9256SOL     OW28345   8.473   7.774   8.738 -0.1952 -0.5348  0.0293
 9256SOL    HW128346   8.404   7.791   8.803  0.2507  0.1479  0.3284
 9256SOL    HW228347   8.507   7.688   8.763 -0.4721 -0.5676  0.3046
 9257SOL     OW28348   1.949   6.332   4.093  0.1862  0.1851 -0.0530
 9257SOL    HW128349   1.862   6.369   4.077  0.7764  1.7306  0.1891
 9257SOL    HW228350   2.008   6.407   4.093  1.4166 -0.7413  0.6021
 9258SOL     OW28351   5.020   7.026   8.727  0.9816  0.7282 -0.4393
 9258SOL    HW128352   5.033   7.011   8.633  0.2963 -0.8357 -0.3158
 9258SOL    HW228353   5.081   6.966   8.770 -0.4633 -0.4213  0.0952
 9259SOL     OW28354   2.870   7.649   6.310  0.1165 -0.4715  0.1353
 9259SOL    HW128355   2.899   7.710   6.241  1.5107  1.2503  2.1068
 9259SOL    HW228356   2.780   7.674   6.327  0.6382  1.0799  0.8481
 9260SOL     OW28357   9.298   6.077   2.883  0.5599  0.2783  0.5152
 9260SOL    HW128358   9.330   6.078   2.973 -0.4667 -0.7596  0.9182
 9260SOL    HW228359   9.282   5.984   2.864  1.2445  0.4271 -0.9195
 9261SOL     OW28360   4.494   1.341   1.411  0.5872  0.5670 -0.0563
 9261SOL    HW128361   4.517   1.423   1.367  1.3188  0.2553 -0.2682
 9261SOL    HW228362   4.416   1.310   1.365 -0.1681  1.5338  0.5345
 9262SOL     OW28363   9.127   1.567   1.220  0.2641  0.3269 -0.2084
 9262SOL    HW128364   9.221   1.586   1.224  0.0742  1.2857 -0.0624
 9262SOL    HW228365   9.120   1.474   1.244  1.2504  0.0128 -1.0828
 9263SOL     OW28366   9.817   0.087   4.842 -0.1388 -0.2682  0.5111
 9263SOL    HW128367   9.881   0.024   4.808  0.6360  0.7968 -0.0655
 9263SOL    HW228368   9.831   0.086   4.937  0.9277  0.1488  0.3695
 9264SOL     OW28369   8.974   8.929   9.661 -0.1573  0.0343  0.5613
 9264SOL    HW128370   8.895   8.898   9.618 -2.6490  2.4549  2.9874
 9264SOL    HW228371   9.028   8.964   9.590 -1.9445 -0.2973 -1.0301
 9265SOL     OW28372   1.640   2.715   5.386 -0.0244  0.4050 -0.0883
 9265SOL    HW128373   1.700   2.641   5.376 -1.0857 -0.2657 -1.9597
 9265SOL    HW228374   1.615   2.714   5.479 -0.5840 -2.0665 -0.2177
 9266SOL     OW28375   2.794   1.753   4.176 -0.1244 -0.3117 -0.4648
 9266SOL    HW128376   2.741   1.775   4.253  0.2432 -0.9939 -0.0124
 9266SOL    HW228377   2.847   1.832   4.161 -0.9107  0.1986 -0.6339
 9267SOL     OW28378   2.829   3.077   7.550  0.1499  0.0736 -0.2526
 9267SOL    HW128379   2.923   3.063   7.535  0.4180 -1.0704  2.0686
 9267SOL    HW228380   2.813   3.039   7.636 -2.1625  1.5988  0.0678
 9268SOL     OW28381   6.747   4.665   3.690  0.7396  0.3562  0.0114
 9268SOL    HW128382   6.805   4.658   3.766  1.2047  0.2230 -0.3529
 9268SOL    HW228383   6.723   4.758   3.687  0.5066  0.3131  0.4737
 9269SOL     OW28384   9.172   3.873   2.322 -0.1550 -0.6812  0.1372
 9269SOL    HW128385   9.175   3.861   2.227  1.7477 -0.1058  0.0748
 9269SOL    HW228386   9.168   3.968   2.334 -1.8572 -0.7885  0.6535
 9270SOL     OW28387   9.320   1.880   0.115 -0.4643  0.1657 -0.2361
 9270SOL    HW128388   9.270   1.818   0.062  0.7717 -2.0282  1.0445
 9270SOL    HW228389   9.254   1.923   0.170 -1.4029  0.4091 -1.5025
 9271SOL     OW28390   5.966   8.992   1.876 -0.0297 -0.3259  0.1809
 9271SOL    HW128391   6.021   8.985   1.954 -0.5217 -0.3081  0.5347
 9271SOL    HW228392   5.971   9.085   1.851 -0.6329 -0.1311  0.7590
 9272SOL     OW28393   7.638   2.777   3.409  0.2714  0.4431  0.1829
 9272SOL    HW128394   7.687   2.703   3.374 -1.5607 -0.8154  0.1625
 9272SOL    HW228395   7.664   2.782   3.501 -0.2627 -0.8409  0.4221
 9273SOL     OW28396   2.190   8.552   8.586  0.1755 -0.0490  0.2701
 9273SOL    HW128397   2.194   8.471   8.637 -0.3128  0.0478  0.4663
 9273SOL    HW228398   2.227   8.619   8.644  0.9462 -0.2001 -0.0395
 9274SOL     OW28399   8.810   8.034   9.719  0.1788  0.2869 -0.2325
 9274SOL    HW128400   8.851   8.048   9.633  0.2738  0.2940 -0.1858
 9274SOL    HW228401   8.883   8.033   9.781  0.1594 -0.2955 -0.2193
 9275SOL     OW28402   8.965   5.401   4.360  0.3054  0.0005  0.2994
 9275SOL    HW128403   8.943   5.314   4.329 -1.6340  0.1208  1.1866
 9275SOL    HW228404   8.924   5.461   4.298  0.9920  0.2907  0.1123
 9276SOL     OW28405   5.836   6.226   9.369  0.3271  0.3028 -0.3673
 9276SOL    HW128406   5.900   6.296   9.355 -2.1618  2.6742 -0.6846
 9276SOL    HW228407   5.838   6.209   9.463  2.8072 -1.2145 -0.5974
 9277SOL     OW28408   6.004   6.616   7.408  0.2642 -0.3138  0.1257
 9277SOL    HW128409   6.037   6.542   7.457  0.5765 -0.6566 -0.5891
 9277SOL    HW228410   5.909   6.615   7.422  0.1351 -1.4764 -0.7117
 9278SOL     OW28411   4.986   6.477   4.992 -0.3806  0.0418 -0.2551
 9278SOL    HW128412   4.939   6.513   4.917 -1.3874 -0.6569  0.0176
 9278SOL    HW228413   4.982   6.382   4.979  1.3107 -0.0358 -0.4194
 9279SOL     OW28414   7.766   1.035   3.421  0.3055  0.1986 -0.1179
 9279SOL    HW128415   7.779   0.940   3.412  0.4377  0.1943  0.1305
 9279SOL    HW228416   7.782   1.069   3.333  2.8938  0.3016  0.3280
 9280SOL     OW28417   2.388   1.928   5.979  0.8277  0.4968 -0.3645
 9280SOL    HW128418   2.314   1.975   6.018  1.7666  1.1108  0.7613
 9280SOL    HW228419   2.405   1.973   5.897 -0.2002  0.1736 -0.7792
 9281SOL     OW28420   7.474   5.370   8.885  0.0255 -0.7298 -0.1745
 9281SOL    HW128421   7.541   5.377   8.817  0.3055 -0.0598  0.1670
 9281SOL    HW228422   7.403   5.322   8.843 -0.9639  1.9868 -1.8531
 9282SOL     OW28423   5.846   4.077   0.615 -0.1557  0.1947 -0.4074
 9282SOL    HW128424   5.759   4.106   0.643 -0.3729  1.7039 -2.4275
 9282SOL    HW228425   5.905   4.111   0.683 -1.0222 -0.0742  0.5129
 9283SOL     OW28426   2.875   1.510   7.973 -0.0339 -0.4484  0.5694
 9283SOL    HW128427   2.854   1.538   7.884  2.3024  1.4292  0.5364
 9283SOL    HW228428   2.950   1.564   7.999  0.0285 -1.6826  3.2970
 9284SOL     OW28429   6.315   3.860   3.158  0.2200 -0.4679  0.2935
 9284SOL    HW128430   6.383   3.869   3.225  1.4491 -0.2086 -0.9433
 9284SOL    HW228431   6.351   3.904   3.081 -1.6623  0.3004 -0.1969
 9285SOL     OW28432   2.042   3.747   8.225  0.1936  0.4169 -0.1438
 9285SOL    HW128433   1.976   3.724   8.160 -0.7699  0.7226  0.6925
 9285SOL    HW228434   2.108   3.678   8.218  0.5544  0.9141 -2.0224
 9286SOL     OW28435   7.650   5.445   6.566  0.1584 -0.0532 -0.3896
 9286SOL    HW128436   7.607   5.431   6.651  0.5397 -1.4177 -0.3969
 9286SOL    HW228437   7.677   5.357   6.538  0.3915  0.4279 -1.7430
 9287SOL     OW28438   3.122   4.652   7.908 -0.2841 -0.7794  0.0412
 9287SOL    HW128439   3.125   4.569   7.860  1.3035 -0.3329 -0.7004
 9287SOL    HW228440   3.195   4.703   7.873 -0.9012  0.7462  0.8497
 9288SOL     OW28441   9.862   3.335   8.943  0.2506 -0.4598 -0.3696
 9288SOL    HW128442   9.903   3.420   8.924 -0.3484 -0.4033 -1.5523
 9288SOL    HW228443   9.773   3.344   8.908 -0.3015 -1.0747  0.8504
 9289SOL     OW28444   0.801   1.582   2.879  0.1276 -0.6063 -0.4099
 9289SOL    HW128445   0.873   1.645   2.882  0.9515 -1.5516  0.5577
 9289SOL    HW228446   0.834   1.510   2.826 -0.2909 -0.8219 -0.3807
 9290SOL     OW28447   7.683   8.448   2.615 -0.6449  0.0976  0.1388
 9290SOL    HW128448   7.611   8.387   2.601 -1.6136  1.5562 -1.7649
 9290SOL    HW228449   7.644   8.518   2.668 -0.9553  1.3157 -1.6155
 9291SOL     OW28450   2.735   4.987   6.070  1.1909 -1.0520 -0.6598
 9291SOL    HW128451   2.780   4.999   5.987 -1.0352  1.1031 -1.6679
 9291SOL    HW228452   2.758   5.065   6.121  0.9824 -1.4102 -0.0026
 9292SOL     OW28453   9.491   7.586   4.909  0.2965  1.1287  0.6310
 9292SOL    HW128454   9.411   7.634   4.887 -1.0943 -1.6792 -0.9305
 9292SOL    HW228455   9.552   7.605   4.838  0.0303  1.1412  0.4077
 9293SOL     OW28456   0.399   2.166   1.311 -0.1011 -0.9881 -0.3356
 9293SOL    HW128457   0.311   2.146   1.343 -0.8388 -1.3372 -2.3977
 9293SOL    HW228458   0.419   2.092   1.253  0.8405 -0.0850 -1.1895
 9294SOL     OW28459   2.357   7.580   9.250  0.5297 -0.0085  0.0700
 9294SOL    HW128460   2.394   7.563   9.337 -1.0483  0.7273  0.9424
 9294SOL    HW228461   2.265   7.600   9.267  0.2090  0.2825 -1.7790
 9295SOL     OW28462   1.995   7.016   5.287  0.0629 -0.2934  0.0697
 9295SOL    HW128463   1.952   6.938   5.322 -0.5334  0.3500  0.8342
 9295SOL    HW228464   1.937   7.088   5.312  0.7882  0.4351 -0.2915
 9296SOL     OW28465   5.749   3.276   7.844 -0.6846  0.1731 -0.2360
 9296SOL    HW128466   5.804   3.271   7.766 -0.5320  0.0997 -0.1237
 9296SOL    HW228467   5.779   3.355   7.889 -1.7157  1.0107 -0.9647
 9297SOL     OW28468   2.807   0.614   0.448 -0.0590 -0.0318  0.0414
 9297SOL    HW128469   2.830   0.531   0.489 -1.0194  0.2355  1.1749
 9297SOL    HW228470   2.789   0.673   0.521  0.8955  1.2782 -0.7414
 9298SOL     OW28471   3.298   4.681   2.605 -0.3303 -0.0765  0.0058
 9298SOL    HW128472   3.393   4.669   2.604 -0.3859 -1.2132  2.3474
 9298SOL    HW228473   3.265   4.609   2.552  0.0951  0.4669 -1.0306
 9299SOL     OW28474   9.051   7.876   5.707 -0.0718 -0.1822 -0.5518
 9299SOL    HW128475   9.135   7.837   5.731 -0.2534 -0.7959 -0.9002
 9299SOL    HW228476   9.000   7.872   5.788  0.2006  0.1124 -0.3613
 9300SOL     OW28477   0.015   6.714   6.317  0.2960  0.3761  0.5496
 9300SOL    HW128478   0.039   6.761   6.237 -1.4476 -1.5872 -1.2397
 9300SOL    HW228479  -0.024   6.781   6.373 -2.8975  1.0980 -2.2400
 9301SOL     OW28480   9.391   6.368   2.660 -0.2544  0.8576  0.6808
 9301SOL    HW128481   9.351   6.283   2.642  1.3314  0.1345  0.3401
 9301SOL    HW228482   9.350   6.427   2.598 -0.1252 -0.0583 -0.3127
 9302SOL     OW28483   4.746   4.203   0.028 -0.4066 -0.1375  0.1821
 9302SOL    HW128484   4.714   4.269   0.089  2.9206  2.4215 -0.5196
 9302SOL    HW228485   4.797   4.143   0.082  1.1366  1.1571  0.2427
 9303SOL     OW28486   3.403   4.479   5.210  0.0040  0.0596  0.0523
 9303SOL    HW128487   3.483   4.526   5.234 -0.3611  1.9743 -2.1280
 9303SOL    HW228488   3.433   4.410   5.151  0.1878 -0.1869  0.4312
 9304SOL     OW28489   1.633   1.448   4.094 -0.0710  0.4774  0.0180
 9304SOL    HW128490   1.612   1.534   4.057  0.4973  0.5693 -0.1175
 9304SOL    HW228491   1.686   1.406   4.026 -1.2814 -0.4389 -0.3973
 9305SOL     OW28492   5.169   2.316   7.958 -0.5876 -0.8284 -0.5722
 9305SOL    HW128493   5.194   2.373   7.885 -0.0387  0.2511  0.4221
 9305SOL    HW228494   5.183   2.227   7.925  4.7946 -0.4231 -0.1725
 9306SOL     OW28495   8.755   6.024   0.432  0.1060  0.1424  0.3023
 9306SOL    HW128496   8.806   6.056   0.507 -0.7873 -0.4683  1.2006
 9306SOL    HW228497   8.743   5.931   0.449  1.5365 -0.4309 -1.6143
 9307SOL     OW28498   5.360   2.889   9.603 -0.1893 -0.1495 -0.4195
 9307SOL    HW128499   5.444   2.934   9.592  1.1556 -1.5926  2.6439
 9307SOL    HW228500   5.362   2.818   9.540 -0.1513  1.1028 -1.8980
 9308SOL     OW28501   2.191   0.741   7.015 -0.2965  0.3260 -0.4645
 9308SOL    HW128502   2.120   0.686   6.981 -0.8966 -0.5746  2.0316
 9308SOL    HW228503   2.146   0.814   7.058  0.2351 -0.1730  1.0107
 9309SOL     OW28504   3.518   4.002   5.412  0.3565 -0.1456 -0.1327
 9309SOL    HW128505   3.435   4.010   5.364  0.7051 -1.9503 -1.0930
 9309SOL    HW228506   3.541   3.910   5.406  2.3393  0.2777  0.3135
 9310SOL     OW28507   5.530   1.075   4.680  0.1752  0.2043 -0.1979
 9310SOL    HW128508   5.570   1.111   4.760  2.1966 -0.9305 -0.6242
 9310SOL    HW228509   5.538   1.145   4.616 -0.7539  0.8419  0.3545
 9311SOL     OW28510   6.463   3.651   8.615 -0.3547 -0.3664 -0.5287
 9311SOL    HW128511   6.370   3.648   8.593 -0.4803  0.5156 -0.1587
 9311SOL    HW228512   6.472   3.729   8.670  1.0000  0.8556 -2.3637
 9312SOL     OW28513   4.770   3.842   2.906 -0.0509 -0.5006  0.1200
 9312SOL    HW128514   4.793   3.783   2.978  2.0086 -0.4242 -0.4194
 9312SOL    HW228515   4.743   3.923   2.950  0.7000 -0.6150  0.8373
 9313SOL     OW28516   7.425   1.112   2.204  0.0402  0.2768  0.0105
 9313SOL    HW128517   7.332   1.115   2.182 -0.0015 -1.8943 -0.3610
 9313SOL    HW228518   7.452   1.022   2.183  1.9406  0.4931  1.2362
 9314SOL     OW28519   3.129   1.076   4.689 -0.2687  0.0847  0.2953
 9314SOL    HW128520   3.157   0.998   4.641 -0.6302  0.0388  0.1589
 9314SOL    HW228521   3.211   1.113   4.724 -0.1489 -0.6274  0.7868
 9315SOL     OW28522   0.765   7.539   4.670 -0.5550 -0.2992  0.5890
 9315SOL    HW128523   0.846   7.540   4.619 -1.9158 -0.4693 -1.7167
 9315SOL    HW228524   0.766   7.621   4.718  1.1108 -0.4331  0.8315
 9316SOL     OW28525   5.159   0.309   2.609 -0.3230  0.0340  0.4248
 9316SOL    HW128526   5.193   0.250   2.542 -1.3055 -1.2163  0.9927
 9316SOL    HW228527   5.210   0.389   2.597 -1.0331  0.1991 -2.3865
 9317SOL     OW28528   3.700   6.959   6.691  0.3833  0.6001 -0.8006
 9317SOL    HW128529   3.657   7.002   6.764 -1.5327 -1.9703 -0.2662
 9317SOL    HW228530   3.652   6.988   6.613 -0.6213 -0.1808 -0.4928
 9318SOL     OW28531   3.721   2.596   6.764 -0.1492  0.0918  0.6500
 9318SOL    HW128532   3.739   2.686   6.735  2.1948  0.0899  1.9013
 9318SOL    HW228533   3.636   2.602   6.808 -0.5555  1.4496 -0.2459
 9319SOL     OW28534   2.646   6.761   5.526  0.1527 -0.0707  0.4891
 9319SOL    HW128535   2.681   6.844   5.494  1.6437 -0.7009  0.4022
 9319SOL    HW228536   2.613   6.717   5.447 -1.0086  0.5655  0.5853
 9320SOL     OW28537   9.954   5.338   6.395 -0.0109  0.3487  0.0247
 9320SOL    HW128538   9.972   5.269   6.459  1.2018 -0.1303 -0.7967
 9320SOL    HW228539   9.904   5.403   6.444 -0.9917 -0.9938  0.8873
 9321SOL     OW28540   3.209   9.622   1.811 -0.0345  0.1189 -0.3085
 9321SOL    HW128541   3.212   9.631   1.906  0.0773  0.6987 -0.3667
 9321SOL    HW228542   3.276   9.683   1.779 -0.1487  0.0057 -0.7626
 9322SOL     OW28543   1.082   0.528   3.152  0.3262 -0.5118  0.2239
 9322SOL    HW128544   1.089   0.519   3.057 -0.5838 -2.6083  0.2994
 9322SOL    HW228545   1.164   0.490   3.185 -0.0332 -1.2102  0.3180
 9323SOL     OW28546   5.331   9.687   2.524  1.0436 -0.0992  0.4114
 9323SOL    HW128547   5.310   9.660   2.435 -1.1585 -2.8149  1.6233
 9323SOL    HW228548   5.416   9.647   2.542  0.8406 -0.7315 -0.0221
 9324SOL     OW28549   9.233   5.209   8.655 -0.1299  0.2259 -0.1940
 9324SOL    HW128550   9.218   5.141   8.590 -2.1743 -1.6713  2.0844
 9324SOL    HW228551   9.320   5.191   8.690 -0.8208 -1.6077  0.7043
 9325SOL     OW28552   7.761   4.851   0.519 -0.0470  0.3317  0.4958
 9325SOL    HW128553   7.777   4.879   0.429 -2.1626  1.2244  0.3336
 9325SOL    HW228554   7.768   4.932   0.570  0.5527 -0.0654  1.0462
 9326SOL     OW28555   0.178   5.135   8.479 -0.1041 -0.6060  0.0274
 9326SOL    HW128556   0.222   5.218   8.499 -1.6945  0.5039 -0.9066
 9326SOL    HW228557   0.093   5.142   8.522 -0.2209 -1.8231  0.0307
 9327SOL     OW28558   9.147   3.093   9.724 -0.1676 -0.6229  0.2914
 9327SOL    HW128559   9.197   3.011   9.722 -0.5739 -0.8766  0.3728
 9327SOL    HW228560   9.133   3.110   9.817 -0.3085 -0.6071  0.2682
 9328SOL     OW28561   0.331   9.173   2.634 -0.2234  0.6937 -0.0151
 9328SOL    HW128562   0.399   9.214   2.581 -0.7053  1.6007  0.0583
 9328SOL    HW228563   0.253   9.225   2.618 -0.5111  0.6580  1.1629
 9329SOL     OW28564   8.486   8.039   9.595  0.7453 -0.0535 -0.5606
 9329SOL    HW128565   8.429   8.094   9.648  0.1875  1.1635 -2.3207
 9329SOL    HW228566   8.545   8.101   9.550  0.9380 -0.9741 -1.6439
 9330SOL     OW28567   1.669   6.746   1.027  0.3505  0.2480  0.1767
 9330SOL    HW128568   1.722   6.736   0.948  2.8495  0.0709  1.7596
 9330SOL    HW228569   1.657   6.656   1.059 -1.2719  0.2543 -0.3497
 9331SOL     OW28570   6.816   1.471   5.958 -0.3626  0.3921  0.0019
 9331SOL    HW128571   6.885   1.489   5.895  2.3230 -2.9935  1.6073
 9331SOL    HW228572   6.766   1.399   5.918  0.8766 -1.2346  1.2162
 9332SOL     OW28573   3.088   1.792   5.826 -0.2553  0.3807  0.2333
 9332SOL    HW128574   2.995   1.810   5.838 -0.2372  0.6661 -0.0236
 9332SOL    HW228575   3.096   1.697   5.833 -0.4744  0.4074  0.8468
 9333SOL     OW28576   6.750   7.362   6.194 -0.3235  0.4889  0.2787
 9333SOL    HW128577   6.673   7.418   6.200  0.1472  1.4251 -1.7867
 9333SOL    HW228578   6.715   7.275   6.172 -0.7566  1.1570 -1.8154
 9334SOL     OW28579   4.617   8.482   2.153  0.2809  0.0874  0.6341
 9334SOL    HW128580   4.604   8.390   2.131 -0.2407  0.2522  0.2257
 9334SOL    HW228581   4.532   8.511   2.186  0.7651  0.1170  1.9135
 9335SOL     OW28582   9.013   2.460   5.655 -0.7312 -0.2315  0.1175
 9335SOL    HW128583   8.932   2.428   5.614 -0.3319 -0.1477 -0.7470
 9335SOL    HW228584   9.026   2.402   5.730 -0.7771 -1.2030 -0.6168
 9336SOL     OW28585   0.347   2.471   4.244 -0.0780 -0.6177  0.4460
 9336SOL    HW128586   0.278   2.408   4.224  0.8405 -1.1172 -1.4086
 9336SOL    HW228587   0.422   2.441   4.193  1.3932  0.1748  2.0271
 9337SOL     OW28588   9.900   9.268   7.235 -0.1371  0.3264 -0.7916
 9337SOL    HW128589   9.960   9.212   7.284 -0.9270 -0.4760 -0.7230
 9337SOL    HW228590   9.888   9.345   7.292 -0.4599 -0.2576 -0.0488
 9338SOL     OW28591   8.764   0.245   4.679  0.4552 -0.9180 -0.1176
 9338SOL    HW128592   8.771   0.150   4.682  0.6592 -0.9602 -1.3999
 9338SOL    HW228593   8.851   0.275   4.650  0.1541 -0.4086 -0.5230
 9339SOL     OW28594   2.892   9.486   7.749 -0.1125  0.5580  0.3978
 9339SOL    HW128595   2.971   9.539   7.744  1.4911 -1.7728 -1.0135
 9339SOL    HW228596   2.851   9.497   7.663 -0.1408  0.0540  0.3463
 9340SOL     OW28597   5.182   8.808   7.095  0.5941 -0.4505  0.1366
 9340SOL    HW128598   5.107   8.825   7.152  0.4643  0.2941 -0.2368
 9340SOL    HW228599   5.248   8.872   7.123  1.0783 -1.0731  0.4350
 9341SOL     OW28600   9.765   3.955   9.727  0.1520 -0.2294 -0.5730
 9341SOL    HW128601   9.818   3.879   9.752 -1.2992 -0.7228  1.2372
 9341SOL    HW228602   9.789   4.023   9.790 -0.2944  0.0290 -0.6778
 9342SOL     OW28603   6.935   7.728   0.858 -0.4292 -0.0503  0.1305
 9342SOL    HW128604   6.857   7.674   0.850 -0.7351  0.3983  0.0237
 9342SOL    HW228605   6.903   7.811   0.895  0.0917 -0.0861  0.6671
 9343SOL     OW28606   8.203   6.035   1.198  0.1693  0.2303 -0.1201
 9343SOL    HW128607   8.109   6.046   1.217  0.1266  0.2370 -0.3364
 9343SOL    HW228608   8.209   6.042   1.103  0.4324  0.5659 -0.0825
 9344SOL     OW28609   0.672   1.968   6.659  0.3579  0.8650 -0.1556
 9344SOL    HW128610   0.602   1.917   6.700 -0.5247 -0.4317 -2.9732
 9344SOL    HW228611   0.663   2.056   6.695 -1.7210  0.3454  0.7408
 9345SOL     OW28612   9.774   3.647   8.767  0.2624 -0.4281 -0.5490
 9345SOL    HW128613   9.772   3.562   8.722 -0.6166 -0.2375 -0.9092
 9345SOL    HW228614   9.860   3.651   8.808 -0.4087 -2.4277  1.2852
 9346SOL     OW28615   7.689   4.710   1.140  0.0115  0.3609  0.1204
 9346SOL    HW128616   7.761   4.766   1.111  1.0607 -1.4002 -0.8061
 9346SOL    HW228617   7.729   4.649   1.201 -0.4418 -1.2824 -1.1530
 9347SOL     OW28618   8.928   7.868   5.933  0.0060 -0.7820 -0.4433
 9347SOL    HW128619   8.875   7.812   5.989 -0.5323  0.1130 -0.0292
 9347SOL    HW228620   8.925   7.954   5.975 -0.2093 -0.1447 -1.7137
 9348SOL     OW28621   4.003   7.961   5.342 -0.0364 -0.0324 -0.3575
 9348SOL    HW128622   3.937   7.992   5.280  0.2377 -0.1848 -0.7292
 9348SOL    HW228623   4.081   7.945   5.288 -0.9286 -4.0725 -0.7646
 9349SOL     OW28624   9.560   3.624   9.862  0.2655  0.0066  0.2140
 9349SOL    HW128625   9.477   3.579   9.876  0.1066  0.3166  0.2663
 9349SOL    HW228626   9.590   3.593   9.777  1.1165 -1.7128  1.0791
 9350SOL     OW28627   2.421   3.596   0.960 -0.2566 -0.1175  0.7192
 9350SOL    HW128628   2.398   3.670   0.903  0.4172 -0.7348 -0.3926
 9350SOL    HW228629   2.516   3.594   0.959 -0.2694 -1.4698  0.0803
 9351SOL     OW28630   5.305   8.366   4.427  0.4852  0.4781  0.0828
 9351SOL    HW128631   5.385   8.387   4.378  1.0201 -0.8384  0.3545
 9351SOL    HW228632   5.336   8.325   4.508 -0.4561 -1.8073 -0.6358
 9352SOL     OW28633   1.715   3.365   2.548 -0.5268  0.1049 -0.1586
 9352SOL    HW128634   1.676   3.403   2.627 -1.9475 -1.4500 -0.0622
 9352SOL    HW228635   1.756   3.440   2.504  0.1605  1.0665  1.9208
 9353SOL     OW28636   0.076   3.040   4.226  1.2786 -0.6181  0.0880
 9353SOL    HW128637  -0.018   3.032   4.242  0.7717  0.7300 -1.9125
 9353SOL    HW228638   0.116   3.037   4.313 -0.6810 -0.3044  1.0418
 9354SOL     OW28639   5.310   4.618   6.420  0.2190 -0.4873  0.4063
 9354SOL    HW128640   5.385   4.675   6.401 -0.7542  0.1832 -1.7467
 9354SOL    HW228641   5.235   4.678   6.421 -0.8716 -1.6745 -2.1098
 9355SOL     OW28642   0.015   8.584   5.461  0.3759 -0.3863  0.0184
 9355SOL    HW128643   0.087   8.646   5.450  1.3132 -1.5814 -0.7939
 9355SOL    HW228644  -0.019   8.603   5.549  1.0757  0.8021  0.0556
 9356SOL     OW28645   8.725   6.547   3.722  0.4502  0.9102 -0.4398
 9356SOL    HW128646   8.631   6.561   3.730  0.3595 -0.2699  1.0106
 9356SOL    HW228647   8.760   6.633   3.699 -0.9826  1.3386 -1.1051
 9357SOL     OW28648   4.461   2.721   8.987  0.0550  0.1910  0.5426
 9357SOL    HW128649   4.458   2.784   8.915  0.4423  0.3951  0.7028
 9357SOL    HW228650   4.381   2.669   8.977 -1.2021  1.8522  1.4416
 9358SOL     OW28651   8.319   5.010   7.846 -0.2460 -0.3186  0.5265
 9358SOL    HW128652   8.376   5.078   7.808  0.4145 -0.9082  0.4396
 9358SOL    HW228653   8.355   4.996   7.933  1.0200 -2.1111 -0.2304
 9359SOL     OW28654   6.850   9.040   2.903 -0.5719  0.0616  0.3107
 9359SOL    HW128655   6.831   8.947   2.914  0.1243 -0.1644 -0.3015
 9359SOL    HW228656   6.765   9.083   2.911 -0.7647 -0.5292  1.5362
 9360SOL     OW28657   1.115   4.932   7.936  0.4959 -0.0717  0.0394
 9360SOL    HW128658   1.146   4.915   7.847 -0.1814 -0.1528 -0.1885
 9360SOL    HW228659   1.103   5.027   7.940  2.6571  0.2361  0.7738
 9361SOL     OW28660   7.733   7.836   7.687 -0.1500  0.1550 -0.0391
 9361SOL    HW128661   7.672   7.909   7.690 -0.6386 -0.2547  0.2038
 9361SOL    HW228662   7.759   7.830   7.596 -1.5485 -0.5188 -0.4343
 9362SOL     OW28663   8.869   7.102   8.096 -0.0434  0.0324  0.4081
 9362SOL    HW128664   8.859   7.030   8.034  1.8104 -0.0889  0.1904
 9362SOL    HW228665   8.818   7.174   8.058 -1.5663 -1.0111  0.4128
 9363SOL     OW28666   3.632   6.185   8.104 -0.0114 -0.2415 -0.0610
 9363SOL    HW128667   3.657   6.170   8.195 -1.3911 -1.5100  0.1325
 9363SOL    HW228668   3.641   6.100   8.061  0.5061  0.3095 -1.1081
 9364SOL     OW28669   0.157   4.358   7.043  0.3658 -0.1156  0.5757
 9364SOL    HW128670   0.078   4.397   7.081  0.4530 -0.2432  0.8892
 9364SOL    HW228671   0.131   4.269   7.020 -0.1315  0.4212 -1.0802
 9365SOL     OW28672   1.836   9.087   2.929 -0.4857  0.1760 -0.1097
 9365SOL    HW128673   1.794   9.045   3.004  0.2647 -1.1911 -0.4228
 9365SOL    HW228674   1.883   9.161   2.967  0.2599 -0.7645  0.8549
 9366SOL     OW28675   5.502   9.385   4.719 -0.2242  0.1141  0.4074
 9366SOL    HW128676   5.461   9.448   4.779  1.3640  1.4746  0.1587
 9366SOL    HW228677   5.431   9.327   4.693 -0.9230 -0.7842  3.8539
 9367SOL     OW28678   5.189   1.842   0.584 -0.3973 -0.0365  0.0765
 9367SOL    HW128679   5.280   1.853   0.612  0.4465 -1.7435 -1.7462
 9367SOL    HW228680   5.176   1.747   0.582 -0.5665 -0.1052 -4.4246
 9368SOL     OW28681   1.460   7.131   4.713 -0.0806  0.2589  1.0467
 9368SOL    HW128682   1.541   7.140   4.763 -0.0979  0.6611  1.0008
 9368SOL    HW228683   1.461   7.204   4.651 -0.2894  0.0383  0.7778
 9369SOL     OW28684   9.028   4.980   3.202 -0.1766 -0.2928  0.0706
 9369SOL    HW128685   8.965   5.021   3.144  0.1742  0.2216  0.0371
 9369SOL    HW228686   9.002   5.010   3.290  1.7877  2.5199 -0.1472
 9370SOL     OW28687   5.891   0.056   9.575 -0.6450 -0.3027  0.3203
 9370SOL    HW128688   5.872   0.064   9.481  0.0315  1.2115  0.2814
 9370SOL    HW228689   5.810   0.023   9.613 -1.2883  0.0972 -0.6581
 9371SOL     OW28690   1.730   5.885   7.070  0.5464  0.5546 -0.3914
 9371SOL    HW128691   1.787   5.827   7.121 -0.1853  0.1452 -0.0162
 9371SOL    HW228692   1.707   5.956   7.131 -1.7614 -0.8465  0.5101
 9372SOL     OW28693   8.240   4.128   2.366 -0.6104  0.1752  0.1441
 9372SOL    HW128694   8.224   4.191   2.437 -0.4687  0.9026 -0.4522
 9372SOL    HW228695   8.279   4.181   2.296  0.4398 -0.7717 -0.0100
 9373SOL     OW28696   7.007   3.566   1.989 -0.2192  0.5348 -0.0845
 9373SOL    HW128697   6.957   3.608   1.919 -1.3931  1.0982  1.0592
 9373SOL    HW228698   7.098   3.571   1.960 -0.7365  0.1478 -1.8754
 9374SOL     OW28699   8.317   2.018   3.804 -0.8266  0.6005 -0.1772
 9374SOL    HW128700   8.393   2.060   3.842 -0.6600  0.2497 -0.1234
 9374SOL    HW228701   8.345   1.929   3.785 -1.0963  0.5878 -0.5390
 9375SOL     OW28702   5.405   2.972   8.407 -0.6470  0.4511  0.0394
 9375SOL    HW128703   5.410   3.041   8.473 -0.9782  1.4101 -0.8949
 9375SOL    HW228704   5.437   3.014   8.327  0.1662 -0.8063 -0.3209
 9376SOL     OW28705   3.440   3.675   9.510  0.5152  0.3566  0.4247
 9376SOL    HW128706   3.479   3.740   9.452  0.2678  1.1769  1.1477
 9376SOL    HW228707   3.351   3.664   9.478  0.0310  1.6196  1.2718
 9377SOL     OW28708   5.369   7.170   5.741 -0.3735  0.2194  0.4957
 9377SOL    HW128709   5.361   7.152   5.647  2.1203 -0.2604  0.3255
 9377SOL    HW228710   5.281   7.153   5.776 -1.2043 -0.1578 -1.6377
 9378SOL     OW28711   3.525   2.534   9.514  0.2910  0.6147  0.7592
 9378SOL    HW128712   3.465   2.592   9.561 -2.7536  0.3107 -2.3576
 9378SOL    HW228713   3.599   2.590   9.491 -0.0212  1.7830  2.4220
 9379SOL     OW28714   2.878   1.077   8.930  0.2047 -0.4241 -0.4390
 9379SOL    HW128715   2.869   1.076   9.025 -2.0514 -1.6253 -0.5900
 9379SOL    HW228716   2.949   1.015   8.912 -0.6078 -1.6497  0.4183
 9380SOL     OW28717   9.767   5.317   2.540  0.1376 -0.0237  0.3488
 9380SOL    HW128718   9.786   5.232   2.499 -2.8243 -0.3670 -0.5115
 9380SOL    HW228719   9.686   5.303   2.587  0.2130  2.0655  1.1846
 9381SOL     OW28720   8.521   2.746   3.745  0.2473  0.2604 -0.3979
 9381SOL    HW128721   8.610   2.775   3.766 -0.2412  1.1301  0.6050
 9381SOL    HW228722   8.488   2.810   3.682 -0.0243  0.5423  0.0270
 9382SOL     OW28723   5.930   7.772   1.064  0.1756  0.3735  0.3084
 9382SOL    HW128724   5.863   7.830   1.028 -0.9687 -1.2571 -0.3525
 9382SOL    HW228725   5.885   7.724   1.133  0.6155 -0.8119 -0.1994
 9383SOL     OW28726   1.579   5.253   4.824  0.2920 -0.4301 -0.0689
 9383SOL    HW128727   1.596   5.252   4.919  2.0390  0.0143 -0.3462
 9383SOL    HW228728   1.499   5.201   4.814 -1.2583  1.3863  1.8706
 9384SOL     OW28729   8.017   9.615   0.636  0.2994 -0.4635  0.2995
 9384SOL    HW128730   8.045   9.543   0.692  0.8738  0.0932  0.7382
 9384SOL    HW228731   8.065   9.603   0.555  1.1288 -0.0450  0.7146
 9385SOL     OW28732   0.074   4.743   7.912  0.0766 -0.0663  0.0014
 9385SOL    HW128733  -0.004   4.774   7.957  0.4329 -0.2473  0.7625
 9385SOL    HW228734   0.048   4.658   7.875 -0.4950  0.5073 -0.9408
 9386SOL     OW28735   0.239   9.362   7.109  0.4875  0.1170  0.6289
 9386SOL    HW128736   0.196   9.325   7.032 -0.0320 -0.2030  1.0656
 9386SOL    HW228737   0.267   9.286   7.159  2.4005  0.2995 -0.0850
 9387SOL     OW28738   4.462   1.739   4.499 -0.0191  0.3775 -0.0597
 9387SOL    HW128739   4.436   1.647   4.507 -0.2822  0.5996  2.3002
 9387SOL    HW228740   4.384   1.784   4.466 -0.3814 -0.0001  0.2927
 9388SOL     OW28741   2.434   8.005   7.683  0.4506 -0.0528 -0.1886
 9388SOL    HW128742   2.430   8.021   7.588 -3.2767  2.0663  0.1184
 9388SOL    HW228743   2.472   8.085   7.719  1.4755 -0.6862  0.1741
 9389SOL     OW28744   6.733   9.566   9.769 -0.3396  0.2101 -0.5308
 9389SOL    HW128745   6.812   9.614   9.794 -0.2092 -0.5630  0.6254
 9389SOL    HW228746   6.667   9.634   9.753 -0.7227  0.8107  2.9052
 9390SOL     OW28747   1.757   5.804   5.050  0.1556  0.5312  0.0391
 9390SOL    HW128748   1.702   5.836   4.978  1.2312  2.2817 -0.0778
 9390SOL    HW228749   1.840   5.852   5.039  0.8115 -0.1673  1.6718
 9391SOL     OW28750   8.841   8.769   4.564  0.0442 -0.2579  0.2743
 9391SOL    HW128751   8.856   8.694   4.507  0.0431 -0.2891  0.3144
 9391SOL    HW228752   8.923   8.818   4.562 -0.9246  1.4782 -2.2631
 9392SOL     OW28753   8.130   6.711   7.133 -0.0155  0.7771 -0.0759
 9392SOL    HW128754   8.107   6.658   7.209 -1.2112  1.7046  0.2349
 9392SOL    HW228755   8.221   6.688   7.115 -0.5007 -1.4274 -0.0197
 9393SOL     OW28756   9.223   2.407   4.948 -0.2766  0.2767 -0.4452
 9393SOL    HW128757   9.259   2.437   4.864 -0.8748 -1.1754 -1.2355
 9393SOL    HW228758   9.132   2.387   4.930 -0.7080  0.9610  0.8278
 9394SOL     OW28759   8.876   2.841   9.636 -0.7196  0.2629 -0.0185
 9394SOL    HW128760   8.784   2.817   9.650 -0.8466 -0.5534 -1.8726
 9394SOL    HW228761   8.913   2.850   9.724 -1.7796 -2.6181  0.8321
 9395SOL     OW28762   2.644   1.064   6.984 -0.2854  0.0724 -0.4003
 9395SOL    HW128763   2.691   1.091   7.063 -0.2687  1.2466 -0.7898
 9395SOL    HW228764   2.551   1.073   7.006 -0.4130 -2.5739  0.4823
 9396SOL     OW28765   8.043   8.171   7.744  0.1639 -0.1486  0.6895
 9396SOL    HW128766   8.074   8.220   7.820  1.3127  1.7701 -0.8817
 9396SOL    HW228767   8.114   8.181   7.680 -1.3458 -0.4685 -1.1085
 9397SOL     OW28768   4.327   2.634   8.029 -0.2497  0.1691  0.5867
 9397SOL    HW128769   4.414   2.602   8.005 -0.0459  1.1260 -0.0251
 9397SOL    HW228770   4.270   2.558   8.022  0.0994  0.0369 -1.4474
 9398SOL     OW28771   9.454   3.420   6.146 -0.6619 -0.4949 -0.4033
 9398SOL    HW128772   9.545   3.412   6.118 -0.2377  1.1494  0.3895
 9398SOL    HW228773   9.457   3.413   6.242 -1.2710  0.2624 -0.3161
 9399SOL     OW28774   9.088   6.834   5.377 -0.1334  0.0671 -0.0164
 9399SOL    HW128775   9.014   6.867   5.328  0.4884 -0.1092 -1.1078
 9399SOL    HW228776   9.049   6.790   5.453 -1.0661  1.0457  0.0865
 9400SOL     OW28777   8.598   8.555   6.131  0.8673 -0.3204 -0.0960
 9400SOL    HW128778   8.670   8.552   6.069  0.2463  0.7305 -0.9147
 9400SOL    HW228779   8.640   8.555   6.217  1.7581 -1.4316 -0.5141
 9401SOL     OW28780   7.623   1.004   3.948  0.1521 -0.3200  0.2668
 9401SOL    HW128781   7.635   1.033   3.858 -0.2590 -1.2853 -0.1136
 9401SOL    HW228782   7.640   1.082   4.001  1.7242 -0.0556 -0.5584
 9402SOL     OW28783   7.856   0.962   9.624  0.7168  0.1833 -0.5653
 9402SOL    HW128784   7.805   1.041   9.612 -1.9245 -1.2911  0.2176
 9402SOL    HW228785   7.933   0.990   9.674 -1.6186  1.8176  2.3911
 9403SOL     OW28786   6.824   3.122   0.905 -0.2903 -0.2062  0.3116
 9403SOL    HW128787   6.849   3.139   0.996  0.9464  0.1571 -0.0779
 9403SOL    HW228788   6.745   3.068   0.912 -0.5910  0.3469  1.5913
 9404SOL     OW28789   7.083   8.833   7.218  0.0382 -0.1326 -0.6895
 9404SOL    HW128790   7.142   8.824   7.143  1.0760  0.6304  0.0114
 9404SOL    HW228791   7.017   8.764   7.205  0.3957 -0.2409 -2.1048
 9405SOL     OW28792   7.087   2.611   8.773  0.2624 -0.4870 -0.1287
 9405SOL    HW128793   7.110   2.590   8.863  0.1241  1.1642  0.3250
 9405SOL    HW228794   7.171   2.612   8.726  0.5488  0.4139  0.3844
 9406SOL     OW28795   4.553   2.977   7.594  0.5330  0.4080 -0.4280
 9406SOL    HW128796   4.523   2.986   7.503 -1.3659  0.7118  0.1878
 9406SOL    HW228797   4.500   3.039   7.643  3.7689  2.7445  0.5116
 9407SOL     OW28798   4.400   5.334   3.521  0.2849 -0.1668 -0.2064
 9407SOL    HW128799   4.349   5.267   3.567 -0.9389  0.9953  0.1988
 9407SOL    HW228800   4.444   5.286   3.450 -1.6274 -1.1886 -0.7684
 9408SOL     OW28801   6.991   3.115   4.199 -0.5078 -0.0302  0.0419
 9408SOL    HW128802   6.908   3.118   4.152 -1.3787 -0.4159  1.4943
 9408SOL    HW228803   6.982   3.181   4.268  0.5990  0.2729 -0.0771
 9409SOL     OW28804   8.340   9.127   2.133  0.0012  0.1865  0.1251
 9409SOL    HW128805   8.353   9.218   2.160 -1.0053 -0.1449  1.8501
 9409SOL    HW228806   8.347   9.130   2.037  1.8346  1.7412  0.2423
 9410SOL     OW28807   2.179   3.193   0.298 -0.1254 -0.3943  0.3610
 9410SOL    HW128808   2.088   3.170   0.319 -0.3483  0.7231  0.7112
 9410SOL    HW228809   2.172   3.274   0.247  0.7045  0.1414  1.0684
 9411SOL     OW28810   3.793   7.982   1.218 -0.5436 -0.0419  0.1036
 9411SOL    HW128811   3.703   7.968   1.247 -1.0376  0.9506 -0.8617
 9411SOL    HW228812   3.839   7.902   1.241 -0.5843  0.9629  4.5573
 9412SOL     OW28813   5.018   6.983   6.822 -0.1022  0.3294 -0.5619
 9412SOL    HW128814   5.039   7.012   6.911 -0.9300  1.5776 -0.7420
 9412SOL    HW228815   5.101   6.991   6.775 -0.2916  2.6846 -0.6328
 9413SOL     OW28816   9.497   7.443   0.233 -0.1747 -0.3278 -0.0756
 9413SOL    HW128817   9.432   7.484   0.289 -0.2395  1.5171 -1.4170
 9413SOL    HW228818   9.556   7.398   0.293  0.6339  2.7750  1.6345
 9414SOL     OW28819   9.600   6.344   6.852  0.5621  0.1251 -0.0489
 9414SOL    HW128820   9.680   6.300   6.880 -0.0332 -0.3965  0.8731
 9414SOL    HW228821   9.569   6.390   6.931 -0.3964 -0.2338 -0.1967
 9415SOL     OW28822   4.755   5.709   3.240 -0.4632  0.4438  0.1491
 9415SOL    HW128823   4.845   5.734   3.216 -0.3139 -0.8153 -0.7419
 9415SOL    HW228824   4.714   5.687   3.156  0.1553 -4.4965  0.8141
 9416SOL     OW28825   7.043   0.438   2.752 -0.1403  0.0330 -0.1675
 9416SOL    HW128826   6.982   0.494   2.800  0.9510  1.5389 -0.4809
 9416SOL    HW228827   7.066   0.489   2.674  0.6614 -0.9808 -0.6139
 9417SOL     OW28828   6.363   4.999   2.294 -0.3189 -0.3466 -0.1692
 9417SOL    HW128829   6.336   5.051   2.370 -0.3560  0.6840 -0.8652
 9417SOL    HW228830   6.458   4.989   2.305 -0.7330 -3.0352  1.7032
 9418SOL     OW28831   2.316   4.238   5.844  0.3865  0.4764 -0.2603
 9418SOL    HW128832   2.357   4.185   5.776  0.1160 -0.2889  0.1645
 9418SOL    HW228833   2.222   4.224   5.832  0.3111  0.9409 -0.2103
 9419SOL     OW28834   9.842   5.606   8.000 -0.5865  0.0650  0.3518
 9419SOL    HW128835   9.937   5.611   7.988 -0.7815  1.3291 -0.9155
 9419SOL    HW228836   9.831   5.560   8.084  1.0785 -2.0494 -0.5064
 9420SOL     OW28837   1.111   0.176   6.934  0.9950 -0.2163 -0.0293
 9420SOL    HW128838   1.119   0.192   6.840 -0.6495  0.1974 -0.1274
 9420SOL    HW228839   1.095   0.263   6.971  1.6274 -0.3822  0.6341
 9421SOL     OW28840   4.908   9.050   2.628  0.4159  0.0354 -0.2773
 9421SOL    HW128841   4.839   8.998   2.669  0.4615 -0.1906 -0.4865
 9421SOL    HW228842   4.963   9.080   2.700 -0.5999  1.2427  0.0315
 9422SOL     OW28843   5.551   9.106   6.492 -0.2257 -0.0187 -0.5488
 9422SOL    HW128844   5.459   9.130   6.501 -0.5954 -1.6686  0.5290
 9422SOL    HW228845   5.556   9.063   6.406 -0.8465 -1.3596  0.0524
 9423SOL     OW28846   0.912   5.939   5.377  0.3334  0.0760  0.1432
 9423SOL    HW128847   0.960   6.013   5.340  0.2800 -0.2970 -0.6925
 9423SOL    HW228848   0.832   5.934   5.325  1.3205 -1.9116 -1.3204
 9424SOL     OW28849   5.572   8.367   4.869 -0.1306  0.0591  0.4602
 9424SOL    HW128850   5.567   8.376   4.965 -1.3746  0.5882  0.3677
 9424SOL    HW228851   5.618   8.446   4.840 -2.3239  1.4040  0.4286
 9425SOL     OW28852   2.498   4.478   3.226 -0.4998  0.0432 -0.5940
 9425SOL    HW128853   2.424   4.427   3.192  0.5770 -1.8036 -0.2725
 9425SOL    HW228854   2.476   4.493   3.318 -0.5065 -0.4664 -0.5083
 9426SOL     OW28855   9.588   7.415   3.073  0.2322  0.3063 -0.4999
 9426SOL    HW128856   9.671   7.375   3.096 -0.7284 -0.5288  1.7567
 9426SOL    HW228857   9.550   7.357   3.006  0.1450 -0.9994  0.6484
 9427SOL     OW28858   0.644   2.179   6.814  0.0931  0.1538  0.6763
 9427SOL    HW128859   0.659   2.272   6.798 -0.0728 -0.0298 -0.6404
 9427SOL    HW228860   0.549   2.172   6.824  0.1236  0.1513  0.9709
 9428SOL     OW28861   2.094   6.359   1.384  0.4537 -0.3494  0.0372
 9428SOL    HW128862   2.082   6.426   1.316 -0.4528 -2.6658 -2.2539
 9428SOL    HW228863   2.121   6.408   1.462  1.3294  2.4911 -1.9037
 9429SOL     OW28864   9.599   3.638   8.448 -0.3090  0.3266  0.5802
 9429SOL    HW128865   9.529   3.578   8.423  0.8612 -0.4362 -1.0615
 9429SOL    HW228866   9.638   3.597   8.525 -0.5506 -0.1722  0.4427
 9430SOL     OW28867   0.094   0.905   9.136  0.3107  0.2363  0.4849
 9430SOL    HW128868   0.030   0.913   9.066 -0.3704  1.6958  1.2312
 9430SOL    HW228869   0.043   0.870   9.210  0.7862 -0.2875  0.5727
 9431SOL     OW28870   8.282   9.072   7.497  0.6308  0.3624  0.4520
 9431SOL    HW128871   8.269   9.040   7.408 -0.5695 -1.7641  1.3021
 9431SOL    HW228872   8.199   9.113   7.520  0.7488  0.4208  0.7838
 9432SOL     OW28873   5.603   4.628   4.902 -0.4312 -0.4097 -0.1187
 9432SOL    HW128874   5.589   4.560   4.836 -0.1324 -0.0471 -0.5596
 9432SOL    HW228875   5.536   4.693   4.885  0.1001  0.0386 -0.5382
 9433SOL     OW28876   5.275   1.271   0.174 -0.6928  0.3801 -0.2289
 9433SOL    HW128877   5.247   1.301   0.088 -0.8908 -0.0741 -0.3267
 9433SOL    HW228878   5.202   1.218   0.206 -0.1471 -0.4331 -0.2929
 9434SOL     OW28879   1.150   1.468   6.206  0.4287 -0.3707  0.0561
 9434SOL    HW128880   1.177   1.382   6.237  0.9298  0.0780  0.8848
 9434SOL    HW228881   1.095   1.503   6.275  0.3498  0.0433 -0.2119
 9435SOL     OW28882   8.642   0.477   9.817  0.0027  0.0453 -0.2071
 9435SOL    HW128883   8.623   0.398   9.867 -1.1953  0.5320  0.1214
 9435SOL    HW228884   8.678   0.538   9.881  0.4010 -0.0231 -0.3565
 9436SOL     OW28885   6.898   1.444   7.500 -0.4436 -0.3764  0.0793
 9436SOL    HW128886   6.955   1.395   7.440  0.2107 -1.2101  1.3241
 9436SOL    HW228887   6.810   1.415   7.479 -0.1522 -1.2877  0.0664
 9437SOL     OW28888   4.811   0.981   3.834 -0.2998 -0.0939 -0.1682
 9437SOL    HW128889   4.878   1.036   3.873 -1.9340  2.7716 -1.1165
 9437SOL    HW228890   4.746   0.969   3.904  0.0273 -0.8657  0.0214
 9438SOL     OW28891   4.559   4.563   0.499 -0.1773  0.1740  0.3830
 9438SOL    HW128892   4.638   4.610   0.475  0.4436 -0.0120  1.9126
 9438SOL    HW228893   4.591   4.482   0.539 -1.2085 -1.4064 -1.8383
 9439SOL     OW28894   9.174   1.596   1.867  0.1095  0.1296 -0.6390
 9439SOL    HW128895   9.161   1.683   1.830  0.3609  0.4828  0.0889
 9439SOL    HW228896   9.247   1.559   1.818 -0.1243  0.2548 -1.0810
 9440SOL     OW28897   1.606   6.784   0.452 -0.4332  0.1281 -0.2535
 9440SOL    HW128898   1.691   6.746   0.433  0.3222  2.7023 -2.7276
 9440SOL    HW228899   1.546   6.740   0.392  0.1273  1.5741 -1.9393
 9441SOL     OW28900   3.935   3.188   4.597  0.1614 -0.4777  0.2078
 9441SOL    HW128901   4.029   3.204   4.593  0.3808 -1.2893  1.7666
 9441SOL    HW228902   3.919   3.124   4.528  0.5338  0.4717 -0.8118
 9442SOL     OW28903   0.861   6.934   3.617 -0.4168  0.4023  0.1722
 9442SOL    HW128904   0.914   6.884   3.555 -1.3502 -0.0973 -0.2358
 9442SOL    HW228905   0.922   6.956   3.687 -0.1399 -2.0593  0.8165
 9443SOL     OW28906   4.034   6.450   0.648  0.4032  0.5973 -0.9355
 9443SOL    HW128907   4.053   6.410   0.562  1.6094  1.1901 -0.9620
 9443SOL    HW228908   3.939   6.456   0.651  0.2844 -0.5603 -1.7201
 9444SOL     OW28909   6.959   4.510   5.261  0.3549 -0.2627  0.1392
 9444SOL    HW128910   6.930   4.599   5.283  0.8369  0.0739 -0.5290
 9444SOL    HW228911   6.894   4.453   5.301 -0.3420  0.4196  0.0071
 9445SOL     OW28912   2.995   9.205   8.162  0.2854  0.2657  0.1050
 9445SOL    HW128913   2.997   9.235   8.071  0.5429 -1.3335 -0.4474
 9445SOL    HW228914   3.085   9.219   8.193  1.0267 -1.9700 -0.8767
 9446SOL     OW28915   6.568   8.861   6.231  0.0247 -0.4212 -0.0749
 9446SOL    HW128916   6.528   8.805   6.297 -1.0652  0.1409 -0.2245
 9446SOL    HW228917   6.608   8.801   6.168  1.1888 -0.9571  1.1373
 9447SOL     OW28918   0.650   0.139   8.020  0.6929  0.1042  0.1170
 9447SOL    HW128919   0.612   0.077   7.957 -0.9689  1.4073 -0.2557
 9447SOL    HW228920   0.621   0.107   8.105  1.2100 -0.5251  0.0606
 9448SOL     OW28921   0.076   8.510   3.668 -0.0339  0.1770  0.4602
 9448SOL    HW128922   0.098   8.419   3.646 -0.4462  0.1098  0.3053
 9448SOL    HW228923   0.158   8.547   3.701  0.3218 -0.0499 -0.1324
 9449SOL     OW28924   2.036   5.320   1.799  0.5792 -0.3367 -0.3567
 9449SOL    HW128925   2.019   5.412   1.819 -1.8738 -0.4077 -1.7362
 9449SOL    HW228926   2.002   5.272   1.874 -2.6219 -0.2647 -1.5891
 9450SOL     OW28927   0.851   0.452   9.683 -0.3730 -0.4054  0.3354
 9450SOL    HW128928   0.923   0.389   9.687 -1.1273 -1.4964 -1.6267
 9450SOL    HW228929   0.894   0.536   9.664  0.5008 -0.6875  1.0283
 9451SOL     OW28930   5.655   1.826   8.818 -0.2070 -0.1490  0.1653
 9451SOL    HW128931   5.632   1.886   8.747 -0.6376  0.1691  0.5713
 9451SOL    HW228932   5.641   1.739   8.781  0.6774 -0.0274 -0.5207
 9452SOL     OW28933   3.978   0.113   3.682 -0.7345 -0.2238  0.4643
 9452SOL    HW128934   4.046   0.104   3.750 -0.6500 -0.4986  0.3456
 9452SOL    HW228935   4.024   0.150   3.607 -0.7656 -0.1932  0.4604
 9453SOL     OW28936   9.228   9.840   8.995 -0.1902  0.0494  0.3426
 9453SOL    HW128937   9.204   9.788   9.072 -0.7098 -0.4609 -0.1511
 9453SOL    HW228938   9.324   9.838   8.994 -0.1816 -1.9832 -0.3391
 9454SOL     OW28939   9.876   7.457   8.977  0.5245  0.4008  0.4099
 9454SOL    HW128940   9.833   7.526   8.928 -0.1286 -1.0983 -1.2283
 9454SOL    HW228941   9.962   7.448   8.936 -0.1007 -0.9977 -0.6529
 9455SOL     OW28942   4.625   9.332   5.557  0.4371  0.2035 -0.4291
 9455SOL    HW128943   4.700   9.280   5.585 -1.2148 -1.6687  0.8722
 9455SOL    HW228944   4.584   9.360   5.640 -2.0322 -1.5530 -0.9608
 9456SOL     OW28945   0.747   5.414   2.833  0.1840 -0.5310 -0.8553
 9456SOL    HW128946   0.783   5.347   2.775  1.5799  0.5953 -1.3617
 9456SOL    HW228947   0.820   5.438   2.890  0.0007  1.1400 -1.2590
 9457SOL     OW28948   7.326   0.961   9.463  0.1411 -0.2893 -0.4618
 9457SOL    HW128949   7.411   0.933   9.427  0.3390  0.6448 -0.7582
 9457SOL    HW228950   7.263   0.901   9.425  0.6621 -0.9335 -0.3221
 9458SOL     OW28951   6.615   6.920   2.374  0.8167  0.4221  0.2739
 9458SOL    HW128952   6.542   6.864   2.347  0.5390  0.9981 -0.1833
 9458SOL    HW228953   6.653   6.952   2.292  1.4239  0.3381  0.5140
 9459SOL     OW28954   9.557   3.374   6.436  0.0594  0.8615  0.2261
 9459SOL    HW128955   9.485   3.413   6.484 -1.6463 -0.0880 -1.4197
 9459SOL    HW228956   9.588   3.302   6.492 -0.1158  1.4085  1.0378
 9460SOL     OW28957   8.863   6.138   2.366  0.1235 -0.5145 -0.1493
 9460SOL    HW128958   8.863   6.126   2.271  0.7787  2.1411 -0.5848
 9460SOL    HW228959   8.786   6.194   2.383 -0.0638 -1.0728  0.9089
 9461SOL     OW28960   5.432   0.002   8.528 -0.0642  0.3739  0.6740
 9461SOL    HW128961   5.404   0.068   8.591 -1.7154 -0.1184  0.5192
 9461SOL    HW228962   5.485  -0.059   8.580  0.0955  0.9366  1.1836
 9462SOL     OW28963   3.875   7.335   6.688 -0.4104  0.0243 -0.0416
 9462SOL    HW128964   3.902   7.421   6.721  0.4709 -0.0184 -0.6172
 9462SOL    HW228965   3.780   7.339   6.688 -0.4220  0.5067  1.2215
 9463SOL     OW28966   2.379   4.439   1.607 -0.4779  0.0129 -0.0124
 9463SOL    HW128967   2.384   4.519   1.553  0.8797 -0.4524 -0.6348
 9463SOL    HW228968   2.397   4.368   1.545  0.0777 -0.6272  0.8701
 9464SOL     OW28969   2.475   0.271   1.826  0.5045 -0.0989 -0.4248
 9464SOL    HW128970   2.394   0.269   1.776  1.0425 -0.1544 -1.3264
 9464SOL    HW228971   2.470   0.197   1.885 -0.9969  1.0757  1.0026
 9465SOL     OW28972   5.501   9.217   8.788 -0.4254  0.1158 -0.2322
 9465SOL    HW128973   5.496   9.142   8.730  0.9645  0.9092 -1.4470
 9465SOL    HW228974   5.495   9.179   8.876  1.2604 -1.5637 -0.7598
 9466SOL     OW28975   0.220   6.422   4.488 -0.3524 -0.1985  0.3311
 9466SOL    HW128976   0.238   6.513   4.513 -1.8312  0.2481 -0.0731
 9466SOL    HW228977   0.265   6.411   4.404 -0.4904  0.3031  0.1835
 9467SOL     OW28978   0.058   0.074   4.418  0.5175 -0.2317  0.0572
 9467SOL    HW128979  -0.012   0.095   4.480 -0.7684  1.9277 -1.9490
 9467SOL    HW228980   0.139   0.099   4.463 -0.5476  4.5935 -0.1559
 9468SOL     OW28981   8.630   4.474   4.377 -0.7245  0.0578 -0.2838
 9468SOL    HW128982   8.545   4.434   4.392  0.0451 -0.7130  2.5803
 9468SOL    HW228983   8.610   4.559   4.337 -2.6321 -1.1402 -2.0785
 9469SOL     OW28984   9.837   7.748   9.087 -0.2098  0.1367 -0.1699
 9469SOL    HW128985   9.881   7.702   9.159  2.0831 -0.7507 -2.0281
 9469SOL    HW228986   9.746   7.718   9.093  0.0706 -0.5046  1.8509
 9470SOL     OW28987   3.275   6.320   5.474  0.1443  0.3903 -0.3428
 9470SOL    HW128988   3.318   6.265   5.540  1.7568  2.2515  0.2550
 9470SOL    HW228989   3.181   6.312   5.494  0.5751  0.8575  2.2108
 9471SOL     OW28990   9.682   6.856   4.888 -0.1106 -0.2386 -0.1561
 9471SOL    HW128991   9.618   6.800   4.930 -2.0019  1.4196 -0.6236
 9471SOL    HW228992   9.735   6.797   4.835  0.2578 -1.9458  1.9939
 9472SOL     OW28993   2.122   8.194   0.531  0.0690 -0.0952  0.0614
 9472SOL    HW128994   2.051   8.188   0.467  0.2305 -2.7481  0.0277
 9472SOL    HW228995   2.078   8.190   0.616  0.1004 -2.8107  0.0531
 9473SOL     OW28996   4.945   8.192   5.289  0.2455 -0.2358 -0.2902
 9473SOL    HW128997   5.010   8.247   5.245 -1.1380  1.2013 -0.6343
 9473SOL    HW228998   4.953   8.214   5.382  1.3347 -1.2847 -0.1119
 9474SOL     OW28999   7.452   7.926   7.865 -0.1580  0.0269 -0.0002
 9474SOL    HW129000   7.475   8.013   7.834  0.8313 -0.2161  0.0231
 9474SOL    HW229001   7.532   7.875   7.855 -0.9952 -1.1391 -0.9217
 9475SOL     OW29002   0.731   8.931   0.061 -0.4280  0.9488  0.0439
 9475SOL    HW129003   0.738   8.879  -0.019 -0.3228  2.5965 -1.0758
 9475SOL    HW229004   0.814   8.918   0.107 -1.0382 -1.1469  0.6639
 9476SOL     OW29005   5.809   7.792   6.559  0.3753  0.3922 -0.1948
 9476SOL    HW129006   5.885   7.844   6.583 -0.2205  1.3880 -0.3823
 9476SOL    HW229007   5.735   7.852   6.570 -0.6595 -1.1991  2.1650
 9477SOL     OW29008   6.218   1.430   3.263 -0.2372  0.3890  0.2933
 9477SOL    HW129009   6.268   1.351   3.243  0.7873  0.7495  1.3189
 9477SOL    HW229010   6.146   1.400   3.319  0.1306  0.1644  0.6506
 9478SOL     OW29011   6.805   3.770   6.870  0.0803 -0.1191 -0.4995
 9478SOL    HW129012   6.824   3.836   6.936 -0.3774  0.8075 -1.2664
 9478SOL    HW229013   6.710   3.761   6.871  0.2248 -1.8684  0.6141
 9479SOL     OW29014   6.120   8.553   8.183  0.3193  0.0749 -0.4686
 9479SOL    HW129015   6.137   8.576   8.091 -0.2542  0.2881 -0.5246
 9479SOL    HW229016   6.061   8.478   8.179  0.5080 -0.0845 -0.2735
 9480SOL     OW29017   2.668   7.022   9.651 -0.5824 -1.3238 -0.1710
 9480SOL    HW129018   2.752   7.034   9.695 -0.7577 -1.1197  0.1044
 9480SOL    HW229019   2.603   7.033   9.719 -0.8177 -1.9967 -0.2830
 9481SOL     OW29020   6.375   7.257   9.646  0.4748 -0.2706 -0.1572
 9481SOL    HW129021   6.468   7.238   9.655  0.2690 -1.3857 -0.2710
 9481SOL    HW229022   6.331   7.186   9.692 -0.3525 -0.7924 -1.6752
 9482SOL     OW29023   2.709   5.858   4.573  0.2179 -0.3777 -0.2822
 9482SOL    HW129024   2.749   5.779   4.537  0.4949 -0.7777  0.8835
 9482SOL    HW229025   2.783   5.908   4.609  0.0845  0.5653 -1.2702
 9483SOL     OW29026   0.362   5.201   0.415  0.3916 -0.1387 -0.9580
 9483SOL    HW129027   0.328   5.284   0.446 -0.9923 -1.1300  0.3130
 9483SOL    HW229028   0.305   5.135   0.455  3.6258 -1.9451  1.1495
 9484SOL     OW29029   7.415   2.460   0.724  0.2562 -0.1150  0.5639
 9484SOL    HW129030   7.346   2.425   0.668  1.1759 -1.4294  0.2082
 9484SOL    HW229031   7.394   2.429   0.812 -1.2409  2.0282  1.0430
 9485SOL     OW29032   0.888   9.174   5.665 -0.0204  0.0646  0.0799
 9485SOL    HW129033   0.957   9.209   5.608 -1.1959  1.9062 -0.2778
 9485SOL    HW229034   0.835   9.250   5.688 -0.6269 -0.9379  2.2150
 9486SOL     OW29035   5.671   3.230   8.435  0.3114  0.4704  0.2159
 9486SOL    HW129036   5.700   3.148   8.476  1.7683  1.1291  0.5836
 9486SOL    HW229037   5.618   3.203   8.361  0.5334 -0.8083  0.5034
 9487SOL     OW29038   1.225   5.495   5.127 -0.0314  0.0132  0.5994
 9487SOL    HW129039   1.247   5.588   5.131 -1.0271  0.3157 -0.4334
 9487SOL    HW229040   1.308   5.450   5.137  0.5480  1.0279  0.4555
 9488SOL     OW29041   5.253   7.253   6.972  0.5472  0.5953 -0.1270
 9488SOL    HW129042   5.207   7.302   7.041  0.4567  0.0029  0.2381
 9488SOL    HW229043   5.221   7.163   6.981  0.6357  0.4825 -0.8594
 9489SOL     OW29044   1.295   0.475   7.901 -0.1262  0.1901 -0.0692
 9489SOL    HW129045   1.376   0.428   7.919  1.6386  3.1109  0.3162
 9489SOL    HW229046   1.261   0.436   7.821  0.7304 -2.2005  0.6593
 9490SOL     OW29047   7.810   6.940   4.039 -0.2965  0.2074  0.3714
 9490SOL    HW129048   7.859   6.874   4.087 -0.4411  0.3428  0.7063
 9490SOL    HW229049   7.758   6.985   4.106 -1.1374 -0.1655 -0.0258
 9491SOL     OW29050   1.513   2.803   6.492  0.4199  0.4999  0.5721
 9491SOL    HW129051   1.501   2.898   6.498  0.9003  0.6504 -0.5733
 9491SOL    HW229052   1.568   2.791   6.415  1.7606 -0.6200  1.6519
 9492SOL     OW29053   4.910   9.788   4.626  0.5622 -0.3160 -0.0940
 9492SOL    HW129054   4.992   9.740   4.617  0.7201  0.1845 -1.5429
 9492SOL    HW229055   4.926   9.850   4.697  0.0802 -2.8755  2.4254
 9493SOL     OW29056   1.006   7.580   6.884  0.7428 -0.0663 -0.2285
 9493SOL    HW129057   1.012   7.594   6.979 -0.9335 -1.1839  0.0873
 9493SOL    HW229058   1.012   7.485   6.873  0.0664 -0.0126 -1.1620
 9494SOL     OW29059   2.133   9.482   9.602  0.0442  0.0966  0.3101
 9494SOL    HW129060   2.123   9.401   9.552  4.0980 -0.0756 -0.4971
 9494SOL    HW229061   2.132   9.551   9.536  3.0015  0.0521  0.0767
 9495SOL     OW29062   0.128   7.857   2.431  0.2812  0.1862 -0.0297
 9495SOL    HW129063   0.133   7.788   2.497  1.4678 -0.6291 -0.9055
 9495SOL    HW229064   0.157   7.814   2.350  0.7056  1.6223 -0.6824
 9496SOL     OW29065   0.198   3.561   8.587 -0.0242  0.0244  0.2806
 9496SOL    HW129066   0.261   3.629   8.563 -0.5284  0.6046  0.6013
 9496SOL    HW229067   0.140   3.555   8.511  0.4340 -0.5384 -0.0318
 9497SOL     OW29068   5.789   5.880   3.305  0.1365  0.4386  0.2096
 9497SOL    HW129069   5.785   5.951   3.369 -0.1731  0.1069  0.5658
 9497SOL    HW229070   5.803   5.923   3.221  0.2928  0.8965  0.4682
 9498SOL     OW29071   4.783   9.973   9.175 -0.1241 -0.0332 -0.3294
 9498SOL    HW129072   4.755  10.052   9.128 -0.7219 -0.0654 -0.0371
 9498SOL    HW229073   4.730   9.903   9.138  0.3570 -0.2917 -0.5377
 9499SOL     OW29074   8.145   3.656   3.006 -0.2106 -0.2629  0.0580
 9499SOL    HW129075   8.192   3.721   3.058  0.9831  0.7209 -2.1408
 9499SOL    HW229076   8.053   3.682   3.015  0.0912  0.6960  0.5719
 9500SOL     OW29077   4.886   9.439   9.570  0.4841  0.3119  1.2890
 9500SOL    HW129078   4.853   9.467   9.485 -0.3994  1.2688  1.9293
 9500SOL    HW229079   4.951   9.505   9.594 -1.2051  1.5800  2.5499
 9501SOL     OW29080   2.297   2.433   4.285  0.5714  0.4252  0.1154
 9501SOL    HW129081   2.367   2.416   4.223  0.2224 -1.8801  0.2504
 9501SOL    HW229082   2.321   2.383   4.363 -1.1996 -0.4463  0.1540
 9502SOL     OW29083   7.443   9.039   1.435 -0.5549 -0.4415  0.2087
 9502SOL    HW129084   7.464   9.125   1.472  0.0547 -0.0292 -1.0358
 9502SOL    HW229085   7.508   8.980   1.474  0.7459  0.1782 -0.9420
 9503SOL     OW29086   3.136   0.237   6.256 -0.1802  0.0436  0.1476
 9503SOL    HW129087   3.071   0.265   6.192 -1.8001  1.3708  2.2338
 9503SOL    HW229088   3.178   0.318   6.284  0.9045 -0.5765  0.3713
 9504SOL     OW29089   3.090   9.430   4.817  0.1769  0.0324 -0.1239
 9504SOL    HW129090   3.120   9.374   4.888  0.2620  1.3784  0.9467
 9504SOL    HW229091   3.167   9.443   4.761  0.2513 -0.5838 -0.1651
 9505SOL     OW29092   1.305   8.397   1.111  0.0560 -0.6307 -0.3317
 9505SOL    HW129093   1.348   8.457   1.050 -0.7109  0.3472  0.0550
 9505SOL    HW229094   1.217   8.434   1.123 -0.0678 -1.2281  0.7583
 9506SOL     OW29095   1.612   0.368   0.396  0.1838 -0.3523  0.1574
 9506SOL    HW129096   1.704   0.342   0.395  0.5066  0.7599 -0.4201
 9506SOL    HW229097   1.611   0.454   0.437 -0.4427  0.1594 -0.8897
 9507SOL     OW29098   1.122   9.343   9.148  0.2078  0.2903 -0.8973
 9507SOL    HW129099   1.160   9.430   9.157 -1.3995  1.0066 -0.5122
 9507SOL    HW229100   1.185   9.294   9.096  1.2021  1.6463 -1.0339
 9508SOL     OW29101   3.737   2.039   0.241  0.2128 -0.3532 -0.3396
 9508SOL    HW129102   3.685   1.983   0.298  0.8889 -0.6004  0.0428
 9508SOL    HW229103   3.827   2.007   0.251  0.2555 -0.9039 -2.1127
 9509SOL     OW29104   2.894   2.047   4.901  0.2419  0.3340  0.1730
 9509SOL    HW129105   2.931   2.119   4.952  1.6964  0.4125 -0.9304
 9509SOL    HW229106   2.854   2.090   4.825  0.7475  0.0381 -0.2717
 9510SOL     OW29107   8.224   2.819   6.162  0.1341  0.2415 -0.7735
 9510SOL    HW129108   8.157   2.752   6.148 -1.3263  1.4459  0.2280
 9510SOL    HW229109   8.179   2.902   6.150  0.6506  1.2072  2.7819
 9511SOL     OW29110   5.063   6.528   8.899 -0.1380  0.6083 -0.2048
 9511SOL    HW129111   5.129   6.460   8.911  1.3152  2.1340  0.9506
 9511SOL    HW229112   5.006   6.520   8.975 -0.4718  0.1837 -0.4927
 9512SOL     OW29113   5.210   9.688   8.156 -0.6556 -0.0222  0.0967
 9512SOL    HW129114   5.179   9.597   8.149 -1.2787  0.0479  1.5110
 9512SOL    HW229115   5.268   9.687   8.232 -1.3046  0.9089  0.6234
 9513SOL     OW29116   3.315   0.256   4.512 -0.0478 -0.5472 -0.2403
 9513SOL    HW129117   3.318   0.187   4.578 -0.0817 -1.2374 -0.9553
 9513SOL    HW229118   3.247   0.229   4.451 -0.9075  0.7144  0.1052
 9514SOL     OW29119   3.713   3.640   9.554 -0.4558 -1.0674  1.2917
 9514SOL    HW129120   3.622   3.645   9.525  0.0014 -0.4819 -0.1315
 9514SOL    HW229121   3.746   3.729   9.545  0.5041 -1.4463  0.9340
 9515SOL     OW29122   2.265   7.815   1.379  0.2118  0.5385  0.3081
 9515SOL    HW129123   2.196   7.795   1.316  1.5173  0.8664 -1.3076
 9515SOL    HW229124   2.221   7.814   1.464 -1.0263 -3.0124 -0.2136
 9516SOL     OW29125   1.380   0.584   8.937  0.0705 -0.5640  0.2166
 9516SOL    HW129126   1.318   0.626   8.877 -1.4685 -1.3428  1.1858
 9516SOL    HW229127   1.412   0.508   8.889 -0.7096 -0.8624  0.1581
 9517SOL     OW29128   4.666   8.890   1.976 -0.1890  0.4477 -0.3251
 9517SOL    HW129129   4.747   8.865   2.021 -0.9500  0.0413  0.8609
 9517SOL    HW229130   4.628   8.807   1.946 -0.9018  0.4871  0.4356
 9518SOL     OW29131   0.388   0.167   4.145  0.3035 -0.4143 -0.2260
 9518SOL    HW129132   0.297   0.141   4.156  0.1315  0.5665  0.7717
 9518SOL    HW229133   0.386   0.231   4.074  0.2174 -0.4219 -0.2304
 9519SOL     OW29134   0.704   7.410   2.870 -0.0517  0.7378 -0.0011
 9519SOL    HW129135   0.761   7.481   2.900  0.6955  0.3017 -0.3600
 9519SOL    HW229136   0.657   7.447   2.795 -2.2265  1.9659  1.8486
 9520SOL     OW29137   7.765   7.358   7.626 -0.4876  0.2008 -0.1829
 9520SOL    HW129138   7.785   7.436   7.575 -0.1776 -0.8184 -1.7157
 9520SOL    HW229139   7.670   7.356   7.631 -0.4907  0.7795  0.0563
 9521SOL     OW29140   3.374   8.180   1.311  0.2197  0.0757 -0.0281
 9521SOL    HW129141   3.366   8.087   1.290 -2.7494  0.3585 -0.5920
 9521SOL    HW229142   3.335   8.189   1.398 -1.2458  0.9965 -0.7393
 9522SOL     OW29143   2.222   3.663   6.831  0.0304 -0.6266 -0.2426
 9522SOL    HW129144   2.156   3.612   6.783 -0.8657  0.5934 -0.3485
 9522SOL    HW229145   2.297   3.667   6.771 -0.8468  0.3479 -1.3328
 9523SOL     OW29146   1.792   2.676   4.104 -0.2363 -0.0046  0.4116
 9523SOL    HW129147   1.845   2.608   4.146 -1.6372 -0.4307  1.6217
 9523SOL    HW229148   1.750   2.722   4.177 -0.1537  1.4735 -0.4369
 9524SOL     OW29149   5.791   0.528   3.247 -0.9266  0.9587  0.0599
 9524SOL    HW129150   5.794   0.435   3.228 -1.0983  1.2198 -1.3015
 9524SOL    HW229151   5.717   0.561   3.197 -0.3797  1.9650 -0.1215
 9525SOL     OW29152   2.474   3.234   3.006  0.6079  0.1680  0.2160
 9525SOL    HW129153   2.556   3.213   2.962  0.8541  1.6610 -0.0696
 9525SOL    HW229154   2.410   3.239   2.935  0.8987  2.0440  0.0518
 9526SOL     OW29155   7.663   2.264   2.577 -0.2325 -0.3943  0.3192
 9526SOL    HW129156   7.640   2.195   2.516 -3.4085  0.1583  0.7427
 9526SOL    HW229157   7.580   2.290   2.618  0.2473  5.0691 -1.3206
 9527SOL     OW29158   3.435   4.735   8.469  0.2853 -0.1477  0.1837
 9527SOL    HW129159   3.352   4.761   8.427  0.6653  1.3512  0.2879
 9527SOL    HW229160   3.447   4.644   8.444 -1.5044 -0.4641  0.3404
 9528SOL     OW29161   8.794   9.966   1.332  0.0461  0.2458  0.3876
 9528SOL    HW129162   8.822   9.875   1.337  2.2698  0.6659 -2.2387
 9528SOL    HW229163   8.732   9.968   1.259  0.1333  0.8412  0.3236
 9529SOL     OW29164   6.107   4.159   0.427  0.1579 -0.2282  0.2097
 9529SOL    HW129165   6.109   4.236   0.484 -0.3450 -0.8938  1.1541
 9529SOL    HW229166   6.198   4.129   0.424  0.3144  0.2615  0.0309
 9530SOL     OW29167   9.346   2.235   6.878 -0.0355 -0.4084  0.1784
 9530SOL    HW129168   9.366   2.270   6.965  2.3919 -2.8438  0.7459
 9530SOL    HW229169   9.268   2.182   6.891 -2.7635  3.1265 -0.3559
 9531SOL     OW29170   2.286   7.801   0.270 -0.2299 -0.3088 -0.0691
 9531SOL    HW129171   2.314   7.859   0.341  0.4501 -0.4396 -0.2234
 9531SOL    HW229172   2.190   7.802   0.275 -0.3358  2.0569 -1.0389
 9532SOL     OW29173   2.995   5.057   9.904  0.4038 -0.2063  0.1716
 9532SOL    HW129174   2.998   5.105   9.821 -0.1034 -0.3317  0.0818
 9532SOL    HW229175   3.057   5.104   9.960  0.6052 -0.0047 -0.2113
 9533SOL     OW29176   2.752   7.492   8.671 -0.4922  0.1126  0.4276
 9533SOL    HW129177   2.839   7.514   8.639 -0.1248  0.4894  1.6273
 9533SOL    HW229178   2.729   7.410   8.625  1.4728 -1.2774  1.7733
 9534SOL     OW29179   9.053   4.319   5.910  0.3905 -0.1560  0.0627
 9534SOL    HW129180   9.062   4.365   5.826  0.2408 -0.1713  0.0389
 9534SOL    HW229181   9.002   4.241   5.890 -0.2730  0.2034  0.2974
 9535SOL     OW29182   1.052   1.523   4.642 -0.6595 -0.1317  0.2619
 9535SOL    HW129183   1.023   1.432   4.642  0.5723 -0.6734 -3.1386
 9535SOL    HW229184   1.147   1.517   4.654 -0.6128  0.7583  0.3881
 9536SOL     OW29185   9.302   3.516   9.890  0.0053 -0.5563  0.2293
 9536SOL    HW129186   9.213   3.542   9.916  0.0867 -0.6133  0.5647
 9536SOL    HW229187   9.288   3.450   9.822 -0.2037  0.0894 -0.3644
 9537SOL     OW29188   4.931   9.577   5.693  0.0413  0.4506 -0.0697
 9537SOL    HW129189   4.965   9.651   5.643  0.0308  0.3673 -0.2011
 9537SOL    HW229190   4.838   9.596   5.705  0.1211  0.6499  0.2392
 9538SOL     OW29191   3.112   8.374   9.157 -0.6249  0.1979 -0.1987
 9538SOL    HW129192   3.136   8.446   9.215  0.0844 -0.9701  1.0214
 9538SOL    HW229193   3.196   8.334   9.134 -0.9018  0.6200 -2.0349
 9539SOL     OW29194   1.739   2.793   3.170  0.2104 -0.1688  0.0295
 9539SOL    HW129195   1.804   2.723   3.167  0.4029  0.0207 -0.2948
 9539SOL    HW229196   1.689   2.777   3.250  1.4275  0.3797  0.9213
 9540SOL     OW29197   4.867   6.984   1.320 -0.6368 -0.6317  0.2058
 9540SOL    HW129198   4.838   6.937   1.242  1.3199 -0.9161 -0.3959
 9540SOL    HW229199   4.947   7.029   1.293  0.3409 -1.0912  2.1476
 9541SOL     OW29200   8.508   9.700   8.980 -0.5289  0.1937 -0.1331
 9541SOL    HW129201   8.474   9.780   8.941 -1.8984  0.3727  1.3134
 9541SOL    HW229202   8.439   9.635   8.968 -1.7189  0.6488  3.1186
 9542SOL     OW29203   8.448   4.918   8.098 -0.3412 -0.0762 -0.6456
 9542SOL    HW129204   8.389   4.979   8.142 -1.0089  1.2394 -3.1624
 9542SOL    HW229205   8.535   4.958   8.107  0.0153 -1.2693  1.8041
 9543SOL     OW29206   9.662   9.626   5.349 -0.1511 -0.2098 -0.4956
 9543SOL    HW129207   9.603   9.670   5.288 -0.2596 -0.6870 -0.7401
 9543SOL    HW229208   9.719   9.572   5.294 -0.8640 -1.3798 -0.1422
 9544SOL     OW29209   7.315   4.115   8.320  0.3725 -0.6898  0.0025
 9544SOL    HW129210   7.353   4.028   8.306 -2.5894 -2.2086  0.7011
 9544SOL    HW229211   7.370   4.154   8.387  1.3930 -2.2789  0.1634
 9545SOL     OW29212   7.799   4.133   5.726 -0.1336  0.2390 -0.4179
 9545SOL    HW129213   7.889   4.115   5.700  0.4332  1.4124  0.6142
 9545SOL    HW229214   7.759   4.171   5.648  1.2502  2.7657 -0.0176
 9546SOL     OW29215   3.393   7.713   4.030 -0.3117 -0.5269  0.5790
 9546SOL    HW129216   3.433   7.760   3.957  1.2362 -0.7586  1.2517
 9546SOL    HW229217   3.436   7.627   4.029 -2.0969 -1.4727  0.2209
 9547SOL     OW29218   1.874   5.889   5.509 -0.3442 -0.6011  0.0717
 9547SOL    HW129219   1.870   5.981   5.534 -1.1307 -0.5906 -0.0733
 9547SOL    HW229220   1.928   5.888   5.430  0.1067 -0.3331  0.3747
 9548SOL     OW29221   3.501   3.692   9.779 -0.2725 -0.2913 -0.7515
 9548SOL    HW129222   3.495   3.667   9.687  1.1998 -0.6523 -0.7754
 9548SOL    HW229223   3.411   3.685   9.812 -0.6877 -0.9124 -1.9689
 9549SOL     OW29224   5.696   5.833   6.187  0.2751 -0.0371 -0.5600
 9549SOL    HW129225   5.670   5.908   6.241 -1.1521 -0.4716 -0.5813
 9549SOL    HW229226   5.614   5.803   6.148  1.0016 -0.9080 -1.4599
 9550SOL     OW29227   2.787   9.606   9.722 -0.0942 -0.0472 -0.2400
 9550SOL    HW129228   2.730   9.547   9.771 -0.5787  1.7924  1.5485
 9550SOL    HW229229   2.728   9.658   9.667  0.2537 -0.6355 -1.2054
 9551SOL     OW29230   8.501   8.580   6.778 -0.2117 -0.0980 -0.5783
 9551SOL    HW129231   8.510   8.493   6.739 -1.1092 -0.8358  0.7850
 9551SOL    HW229232   8.591   8.613   6.784  0.1485 -0.9757 -0.9886
 9552SOL     OW29233   8.989   2.571   1.289 -0.3665 -0.3704  0.0272
 9552SOL    HW129234   9.007   2.595   1.198  0.2308  0.5425  0.3758
 9552SOL    HW229235   9.066   2.521   1.316 -0.9286 -1.4171 -0.2166
 9553SOL     OW29236   7.923   5.464   4.807  0.1348  0.1792 -0.2549
 9553SOL    HW129237   7.920   5.472   4.902 -0.5252  0.9767 -0.3245
 9553SOL    HW229238   7.845   5.511   4.777  0.9721  1.0109 -1.2373
 9554SOL     OW29239   4.212   3.902   9.258  0.3843 -0.2372  0.1897
 9554SOL    HW129240   4.296   3.877   9.298 -0.2647  0.5986  2.1691
 9554SOL    HW229241   4.158   3.824   9.266  1.3130 -1.2538 -2.3314
 9555SOL     OW29242   7.873   3.134   1.061 -0.6052  0.0580 -0.4885
 9555SOL    HW129243   7.849   3.131   0.969 -2.0721 -1.7480 -0.0982
 9555SOL    HW229244   7.896   3.044   1.084 -0.3269  0.4515  0.9335
 9556SOL     OW29245   3.735   6.116   1.554 -0.4534 -0.1877  0.1793
 9556SOL    HW129246   3.816   6.065   1.549  0.2363  0.8547  0.4524
 9556SOL    HW229247   3.672   6.057   1.596  0.4556 -0.6431  0.9314
 9557SOL     OW29248   3.912   9.075   0.303 -0.4431 -0.0478  0.1314
 9557SOL    HW129249   3.935   9.151   0.249  2.1670 -0.8628 -0.0406
 9557SOL    HW229250   3.913   9.108   0.393  2.0698 -0.1119  0.1776
 9558SOL     OW29251   2.386   9.941   6.697 -0.0748  0.5612 -0.4805
 9558SOL    HW129252   2.395   9.906   6.608  0.1496  2.1900 -1.1334
 9558SOL    HW229253   2.469   9.984   6.715  0.5390 -1.1996  1.2375
 9559SOL     OW29254   9.854   9.378   1.707  0.3913 -0.3852  0.5940
 9559SOL    HW129255   9.851   9.326   1.787  0.4213 -2.1167 -0.4910
 9559SOL    HW229256   9.768   9.421   1.703 -0.2294 -1.5775  0.7478
 9560SOL     OW29257   3.345   6.521   0.003 -0.3473  0.2392  0.1538
 9560SOL    HW129258   3.251   6.538   0.009 -0.2356  1.3983 -0.8575
 9560SOL    HW229259   3.384   6.577   0.071 -0.3742 -0.1963  0.5332
 9561SOL     OW29260   5.801   5.503   3.650  0.5870  0.4058 -0.2838
 9561SOL    HW129261   5.733   5.546   3.702  0.7438 -0.1636  0.3939
 9561SOL    HW229262   5.845   5.444   3.710  0.1947 -0.9426 -1.2716
 9562SOL     OW29263   1.922   6.710   4.321 -0.1302 -0.6227  1.0480
 9562SOL    HW129264   1.942   6.802   4.303  0.6581 -0.8677  0.6130
 9562SOL    HW229265   2.008   6.667   4.320 -0.5325 -1.4233  0.8578
 9563SOL     OW29266   3.488   1.391   2.117  0.6674  0.0429 -0.8242
 9563SOL    HW129267   3.528   1.464   2.164 -1.3630  1.0765 -0.6064
 9563SOL    HW229268   3.480   1.322   2.183 -2.8891  1.7404  0.7933
 9564SOL     OW29269   4.431   6.955   6.159  0.8934 -0.0952 -0.3700
 9564SOL    HW129270   4.469   6.975   6.073  1.1063  0.3503 -0.1739
 9564SOL    HW229271   4.374   7.030   6.177 -0.1459 -0.7853 -0.6945
 9565SOL     OW29272   7.039   3.442   4.907 -0.7211 -0.0475 -0.7003
 9565SOL    HW129273   6.983   3.494   4.965 -2.0827 -1.1868 -0.9137
 9565SOL    HW229274   7.006   3.352   4.917  0.7683 -0.6827 -1.2385
 9566SOL     OW29275   6.504   0.428   4.233 -0.4303  0.5171 -0.2249
 9566SOL    HW129276   6.597   0.443   4.248 -0.1057 -1.0718 -0.4468
 9566SOL    HW229277   6.501   0.380   4.150 -1.2584 -1.2020  0.7458
 9567SOL     OW29278   8.013   4.146   6.616 -0.5217 -0.4658  0.2287
 9567SOL    HW129279   8.040   4.054   6.614  1.9478  0.1826 -1.1621
 9567SOL    HW229280   8.073   4.186   6.680 -0.6378  0.4162 -0.2087
 9568SOL     OW29281   7.716   4.296   9.211 -0.2326 -0.2440 -0.0706
 9568SOL    HW129282   7.741   4.385   9.186  0.3207 -0.6503 -1.0737
 9568SOL    HW229283   7.799   4.255   9.235 -0.5319 -0.3958  0.7213
 9569SOL     OW29284   3.489   8.003   0.729  0.5447  0.0564 -0.1273
 9569SOL    HW129285   3.580   7.976   0.732  0.3271 -0.7660 -0.6086
 9569SOL    HW229286   3.441   7.925   0.702 -0.1359  0.8544 -1.3212
 9570SOL     OW29287   9.493   1.393   9.814 -0.2392 -0.0473 -0.4939
 9570SOL    HW129288   9.538   1.346   9.884  2.2412 -0.1947 -2.0415
 9570SOL    HW229289   9.503   1.485   9.837  0.3132 -0.1063 -0.4754
 9571SOL     OW29290   2.299   3.797   8.441  0.5048  0.1541  0.3317
 9571SOL    HW129291   2.317   3.888   8.466 -1.5541  1.6380 -2.9474
 9571SOL    HW229292   2.300   3.798   8.345  0.6424 -3.4014  0.1646
 9572SOL     OW29293   4.691   0.041   5.988 -0.3851 -0.5825  0.1375
 9572SOL    HW129294   4.675  -0.052   5.978 -2.7535 -0.1518 -0.7081
 9572SOL    HW229295   4.698   0.074   5.898  0.9058  0.0140  0.4312
 9573SOL     OW29296   3.500   6.493   1.836  0.0663 -0.2583  0.2977
 9573SOL    HW129297   3.458   6.461   1.916 -0.0364 -0.3555  0.2051
 9573SOL    HW229298   3.593   6.475   1.849  0.1991  0.7688  0.8861
 9574SOL     OW29299   2.622   5.301   2.991 -0.2349  0.4201 -0.1430
 9574SOL    HW129300   2.716   5.319   2.999  0.6395 -3.5987  0.5781
 9574SOL    HW229301   2.588   5.319   3.079  0.3072 -0.2128  0.2057
 9575SOL     OW29302   4.753   1.785   5.054  0.1478  0.4023 -0.1348
 9575SOL    HW129303   4.827   1.785   4.993 -0.1148  2.8808 -0.5677
 9575SOL    HW229304   4.690   1.724   5.015  0.6567  0.7137 -1.5120
 9576SOL     OW29305   8.228   1.947   1.350  0.1502 -0.4224  0.3447
 9576SOL    HW129306   8.219   1.902   1.266  0.9706  1.0757 -0.5746
 9576SOL    HW229307   8.323   1.955   1.363  0.1126  2.9657 -0.6450
 9577SOL     OW29308   1.086   9.702   6.850  0.4171 -0.3901 -0.0628
 9577SOL    HW129309   1.142   9.642   6.899  1.2519 -1.3781 -2.1199
 9577SOL    HW229310   1.117   9.789   6.873  1.3288 -0.8491  0.4941
 9578SOL     OW29311   2.101   7.646   8.666 -1.2183  0.2342 -0.5725
 9578SOL    HW129312   2.147   7.564   8.683  1.4763  1.5877 -0.7698
 9578SOL    HW229313   2.040   7.655   8.739 -1.0837 -1.5976 -0.1862
 9579SOL     OW29314   6.296   7.842   4.173 -0.2064 -0.7068  0.0322
 9579SOL    HW129315   6.246   7.800   4.242  0.2611 -0.8460  0.2873
 9579SOL    HW229316   6.387   7.838   4.203 -0.1819  0.8260  0.2599
 9580SOL     OW29317   9.729   0.576   3.996 -0.1264  0.4392  0.0362
 9580SOL    HW129318   9.710   0.510   4.062 -0.2361 -0.8120 -1.1940
 9580SOL    HW229319   9.726   0.528   3.913 -0.6623  2.0855 -0.9423
 9581SOL     OW29320   6.680   0.359   4.598  0.4508 -0.5120  0.5434
 9581SOL    HW129321   6.635   0.435   4.634  0.4318 -0.8396  1.2200
 9581SOL    HW229322   6.771   0.387   4.590 -0.0029  0.5650 -1.9460
 9582SOL     OW29323   0.584   6.210   4.418  0.4871 -0.4257  0.1067
 9582SOL    HW129324   0.599   6.280   4.355  0.6193  0.5445  1.1794
 9582SOL    HW229325   0.622   6.242   4.500  1.7213 -2.3043  0.3264
 9583SOL     OW29326   6.021   6.785   3.181  0.4429  0.1418 -0.1705
 9583SOL    HW129327   6.092   6.811   3.123  1.6352 -0.3475  1.0263
 9583SOL    HW229328   6.032   6.839   3.259 -1.4545  1.1671 -0.5582
 9584SOL     OW29329   0.535   5.018   8.531  0.4394 -0.0354  0.0965
 9584SOL    HW129330   0.579   4.948   8.482 -0.3345  0.0580 -0.7644
 9584SOL    HW229331   0.578   5.018   8.616  2.2241  0.1789 -0.7657
 9585SOL     OW29332   9.743   3.234   2.828 -0.1794  0.0161 -0.6903
 9585SOL    HW129333   9.809   3.203   2.889  0.0303 -1.3770 -1.5751
 9585SOL    HW229334   9.755   3.329   2.825  0.4875 -0.0171  0.6106
 9586SOL     OW29335   0.968   8.508   2.636 -0.0429  0.4432 -0.0311
 9586SOL    HW129336   1.033   8.457   2.588 -1.1164 -2.3215  1.2953
 9586SOL    HW229337   1.016   8.544   2.711  0.5688  0.9445 -0.6383
 9587SOL     OW29338   1.889   3.964   2.755  0.0157  0.5236 -0.4465
 9587SOL    HW129339   1.851   4.018   2.687 -2.1162  0.0588  0.3017
 9587SOL    HW229340   1.835   3.885   2.757  0.5860  0.1207  1.1490
 9588SOL     OW29341   8.460   9.670   6.102  0.2803 -0.2067  0.0945
 9588SOL    HW129342   8.458   9.618   6.022 -0.7172  0.0660 -0.0750
 9588SOL    HW229343   8.514   9.619   6.163 -0.2097 -1.1569 -0.2546
 9589SOL     OW29344   2.464   6.923   0.666 -0.6123 -0.5998  0.3966
 9589SOL    HW129345   2.437   6.947   0.754 -1.4766 -2.5728  0.7182
 9589SOL    HW229346   2.401   6.856   0.639 -0.2294 -0.2183 -1.6390
 9590SOL     OW29347   4.773   3.578   6.893 -0.2019 -0.6713  0.6382
 9590SOL    HW129348   4.831   3.518   6.940  0.3903 -1.7990 -1.4108
 9590SOL    HW229349   4.688   3.534   6.892 -0.4570 -0.2047  1.4554
 9591SOL     OW29350   6.535   6.853   2.944  0.4237 -0.1284 -0.2142
 9591SOL    HW129351   6.550   6.947   2.951 -0.5655  0.1435 -1.3491
 9591SOL    HW229352   6.595   6.814   3.007  0.7221  1.2703  0.4017
 9592SOL     OW29353   6.040   3.258   3.423 -0.3188 -0.5458 -0.0236
 9592SOL    HW129354   6.023   3.295   3.509  0.4587 -0.1766 -0.0194
 9592SOL    HW229355   5.957   3.266   3.376 -0.8070 -0.9528  0.7573
 9593SOL     OW29356   5.580   4.640   0.899  0.1481  0.5072 -0.5972
 9593SOL    HW129357   5.658   4.695   0.904  1.8648 -1.7482 -0.6191
 9593SOL    HW229358   5.507   4.701   0.906  1.8706  2.4801  2.7208
 9594SOL     OW29359   7.932   4.147   9.344 -0.0713  0.5194  0.2819
 9594SOL    HW129360   7.921   4.202   9.421  0.2586 -0.0086  0.7044
 9594SOL    HW229361   8.013   4.178   9.304  0.0497  0.4234  0.4518
 9595SOL     OW29362   9.291   1.376   4.263  0.6672 -0.3397 -0.0236
 9595SOL    HW129363   9.370   1.418   4.229  0.7424 -1.0781 -0.7772
 9595SOL    HW229364   9.229   1.380   4.190  0.8428 -1.9887 -0.2870
 9596SOL     OW29365   3.225   7.563   3.502  0.2070  0.1596  0.0591
 9596SOL    HW129366   3.281   7.637   3.479  1.1082 -0.5019  0.0521
 9596SOL    HW229367   3.139   7.585   3.465  0.8537  0.4903 -1.2993
 9597SOL     OW29368   0.516   1.438   5.299  0.8828  0.0958 -0.0235
 9597SOL    HW129369   0.529   1.364   5.238  1.1257 -0.9241  1.2289
 9597SOL    HW229370   0.605   1.460   5.328  0.6337 -1.2247  1.9814
 9598SOL     OW29371   4.670   7.754   9.891 -0.4020 -0.1088 -0.1773
 9598SOL    HW129372   4.714   7.711   9.964 -1.7713 -2.0427 -0.3890
 9598SOL    HW229373   4.723   7.733   9.815  0.8484  1.6355  0.1433
 9599SOL     OW29374   1.973   8.294   6.540 -0.2341 -0.3218  0.3038
 9599SOL    HW129375   1.901   8.244   6.503 -1.3198  1.4882 -0.1530
 9599SOL    HW229376   1.936   8.380   6.559  0.8755 -0.3956  3.4378
 9600SOL     OW29377   9.745   7.516   4.988 -0.5594  0.0924 -0.2925
 9600SOL    HW129378   9.767   7.425   5.006 -0.1713  0.4781  1.3326
 9600SOL    HW229379   9.653   7.513   4.961 -0.3052 -0.8586 -1.1073
 9601SOL     OW29380   8.592   1.610   9.836  0.0480  0.0009  0.3057
 9601SOL    HW129381   8.586   1.687   9.779 -1.7504 -1.2097 -1.2839
 9601SOL    HW229382   8.534   1.630   9.910  1.2318  0.9816  1.0057
 9602SOL     OW29383   3.241   7.850   4.804 -0.5188  0.7357 -0.0257
 9602SOL    HW129384   3.148   7.841   4.825 -1.0693  2.3956 -1.5192
 9602SOL    HW229385   3.249   7.820   4.713  0.1738  1.6996 -0.3003
 9603SOL     OW29386   0.779   3.036   2.864 -0.0117 -0.0606  0.2213
 9603SOL    HW129387   0.824   3.116   2.889 -0.5198  0.4663 -0.4925
 9603SOL    HW229388   0.849   2.973   2.847  0.4992  0.8698 -1.3044
 9604SOL     OW29389   7.602   9.543   3.828  0.0071 -0.2457  0.4493
 9604SOL    HW129390   7.625   9.506   3.742  0.2857 -2.1558  1.2945
 9604SOL    HW229391   7.510   9.520   3.840  0.7019 -2.6008  1.8512
 9605SOL     OW29392   6.815   0.200   2.174  0.1108  0.1283  0.4231
 9605SOL    HW129393   6.876   0.155   2.232  0.0436 -0.5521 -0.0136
 9605SOL    HW229394   6.775   0.130   2.122  0.8416  0.7700 -1.0825
 9606SOL     OW29395   5.599   5.236   6.708  0.0265 -0.4718  0.1605
 9606SOL    HW129396   5.590   5.158   6.653  1.0259 -0.9967  0.7155
 9606SOL    HW229397   5.661   5.292   6.660  0.0448 -0.4414  0.2191
 9607SOL     OW29398   9.537   1.504   5.044  0.2623 -0.3944  0.2340
 9607SOL    HW129399   9.603   1.548   4.990 -0.6258 -0.9406 -1.3653
 9607SOL    HW229400   9.511   1.428   4.993  0.3636 -1.7507  2.0826
 9608SOL     OW29401   2.919   1.691   1.813 -0.4563  0.3131  0.0788
 9608SOL    HW129402   2.859   1.761   1.838 -0.4547  0.3461 -0.0098
 9608SOL    HW229403   2.931   1.701   1.719 -0.3531  0.2734  0.0869
 9609SOL     OW29404   9.005   8.393   2.518  0.2471 -0.0695  0.2237
 9609SOL    HW129405   8.925   8.446   2.526  1.4039  1.8020  0.1053
 9609SOL    HW229406   8.995   8.349   2.434  0.0045  1.3899 -0.5519
 9610SOL     OW29407   4.697   9.254   4.309 -0.0486  0.6428 -0.6220
 9610SOL    HW129408   4.694   9.158   4.306 -0.2353  0.6289 -0.1451
 9610SOL    HW229409   4.739   9.273   4.393  0.6973  0.9731 -1.0694
 9611SOL     OW29410   7.324   1.218   0.585  0.4241 -0.3178  0.0318
 9611SOL    HW129411   7.250   1.246   0.530 -0.8704 -0.7845  1.4453
 9611SOL    HW229412   7.323   1.280   0.659  0.6485 -1.0814  0.6879
 9612SOL     OW29413   9.367   7.058   7.920 -0.4100 -0.3071  0.5445
 9612SOL    HW129414   9.455   7.039   7.887  0.8448 -0.1947  3.4488
 9612SOL    HW229415   9.343   7.141   7.878  0.2827 -0.9937 -1.2735
 9613SOL     OW29416   1.486   2.558   5.197 -0.1268  0.2323 -0.2197
 9613SOL    HW129417   1.574   2.595   5.199 -0.1758  0.3317  1.1175
 9613SOL    HW229418   1.433   2.621   5.247 -0.8068 -0.1712 -0.4283
 9614SOL     OW29419   1.469   0.126   0.999 -0.1080  0.0835 -0.0694
 9614SOL    HW129420   1.384   0.084   1.011 -0.0680  0.0622  0.1329
 9614SOL    HW229421   1.529   0.054   0.985  0.1941 -0.0222  1.5843
 9615SOL     OW29422   1.325   9.862   1.555  0.0780  0.0464  0.2766
 9615SOL    HW129423   1.327   9.849   1.650 -2.3955  0.8068  0.4961
 9615SOL    HW229424   1.402   9.916   1.537  0.3923  0.2030  1.8938
 9616SOL     OW29425   2.249   4.921   0.268 -0.2938 -0.6316  0.7381
 9616SOL    HW129426   2.329   4.868   0.259  0.8957  1.2122 -0.1336
 9616SOL    HW229427   2.238   4.933   0.362  0.5440 -0.7897  0.8606
 9617SOL     OW29428   4.323   5.288   2.431 -0.5854 -0.1018 -0.4651
 9617SOL    HW129429   4.376   5.271   2.509 -0.5370 -0.7238 -0.6256
 9617SOL    HW229430   4.273   5.207   2.418 -1.3097  0.3404 -0.5284
 9618SOL     OW29431   0.732   7.547   5.874 -0.2183  0.5704 -0.5821
 9618SOL    HW129432   0.827   7.546   5.857 -0.0708 -0.4859  0.2413
 9618SOL    HW229433   0.694   7.581   5.793  0.5802 -2.6052 -2.4659
 9619SOL     OW29434   2.050   1.437   4.920  0.6253 -0.2431  0.3364
 9619SOL    HW129435   2.073   1.453   5.012  1.8683 -0.5725  0.1018
 9619SOL    HW229436   2.066   1.521   4.877  0.9048 -0.3356  0.2607
 9620SOL     OW29437   1.969   1.360   7.571  0.6758 -0.2675 -0.1981
 9620SOL    HW129438   2.045   1.373   7.628 -1.2827 -0.8558  2.8271
 9620SOL    HW229439   1.973   1.267   7.548  0.9130 -0.2943 -0.0583
 9621SOL     OW29440   1.884   3.585   4.256 -0.0392  0.2331 -0.0269
 9621SOL    HW129441   1.830   3.641   4.311  0.1343  2.9673 -2.4449
 9621SOL    HW229442   1.824   3.550   4.190  0.5181  0.7658 -0.8484
 9622SOL     OW29443   3.260   3.712   9.928 -0.3382  0.0733  0.2088
 9622SOL    HW129444   3.178   3.753   9.957  0.8327  1.8795  1.1014
 9622SOL    HW229445   3.233   3.625   9.899 -2.5033  0.4176  0.9646
 9623SOL     OW29446   0.307   0.510   7.687  0.5096  0.2408 -0.1953
 9623SOL    HW129447   0.364   0.453   7.738 -0.5707  0.5459  1.3944
 9623SOL    HW229448   0.306   0.593   7.734 -1.1291  0.2886 -0.2405
 9624SOL     OW29449   1.859   2.581   2.189  0.5749 -0.2522 -0.3021
 9624SOL    HW129450   1.927   2.525   2.226  1.6238  1.8443  1.1758
 9624SOL    HW229451   1.796   2.595   2.260 -0.9132 -1.3618 -1.3545
 9625SOL     OW29452   7.614   8.827   1.866  0.3482 -0.3853 -0.8518
 9625SOL    HW129453   7.678   8.772   1.911  1.3800 -0.0843 -1.9059
 9625SOL    HW229454   7.532   8.779   1.874  0.7426 -0.9205  0.2808
 9626SOL     OW29455   0.960   1.346   1.218  0.2776 -0.6342  0.3230
 9626SOL    HW129456   1.040   1.385   1.181 -0.9377  1.7783  0.0138
 9626SOL    HW229457   0.967   1.362   1.312 -0.7587  1.6302  0.0876
 9627SOL     OW29458   2.158   0.985   2.806 -0.4269 -0.1534 -1.2525
 9627SOL    HW129459   2.122   1.044   2.872  0.6185 -1.2047  0.3287
 9627SOL    HW229460   2.208   0.921   2.856  0.1609 -1.1808 -3.0647
 9628SOL     OW29461   9.535   4.555   5.179 -0.0399 -0.1247  0.2602
 9628SOL    HW129462   9.593   4.487   5.212 -0.8889 -0.6500  0.7069
 9628SOL    HW229463   9.503   4.521   5.095 -0.1723 -0.1047  0.3023
 9629SOL     OW29464   9.726   6.335   1.871  0.0996 -0.4681  0.3845
 9629SOL    HW129465   9.701   6.398   1.939  0.5917  1.3067 -0.9809
 9629SOL    HW229466   9.664   6.263   1.882 -1.8416  1.1434  0.8104
 9630SOL     OW29467   0.782   4.408   0.625 -0.3009  0.7296 -0.1348
 9630SOL    HW129468   0.841   4.483   0.627 -0.0799  0.7223 -2.8312
 9630SOL    HW229469   0.770   4.389   0.532 -1.3139 -1.8387  0.4292
 9631SOL     OW29470   0.740   0.373   8.100  0.1928  0.1774 -0.5049
 9631SOL    HW129471   0.830   0.380   8.068  0.7038 -1.2203  0.5473
 9631SOL    HW229472   0.722   0.280   8.101 -0.3599  0.2560  1.6791
 9632SOL     OW29473   3.479   1.038   1.010 -0.3482 -0.4081  0.1813
 9632SOL    HW129474   3.404   1.097   1.017  0.3636  0.4238  1.0114
 9632SOL    HW229475   3.449   0.956   1.049 -0.9625 -0.2349  0.0862
 9633SOL     OW29476   4.028   9.858   2.689  0.2956 -0.1821 -0.2056
 9633SOL    HW129477   4.066   9.787   2.637  1.0641  0.4713 -0.5587
 9633SOL    HW229478   3.951   9.885   2.639 -0.4823 -1.2976  0.3478
 9634SOL     OW29479   5.747   3.100   6.627  0.1454 -0.5676 -0.0190
 9634SOL    HW129480   5.772   3.102   6.720 -2.5534 -0.1277  0.7972
 9634SOL    HW229481   5.830   3.090   6.580  1.6660 -0.2497  2.3975
 9635SOL     OW29482   9.807   9.020   4.597 -0.4496  0.0865  0.1066
 9635SOL    HW129483   9.845   8.961   4.533 -1.0933 -0.6836  0.4135
 9635SOL    HW229484   9.877   9.035   4.661  0.3375  1.1971 -0.9551
 9636SOL     OW29485   1.238   1.447   0.096  0.2446  0.2272 -0.2018
 9636SOL    HW129486   1.273   1.535   0.104  1.0933 -0.2499  2.1808
 9636SOL    HW229487   1.259   1.405   0.180 -2.5529 -1.3758 -0.1821
 9637SOL     OW29488   6.710   2.222   9.612  0.2012 -0.4746  0.1151
 9637SOL    HW129489   6.652   2.288   9.573  1.9945  0.8873 -0.4141
 9637SOL    HW229490   6.774   2.273   9.661  0.5410 -1.9606  1.2795
 9638SOL     OW29491   8.674   8.697   9.870  0.0232  0.1888 -0.2641
 9638SOL    HW129492   8.607   8.753   9.830  0.4290  0.3790 -0.6911
 9638SOL    HW229493   8.750   8.755   9.883 -0.2736  0.2816  1.3132
 9639SOL     OW29494   7.036   5.164   5.237 -0.0449 -0.0506  0.2397
 9639SOL    HW129495   7.068   5.213   5.313  0.3253  1.1834 -0.6859
 9639SOL    HW229496   7.069   5.075   5.250  0.0523  0.1443  1.4874
 9640SOL     OW29497   1.698   1.607   5.114  0.1983 -0.2635 -0.1505
 9640SOL    HW129498   1.786   1.569   5.110 -0.1498 -1.2093  0.7586
 9640SOL    HW229499   1.644   1.537   5.152 -1.1005  0.0332 -1.3835
 9641SOL     OW29500   9.658   4.594   0.502  0.0747 -0.2674 -1.2296
 9641SOL    HW129501   9.748   4.565   0.514  0.9821  2.5980 -0.3218
 9641SOL    HW229502   9.652   4.617   0.410  1.1186  1.8707 -0.8172
 9642SOL     OW29503   2.671   7.230   8.942 -0.2413  0.7231 -0.8606
 9642SOL    HW129504   2.734   7.172   8.983 -0.9343 -0.3657 -1.2953
 9642SOL    HW229505   2.684   7.315   8.985  0.5896  0.1802 -0.0193
 9643SOL     OW29506   8.514   8.007   3.882  0.0503  0.1355  0.1191
 9643SOL    HW129507   8.606   7.984   3.884  0.1221  0.2430 -1.0855
 9643SOL    HW229508   8.472   7.935   3.834 -0.4704  0.1587  0.5215
 9644SOL     OW29509   5.524   2.158   7.413  0.1665 -0.2302 -0.3902
 9644SOL    HW129510   5.619   2.144   7.407 -0.2004 -2.6173 -2.9246
 9644SOL    HW229511   5.505   2.159   7.506  2.6342 -0.0454  0.1683
 9645SOL     OW29512   9.144   8.052   6.678 -0.1112  0.2185 -0.0244
 9645SOL    HW129513   9.064   8.000   6.676 -0.9001  1.4104 -0.5063
 9645SOL    HW229514   9.145   8.098   6.594  0.9489  0.4222  0.0812
 9646SOL     OW29515   7.975   6.604   1.194  0.3721  0.1910  0.4959
 9646SOL    HW129516   7.888   6.586   1.228 -0.6325  1.5152 -1.2210
 9646SOL    HW229517   7.961   6.628   1.102  2.5728  0.1969  0.0968
 9647SOL     OW29518   7.314   9.401   9.530  0.3138  0.5523  0.0964
 9647SOL    HW129519   7.292   9.312   9.557 -1.0566  0.7336 -0.3605
 9647SOL    HW229520   7.398   9.419   9.573 -0.1688 -0.3766  1.4913
 9648SOL     OW29521   8.894   9.228   2.652 -0.8214 -0.5088 -0.0200
 9648SOL    HW129522   8.897   9.244   2.747  2.1209 -0.6310  0.0085
 9648SOL    HW229523   8.818   9.277   2.622 -2.7771 -1.6851  2.5653
 9649SOL     OW29524   1.256   0.579   2.360 -0.3906 -0.7685  0.3727
 9649SOL    HW129525   1.275   0.594   2.268  1.6212 -0.7873  0.7455
 9649SOL    HW229526   1.164   0.604   2.370 -0.0454  1.3106 -1.1653
 9650SOL     OW29527   7.236   0.840   5.389 -0.6722 -0.2417  0.3907
 9650SOL    HW129528   7.314   0.845   5.334 -0.7445 -1.6830  0.1071
 9650SOL    HW229529   7.177   0.906   5.355 -0.2623 -0.3378 -0.5241
 9651SOL     OW29530   2.268   4.580   0.462 -0.2783 -0.5628 -0.3048
 9651SOL    HW129531   2.193   4.523   0.478 -1.6216  0.7226 -1.8090
 9651SOL    HW229532   2.243   4.635   0.388  2.0153  0.1636 -0.6423
 9652SOL     OW29533   1.222   4.811   3.803  0.2131  0.0822 -0.1787
 9652SOL    HW129534   1.188   4.848   3.884 -0.2259 -0.7792  0.0427
 9652SOL    HW229535   1.205   4.717   3.810 -1.0755  0.1201 -1.8225
 9653SOL     OW29536   3.327   9.236   1.797  0.5489  0.2270  0.2100
 9653SOL    HW129537   3.256   9.269   1.852  1.1207  1.8584  0.0045
 9653SOL    HW229538   3.334   9.143   1.821 -1.1942  0.1876  0.7037
 9654SOL     OW29539   8.340   0.411   2.938  0.3227 -0.2993  0.3824
 9654SOL    HW129540   8.339   0.494   2.890 -1.6355 -0.7904 -0.5391
 9654SOL    HW229541   8.409   0.360   2.897  2.2970  1.2083  1.6577
 9655SOL     OW29542   0.502   1.801   5.588  0.2225 -0.0935 -0.3539
 9655SOL    HW129543   0.586   1.784   5.631  0.4797  0.5240 -0.6053
 9655SOL    HW229544   0.487   1.725   5.533  0.6334 -0.1906 -0.3332
 9656SOL     OW29545   0.948   3.763   6.332 -0.4741  0.0983  0.2032
 9656SOL    HW129546   0.907   3.755   6.246 -2.2759  0.0152  1.0317
 9656SOL    HW229547   0.983   3.676   6.351  0.7794  0.3500 -0.8169
 9657SOL     OW29548   2.370   0.127   7.333 -0.0875  0.1683 -0.3118
 9657SOL    HW129549   2.351   0.115   7.240  0.2434  0.0671 -0.3682
 9657SOL    HW229550   2.341   0.045   7.373 -0.0037  0.1135 -0.3617
 9658SOL     OW29551   6.841   2.021   7.771 -0.4647 -0.4387  0.2540
 9658SOL    HW129552   6.887   1.940   7.794  0.5866  0.0848  0.0498
 9658SOL    HW229553   6.756   1.991   7.738 -0.4628 -1.4008  1.0553
 9659SOL     OW29554   6.393   9.043   7.421 -0.1467 -0.2670  0.2144
 9659SOL    HW129555   6.421   9.131   7.446  1.0411 -0.9468  1.3759
 9659SOL    HW229556   6.341   9.056   7.341 -1.2501  1.6331  1.1773
 9660SOL     OW29557   8.474   8.496   3.749  0.0542 -0.5816 -0.3152
 9660SOL    HW129558   8.428   8.416   3.773 -1.2036 -0.9891 -3.5864
 9660SOL    HW229559   8.558   8.467   3.714 -0.3981 -0.5013 -1.4935
 9661SOL     OW29560   4.778   8.672   1.250 -0.8789 -0.2018  0.1870
 9661SOL    HW129561   4.748   8.762   1.246 -1.9818 -0.4845  1.3443
 9661SOL    HW229562   4.716   8.624   1.196 -0.3199 -0.2810 -0.3930
 9662SOL     OW29563   0.522   9.183   2.208 -1.1936 -0.2204 -0.6147
 9662SOL    HW129564   0.573   9.103   2.196  1.6474  1.3073  0.4070
 9662SOL    HW229565   0.502   9.212   2.119 -1.0335 -1.2784 -1.0163
 9663SOL     OW29566   2.523   6.911   7.846  0.1267 -0.2334 -0.5985
 9663SOL    HW129567   2.429   6.925   7.836 -0.0172 -0.7205  0.0052
 9663SOL    HW229568   2.542   6.831   7.797  0.0755 -0.5877 -0.0473
 9664SOL     OW29569   2.297   8.314   9.644  0.0682  0.2111  0.1010
 9664SOL    HW129570   2.274   8.296   9.735  0.0621 -0.4927 -0.0279
 9664SOL    HW229571   2.378   8.365   9.648  0.0363  0.2327  0.4979
 9665SOL     OW29572   1.887   4.347   4.562  0.1527  0.0212  0.0244
 9665SOL    HW129573   1.802   4.378   4.533  0.6461  0.2842 -1.2473
 9665SOL    HW229574   1.931   4.424   4.597  0.6967  0.4257 -1.4500
 9666SOL     OW29575   8.087   3.401   8.205  0.3637  0.4780  0.0548
 9666SOL    HW129576   8.029   3.325   8.213  1.1784 -0.2708 -0.9059
 9666SOL    HW229577   8.030   3.473   8.180 -0.2846 -0.0318  0.0583
 9667SOL     OW29578   9.462   4.121   2.128  0.0613 -0.1879  0.2821
 9667SOL    HW129579   9.507   4.049   2.172  0.3990 -0.3585 -0.3324
 9667SOL    HW229580   9.413   4.165   2.198  1.4600  0.2225  1.0422
 9668SOL     OW29581   8.946   0.746   3.390  0.0259 -0.0240 -0.0692
 9668SOL    HW129582   8.909   0.670   3.435 -0.1543  1.5426  2.6665
 9668SOL    HW229583   8.870   0.802   3.372  0.2668 -0.0287 -1.1590
 9669SOL     OW29584   5.463   1.833   0.661 -0.1403  0.2145 -0.2615
 9669SOL    HW129585   5.520   1.900   0.623 -1.1107  1.0529 -0.2844
 9669SOL    HW229586   5.481   1.754   0.610  0.6201  0.5981 -0.6014
 9670SOL     OW29587   1.816   2.186   4.596 -0.2756 -0.4698 -0.0164
 9670SOL    HW129588   1.733   2.192   4.644 -0.5745 -2.5916 -0.1568
 9670SOL    HW229589   1.882   2.206   4.662 -0.8539  1.1322  0.1261
 9671SOL     OW29590   7.158   0.209   5.665 -0.3959 -0.2207 -0.3379
 9671SOL    HW129591   7.182   0.258   5.744 -0.9384 -0.8464  0.2306
 9671SOL    HW229592   7.167   0.272   5.594  1.6439 -0.0699 -0.0012
 9672SOL     OW29593   2.002   1.540   1.208  0.2448 -1.0009 -0.0486
 9672SOL    HW129594   2.010   1.456   1.254  0.7709 -0.6595  0.5011
 9672SOL    HW229595   1.910   1.545   1.184  0.1326 -1.5686  0.2443
 9673SOL     OW29596   1.330   8.850   5.038 -0.2678 -0.0873 -0.4437
 9673SOL    HW129597   1.291   8.916   4.980  0.4145  0.2451 -0.5363
 9673SOL    HW229598   1.401   8.896   5.083  0.5119 -0.8564 -0.8384
 9674SOL     OW29599   8.733   6.512   9.211 -0.2203  0.4384  0.0673
 9674SOL    HW129600   8.640   6.490   9.204 -0.2542  1.1443 -2.4238
 9674SOL    HW229601   8.746   6.584   9.150  2.2508 -0.5766 -0.7430
 9675SOL     OW29602   1.929   4.469   9.569  0.3263 -0.2046 -0.2773
 9675SOL    HW129603   1.855   4.409   9.560 -0.4762  0.5877  0.8298
 9675SOL    HW229604   2.006   4.411   9.578 -0.4015 -1.0662  0.6131
 9676SOL     OW29605   5.173   8.610   4.817  0.2826 -0.3202  0.2240
 9676SOL    HW129606   5.230   8.635   4.890 -0.6516  1.8882  0.2857
 9676SOL    HW229607   5.216   8.646   4.740  0.3455 -1.0703 -0.0989
 9677SOL     OW29608   2.107   2.199   4.369  0.2437 -0.1320  0.4289
 9677SOL    HW129609   2.106   2.103   4.370  0.9418 -0.2189 -1.8806
 9677SOL    HW229610   2.149   2.223   4.452 -0.7768 -1.7536  1.4801
 9678SOL     OW29611   7.337   4.744   1.307 -0.6323 -0.1760  0.1216
 9678SOL    HW129612   7.376   4.742   1.395 -1.8983  2.1895  0.8297
 9678SOL    HW229613   7.408   4.773   1.250  0.3880 -2.3543  0.1604
 9679SOL     OW29614   2.715   3.212   1.503 -0.3379 -0.1976 -0.0976
 9679SOL    HW129615   2.659   3.145   1.543  0.5919 -0.9101  0.0422
 9679SOL    HW229616   2.730   3.276   1.573 -1.3033  0.2351 -0.2586
 9680SOL     OW29617   2.472   9.586   6.970 -0.0914  0.7955  0.1396
 9680SOL    HW129618   2.555   9.549   6.941  1.4703  3.7626  0.4557
 9680SOL    HW229619   2.416   9.510   6.988  2.0646 -1.2608 -1.3876
 9681SOL     OW29620   5.245   3.930   3.632 -0.1981  0.1327 -0.4169
 9681SOL    HW129621   5.337   3.950   3.618 -0.0037 -0.1276  0.4121
 9681SOL    HW229622   5.216   3.992   3.699 -0.3851 -0.3441 -0.0439
 9682SOL     OW29623   6.384   3.931   5.902 -0.4049 -0.0554  0.2075
 9682SOL    HW129624   6.407   4.024   5.909 -1.0943 -0.0050  2.8420
 9682SOL    HW229625   6.304   3.923   5.954 -0.5097 -2.1047 -0.2001
 9683SOL     OW29626   8.761   0.831   9.238  0.3992  0.2775 -0.2808
 9683SOL    HW129627   8.787   0.919   9.212  0.0905  0.9122  1.4711
 9683SOL    HW229628   8.781   0.826   9.331 -2.0754 -0.5427  0.2757
 9684SOL     OW29629   5.258   6.659   1.446 -0.3781 -0.1602 -0.1490
 9684SOL    HW129630   5.330   6.657   1.509  0.0285 -0.9427 -0.6270
 9684SOL    HW229631   5.191   6.713   1.488 -0.4608 -1.3476  1.3434
 9685SOL     OW29632   6.357   1.234   4.501 -0.1306 -0.2460  0.1370
 9685SOL    HW129633   6.371   1.265   4.590 -2.0431  0.0135  0.3856
 9685SOL    HW229634   6.314   1.150   4.511 -1.2795  0.2394 -0.5081
 9686SOL     OW29635   8.513   8.930   4.991 -0.3071 -0.1321 -0.8214
 9686SOL    HW129636   8.494   8.880   5.070  0.3929 -0.1343 -0.6489
 9686SOL    HW229637   8.501   8.868   4.919  2.2985 -1.1066 -0.5137
 9687SOL     OW29638   2.315   0.078   0.131  0.1000  0.2894  0.7150
 9687SOL    HW129639   2.297   0.007   0.069  2.4287 -0.2262  0.5421
 9687SOL    HW229640   2.405   0.102   0.114  0.6687  0.5024  3.5522
 9688SOL     OW29641   4.542   8.323   3.207  0.0993  0.2284  0.2725
 9688SOL    HW129642   4.579   8.235   3.197 -0.0550  0.3034 -1.3106
 9688SOL    HW229643   4.479   8.330   3.136 -0.8937  1.1412  1.2243
 9689SOL     OW29644   1.691   9.403   4.696  0.4830  0.1151  0.1160
 9689SOL    HW129645   1.660   9.493   4.691  0.8229  0.3329  1.5442
 9689SOL    HW229646   1.786   9.409   4.688  0.5016 -0.1325  0.1326
 9690SOL     OW29647   7.350   5.935   8.896  0.3329 -0.2758  0.2650
 9690SOL    HW129648   7.290   5.916   8.824  0.8677  2.0916 -0.8703
 9690SOL    HW229649   7.414   5.864   8.892  1.7861  0.9843 -3.2571
 9691SOL     OW29650   9.158   0.542   2.560  0.2150 -0.2565 -0.5664
 9691SOL    HW129651   9.101   0.533   2.637 -0.8185 -1.8950 -1.4681
 9691SOL    HW229652   9.110   0.600   2.501  0.5483  0.1885 -0.4086
 9692SOL     OW29653   3.427   8.543   7.401 -0.3806  0.6268 -0.2286
 9692SOL    HW129654   3.397   8.491   7.476  0.1224  0.8666  0.1478
 9692SOL    HW229655   3.440   8.479   7.331  0.4889  0.2049  0.3087
 9693SOL     OW29656   3.901   9.812   9.453 -0.1431 -0.0492 -0.8354
 9693SOL    HW129657   3.867   9.764   9.529 -1.2669  0.2758 -1.1151
 9693SOL    HW229658   3.835   9.878   9.434  1.4203  1.7311 -0.3939
 9694SOL     OW29659   9.842   8.218   7.634  0.3589 -0.2439 -0.3307
 9694SOL    HW129660   9.875   8.276   7.566  1.0730 -2.4251 -1.9573
 9694SOL    HW229661   9.888   8.135   7.620 -1.2003 -1.4904  1.3389
 9695SOL     OW29662   2.229   0.342   4.999  0.3706 -0.5558  0.8037
 9695SOL    HW129663   2.208   0.252   4.977  0.7151 -0.7109  1.1018
 9695SOL    HW229664   2.299   0.336   5.065 -0.4568 -0.1053  1.7568
 9696SOL     OW29665   5.562   1.750   3.163 -0.0973 -0.5407  0.4100
 9696SOL    HW129666   5.567   1.699   3.244 -0.2802  0.6181  1.1722
 9696SOL    HW229667   5.493   1.815   3.180  1.6464  1.4217  0.3409
 9697SOL     OW29668   5.745   2.339   5.454  0.0303 -0.4606  0.0770
 9697SOL    HW129669   5.718   2.426   5.484  2.6907 -0.3554  2.5541
 9697SOL    HW229670   5.677   2.280   5.487 -0.6114  0.4247  0.3671
 9698SOL     OW29671   3.549   6.018   4.964  0.3888 -0.2357  0.4118
 9698SOL    HW129672   3.639   6.046   4.979  0.4010 -0.1219  0.1416
 9698SOL    HW229673   3.546   5.997   4.871 -0.5544  2.4349 -0.2745
 9699SOL     OW29674   9.725   9.241   8.331 -0.4087  0.4690 -0.0612
 9699SOL    HW129675   9.783   9.223   8.406 -0.4653  0.2094 -0.0778
 9699SOL    HW229676   9.760   9.321   8.293  0.4909 -0.1638 -0.6054
 9700SOL     OW29677   2.008   8.687   0.868  0.8594  0.1450 -0.4269
 9700SOL    HW129678   1.914   8.691   0.883  1.0526 -0.1154  1.0276
 9700SOL    HW229679   2.028   8.769   0.822 -0.1525 -0.1063 -1.3657
 9701SOL     OW29680   1.509   3.731   7.010 -0.4212  0.5427  0.0239
 9701SOL    HW129681   1.460   3.651   6.990  1.1746  0.0010 -2.0392
 9701SOL    HW229682   1.585   3.701   7.059  1.1606  0.4366 -2.3264
 9702SOL     OW29683   2.577   4.735   8.154 -0.6792  0.6654 -0.2042
 9702SOL    HW129684   2.543   4.722   8.066  0.5947 -2.4320 -0.3760
 9702SOL    HW229685   2.650   4.795   8.143 -0.5723  0.3634 -1.2832
 9703SOL     OW29686   7.949   1.096   6.562 -0.4184 -0.1852  0.1928
 9703SOL    HW129687   7.993   1.120   6.480 -0.3693 -0.5554  0.1083
 9703SOL    HW229688   7.977   1.006   6.579  0.3421  0.2117  1.1435
 9704SOL     OW29689   6.381   4.029   1.348  0.6883  0.2674 -0.0941
 9704SOL    HW129690   6.324   4.084   1.295  0.1052  0.4819  0.7362
 9704SOL    HW229691   6.366   4.058   1.438 -0.3145 -1.8534  0.4727
 9705SOL     OW29692   7.776   9.571   5.470 -0.3626  0.0992  0.2965
 9705SOL    HW129693   7.741   9.499   5.523 -1.1196  1.8496  2.2817
 9705SOL    HW229694   7.870   9.572   5.491 -0.1673 -0.8063 -0.4255
 9706SOL     OW29695   0.320   7.942   3.996  1.0427  0.1148  0.0999
 9706SOL    HW129696   0.367   7.864   3.965 -0.1239 -0.9074  0.8416
 9706SOL    HW229697   0.231   7.930   3.964  0.5989  0.6315  1.1216
 9707SOL     OW29698   5.306   0.879   7.747  0.0109 -0.0127 -0.0682
 9707SOL    HW129699   5.394   0.844   7.734 -0.5521 -1.8456  0.7298
 9707SOL    HW229700   5.265   0.877   7.660  0.2857 -0.5126 -0.1847
 9708SOL     OW29701   9.036   2.521   9.315  0.5468 -0.4944  0.4126
 9708SOL    HW129702   8.994   2.469   9.384 -1.1041  1.1341  0.7190
 9708SOL    HW229703   8.991   2.493   9.235 -0.4508  0.5062  0.5982
 9709SOL     OW29704   2.925   3.846   2.631  0.2974  0.3421  0.2431
 9709SOL    HW129705   2.931   3.795   2.550  3.2032  1.2874 -0.2486
 9709SOL    HW229706   2.961   3.789   2.699 -3.5717 -1.0820  1.4128
 9710SOL     OW29707   0.709   6.523   7.496  0.5720  0.5119 -0.0771
 9710SOL    HW129708   0.712   6.551   7.404  2.5477  0.1079 -0.1761
 9710SOL    HW229709   0.652   6.447   7.495  0.2510  0.7433 -0.8942
 9711SOL     OW29710   7.441   9.892   2.595  0.3520  0.0304  0.3806
 9711SOL    HW129711   7.462   9.873   2.503  0.4156  0.4270  0.3126
 9711SOL    HW229712   7.371   9.958   2.591 -0.4054 -0.7292  0.6102
 9712SOL     OW29713   4.566   0.887   1.918  0.4343 -0.1062  0.3473
 9712SOL    HW129714   4.563   0.878   1.823 -3.4499 -1.4279  0.4112
 9712SOL    HW229715   4.613   0.808   1.947  0.3412 -0.4630 -0.4256
 9713SOL     OW29716   3.267   7.474   7.483 -0.0067 -0.2608 -0.2299
 9713SOL    HW129717   3.272   7.524   7.564  0.9656 -2.1489  0.9266
 9713SOL    HW229718   3.338   7.410   7.489  0.7030  0.1295 -3.0070
 9714SOL     OW29719   4.967   2.226   7.487 -0.3915 -0.2643  0.1587
 9714SOL    HW129720   4.925   2.240   7.572 -0.0801  1.2476  0.0870
 9714SOL    HW229721   5.049   2.275   7.492 -0.9329  0.9008 -1.4248
 9715SOL     OW29722   9.005   8.134   3.004 -0.3580 -0.1469  0.1326
 9715SOL    HW129723   8.954   8.064   2.963 -1.5990  0.4895  0.5599
 9715SOL    HW229724   9.000   8.207   2.943  0.9316 -0.3865 -0.3082
 9716SOL     OW29725   1.473   4.901   1.637  0.2073 -0.6991  0.0551
 9716SOL    HW129726   1.559   4.896   1.595  0.5253 -2.5670  0.8213
 9716SOL    HW229727   1.486   4.964   1.708  0.2272  0.8864 -1.2755
 9717SOL     OW29728   9.230   0.022   2.150 -0.0861  0.7251  0.5657
 9717SOL    HW129729   9.268   0.091   2.203  1.8473 -0.1064  0.3290
 9717SOL    HW229730   9.214  -0.050   2.211  0.1763  0.5132  0.3859
 9718SOL     OW29731   4.595   6.541   1.903  0.7353 -0.1930  0.1037
 9718SOL    HW129732   4.574   6.523   1.812 -4.2332 -1.5073  1.1736
 9718SOL    HW229733   4.569   6.633   1.916 -0.0591 -0.4513  0.4455
 9719SOL     OW29734   1.291   3.651   4.793 -0.1918 -0.0135  0.0668
 9719SOL    HW129735   1.342   3.730   4.780 -1.8424  1.7380  3.1521
 9719SOL    HW229736   1.201   3.676   4.773 -0.8463 -0.8590  1.7084
 9720SOL     OW29737   6.583   2.849   4.903  0.8008 -0.4750  0.1236
 9720SOL    HW129738   6.556   2.769   4.858  3.2467 -1.8197  0.8768
 9720SOL    HW229739   6.664   2.825   4.949  0.7941  2.0280  1.6288
 9721SOL     OW29740   9.353   5.680   4.103 -0.0567 -0.0020 -0.0485
 9721SOL    HW129741   9.395   5.603   4.142  0.9774  0.5629 -0.0401
 9721SOL    HW229742   9.384   5.681   4.013  0.7304  0.9657  0.2188
 9722SOL     OW29743   1.159   7.782   0.642 -0.4302  0.1089  0.2026
 9722SOL    HW129744   1.155   7.764   0.548 -0.4010  2.5837 -0.3534
 9722SOL    HW229745   1.238   7.835   0.652  1.0800 -2.2998  2.1178
 9723SOL     OW29746   7.387   1.625   4.030  0.1612  0.0992 -0.3029
 9723SOL    HW129747   7.441   1.637   3.952 -0.0690 -0.3004 -0.5289
 9723SOL    HW229748   7.297   1.634   3.999  0.0140 -1.1498 -0.3116
 9724SOL     OW29749   6.612   6.258   9.850 -0.1809 -0.1115  0.4089
 9724SOL    HW129750   6.664   6.202   9.792  1.8274  1.5389  0.4803
 9724SOL    HW229751   6.629   6.224   9.938  1.3565  0.7532  0.4903
 9725SOL     OW29752   7.773   8.334   1.291  0.5574  0.0238 -0.0042
 9725SOL    HW129753   7.755   8.243   1.270 -0.1798  0.0749  0.3853
 9725SOL    HW229754   7.689   8.378   1.284  0.7080  0.4749  0.7911
 9726SOL     OW29755   5.771   4.346   5.386 -0.0347 -0.3021  0.4205
 9726SOL    HW129756   5.780   4.317   5.295  1.4170  0.5097  0.2677
 9726SOL    HW229757   5.714   4.281   5.427 -1.6773 -0.0645 -1.3289
 9727SOL     OW29758   7.143   2.841   2.831  0.1009 -0.7212  0.2446
 9727SOL    HW129759   7.212   2.797   2.881 -0.2716 -2.3831 -0.6336
 9727SOL    HW229760   7.183   2.861   2.746  0.4220  1.1773  0.7942
 9728SOL     OW29761   0.973   9.479   9.544 -0.1790  0.4142 -0.1740
 9728SOL    HW129762   0.938   9.430   9.470  2.0057 -1.2520 -0.2257
 9728SOL    HW229763   0.995   9.565   9.508 -2.2207  0.8205 -0.5836
 9729SOL     OW29764   4.452   9.018   8.972 -0.3421 -0.2073  0.1308
 9729SOL    HW129765   4.512   9.000   9.044 -1.3401 -0.9847  0.7898
 9729SOL    HW229766   4.375   9.057   9.014 -1.5624 -2.0676 -0.2880
 9730SOL     OW29767   2.623   5.498   2.434  0.2795 -0.0470  0.4349
 9730SOL    HW129768   2.652   5.429   2.375 -1.3186  0.2631 -0.8118
 9730SOL    HW229769   2.655   5.579   2.395 -2.1993  0.3238 -1.0979
 9731SOL     OW29770   2.471   1.122   7.199  0.2880 -0.5286  0.4090
 9731SOL    HW129771   2.380   1.146   7.216  0.4097  0.4172 -0.1841
 9731SOL    HW229772   2.522   1.195   7.234  0.6697  0.1675 -1.4766
 9732SOL     OW29773   1.162   1.284   1.009 -0.2560 -0.4374  0.1904
 9732SOL    HW129774   1.235   1.242   1.055 -0.4275 -0.2091  0.6817
 9732SOL    HW229775   1.086   1.230   1.030 -0.4039 -0.1178  0.4957
 9733SOL     OW29776   9.451   9.354   1.606  0.1195 -0.2957  0.4262
 9733SOL    HW129777   9.504   9.275   1.608  1.3191  0.4644 -0.0973
 9733SOL    HW229778   9.391   9.345   1.680 -0.3790 -2.0798 -0.1403
 9734SOL     OW29779   9.664   7.469   5.669  0.2861 -0.1897 -0.0108
 9734SOL    HW129780   9.707   7.551   5.691  0.7870 -0.5802  0.4989
 9734SOL    HW229781   9.610   7.490   5.593 -1.4340  1.1921  1.4952
 9735SOL     OW29782   0.029   2.598   7.374  0.7813 -0.3670 -0.3331
 9735SOL    HW129783   0.031   2.671   7.313 -0.3911  0.0826  0.1467
 9735SOL    HW229784   0.005   2.637   7.458 -1.3346 -1.4612 -0.3600
 9736SOL     OW29785   9.309   0.570   4.176 -0.3810  0.3781 -0.1155
 9736SOL    HW129786   9.226   0.609   4.204 -0.5456  0.5018 -0.7626
 9736SOL    HW229787   9.376   0.625   4.218 -0.6029 -0.5826  1.5815
 9737SOL     OW29788   2.198   0.320   3.218  0.6239  0.1388  0.6899
 9737SOL    HW129789   2.200   0.326   3.123 -0.6227  2.1088  0.7325
 9737SOL    HW229790   2.119   0.270   3.238 -0.8143  2.2536  0.6693
 9738SOL     OW29791   0.140   0.472   5.544  0.0038 -0.4540  0.3821
 9738SOL    HW129792   0.086   0.510   5.613  0.4127  0.6541  0.1144
 9738SOL    HW229793   0.186   0.399   5.587 -0.1157 -0.0816  1.1571
 9739SOL     OW29794   5.443   6.185   0.108  0.3773  0.6953 -0.1474
 9739SOL    HW129795   5.531   6.146   0.106  0.3106  0.3994  1.5094
 9739SOL    HW229796   5.405   6.153   0.189 -0.7510  1.9631 -0.1509
 9740SOL     OW29797   3.772   7.080   9.157 -0.2504 -0.5477 -0.2876
 9740SOL    HW129798   3.731   7.115   9.078 -0.7296 -2.4311 -0.9229
 9740SOL    HW229799   3.862   7.060   9.131 -0.7942 -2.4979 -0.8337
 9741SOL     OW29800   0.688   0.528   4.529  0.1583  0.0368 -0.1729
 9741SOL    HW129801   0.758   0.464   4.517 -1.7667 -2.1639 -0.4318
 9741SOL    HW229802   0.677   0.567   4.442  1.6629  1.1477  0.0944
 9742SOL     OW29803   3.002   2.269   3.906 -0.2689 -0.4718  0.4332
 9742SOL    HW129804   3.052   2.282   3.987 -0.4658 -0.5850  0.5725
 9742SOL    HW229805   3.069   2.256   3.839 -0.0646  0.7224  0.3746
 9743SOL     OW29806   9.343   5.327   2.797  0.0664  0.0735 -0.3572
 9743SOL    HW129807   9.395   5.407   2.813 -0.5321  0.4168 -0.0865
 9743SOL    HW229808   9.408   5.257   2.792  0.7638  0.8008 -2.3121
 9744SOL     OW29809   3.444   7.798   0.266 -0.3211 -0.7936 -0.0938
 9744SOL    HW129810   3.365   7.844   0.238 -1.1965 -0.5600  2.4939
 9744SOL    HW229811   3.411   7.719   0.309  0.7907 -0.4721  1.4359
 9745SOL     OW29812   4.828   2.479   4.028 -0.2458 -0.3683  0.1043
 9745SOL    HW129813   4.816   2.537   4.104  1.8101  0.0272  0.1836
 9745SOL    HW229814   4.859   2.536   3.959 -0.6077 -1.0007 -0.5946
 9746SOL     OW29815   7.206   0.540   0.033  0.4047  0.1313 -0.8516
 9746SOL    HW129816   7.239   0.455   0.005 -2.6613 -1.2619 -0.6096
 9746SOL    HW229817   7.254   0.559   0.113  1.3169 -1.2423 -1.0370
 9747SOL     OW29818   9.732   9.365   3.727 -0.4009  0.2508 -0.3301
 9747SOL    HW129819   9.733   9.269   3.724  0.1957  0.2058  0.7735
 9747SOL    HW229820   9.683   9.391   3.649 -2.4911 -1.0242  0.4670
 9748SOL     OW29821   2.332   6.961   4.956 -0.2819 -0.4964 -0.0073
 9748SOL    HW129822   2.398   7.030   4.943 -1.4148  0.2563 -2.3514
 9748SOL    HW229823   2.383   6.885   4.986  1.8189 -0.1109 -2.2171
 9749SOL     OW29824   2.421   9.547   9.528 -0.0096  0.0317 -0.3248
 9749SOL    HW129825   2.380   9.467   9.562  1.4936 -1.2672 -1.4731
 9749SOL    HW229826   2.431   9.532   9.434 -1.0598  2.2211 -0.8699
 9750SOL     OW29827   0.395   7.707   1.267 -0.0513  0.3881 -0.0089
 9750SOL    HW129828   0.488   7.727   1.258  0.2665 -0.4843  1.1089
 9750SOL    HW229829   0.392   7.613   1.285 -1.0775  0.5654  0.9014
 9751SOL     OW29830   5.002   3.141   6.339  0.2665 -0.4835 -0.0478
 9751SOL    HW129831   5.044   3.165   6.422  2.1674 -1.4986 -0.6805
 9751SOL    HW229832   4.936   3.076   6.364 -2.0993  2.1348  1.1419
 9752SOL     OW29833   8.720   0.466   7.916 -0.7228 -0.1500  0.0368
 9752SOL    HW129834   8.741   0.519   7.839 -2.9168 -1.3824 -1.5427
 9752SOL    HW229835   8.739   0.523   7.990  1.2682  1.1845 -1.3702
 9753SOL     OW29836   6.817   2.269   1.150 -0.4303  0.5043  0.5108
 9753SOL    HW129837   6.742   2.254   1.093  0.0660  0.2995 -0.0960
 9753SOL    HW229838   6.831   2.364   1.147  1.4570  0.2566 -2.1714
 9754SOL     OW29839   4.540   3.322   5.980  0.5800 -0.0079  0.0945
 9754SOL    HW129840   4.581   3.240   6.005  2.2971  0.8502  0.2137
 9754SOL    HW229841   4.580   3.345   5.896  1.3613  1.4847  0.8302
 9755SOL     OW29842   3.723   6.153   2.221 -0.1195 -0.4554 -0.4359
 9755SOL    HW129843   3.745   6.080   2.279  0.9257  1.1857  1.3745
 9755SOL    HW229844   3.675   6.214   2.277 -1.8870 -0.1635 -2.1739
 9756SOL     OW29845   7.273   0.138   2.592  0.0251  0.2925  0.3927
 9756SOL    HW129846   7.179   0.157   2.599 -0.2148 -0.3385 -0.8802
 9756SOL    HW229847   7.304   0.198   2.524  0.5972  0.6378  0.9508
 9757SOL     OW29848   0.140   5.638   5.316 -0.3710  0.1714 -0.0989
 9757SOL    HW129849   0.212   5.689   5.282 -0.8847  0.8511 -0.1868
 9757SOL    HW229850   0.067   5.699   5.321 -1.3203 -0.8023 -1.2720
 9758SOL     OW29851   4.655   8.478   3.896 -0.0359  0.0654  0.6616
 9758SOL    HW129852   4.711   8.544   3.854  0.0059 -0.7086 -0.5420
 9758SOL    HW229853   4.566   8.505   3.874  0.0236 -1.1598 -1.2701
 9759SOL     OW29854   1.818   6.907   1.268  0.0699  0.1516  0.2504
 9759SOL    HW129855   1.764   6.983   1.291 -0.2667  0.4027 -1.2417
 9759SOL    HW229856   1.759   6.850   1.219  0.0043 -1.6449  2.2777
 9760SOL     OW29857   0.967   5.157   8.962 -0.5575 -0.0772 -0.0850
 9760SOL    HW129858   1.029   5.148   8.890 -1.5909 -2.1287 -0.7970
 9760SOL    HW229859   0.972   5.075   9.009 -1.0982  0.6061  1.2123
 9761SOL     OW29860   6.373   1.115   5.575  0.1214  0.4596 -0.4208
 9761SOL    HW129861   6.303   1.132   5.512  0.4157  1.5574 -0.4752
 9761SOL    HW229862   6.429   1.192   5.569  1.5523 -0.5567 -0.6447
 9762SOL     OW29863   1.380   6.055   5.203 -0.1061 -0.3848  0.5431
 9762SOL    HW129864   1.396   6.148   5.185  0.0276 -0.7489 -1.4021
 9762SOL    HW229865   1.456   6.028   5.254 -0.7485  0.8285  2.2453
 9763SOL     OW29866   7.944   9.293   6.692 -0.0619  0.2225  0.7482
 9763SOL    HW129867   7.972   9.380   6.666 -0.9013  0.1386 -0.5010
 9763SOL    HW229868   8.020   9.256   6.737  0.1717  1.7275  1.6673
 9764SOL     OW29869   2.314   2.609   8.933  0.2544  0.5090 -0.1406
 9764SOL    HW129870   2.307   2.627   9.027  3.1563  0.8834  0.0840
 9764SOL    HW229871   2.317   2.514   8.927 -0.5676  0.4644  0.0721
 9765SOL     OW29872   7.679   5.452   0.541 -0.5284  0.4110  0.1082
 9765SOL    HW129873   7.601   5.396   0.545  0.2663 -0.6738  0.9101
 9765SOL    HW229874   7.752   5.392   0.554  0.3641  1.6224  0.8183
 9766SOL     OW29875   5.109   7.016   7.082  0.4159 -0.7272  0.1283
 9766SOL    HW129876   5.076   7.017   7.172  3.0895  0.4677  1.2010
 9766SOL    HW229877   5.170   6.942   7.079  1.5457  0.1869 -0.1834
 9767SOL     OW29878   8.130   6.009   4.359 -0.0104 -0.1730 -0.8796
 9767SOL    HW129879   8.038   6.014   4.334 -0.3173 -0.0525  0.2368
 9767SOL    HW229880   8.144   5.917   4.380 -0.0899 -0.0473 -0.2681
 9768SOL     OW29881   7.726   2.001   7.127  0.6572  0.1885 -0.2872
 9768SOL    HW129882   7.739   1.931   7.063 -0.6388 -0.2257 -0.1321
 9768SOL    HW229883   7.664   2.060   7.084 -0.3773 -0.1964  0.6528
 9769SOL     OW29884   4.104   8.776   3.591  0.4106 -0.1422 -0.1556
 9769SOL    HW129885   4.146   8.691   3.601  0.7671 -0.0122 -0.5372
 9769SOL    HW229886   4.035   8.777   3.658  0.3461 -0.7640 -0.2098
 9770SOL     OW29887   6.571   1.636   9.058 -0.0257 -0.2896 -0.5599
 9770SOL    HW129888   6.620   1.699   9.005  0.0032 -0.5746 -0.8693
 9770SOL    HW229889   6.617   1.553   9.047  0.7849 -0.0959  0.9694
 9771SOL     OW29890   9.291   8.913   4.491 -0.1598 -0.7485 -0.1859
 9771SOL    HW129891   9.268   8.918   4.398  0.4788 -1.2206 -0.3770
 9771SOL    HW229892   9.386   8.903   4.492 -0.0846 -0.0606  0.5459
 9772SOL     OW29893   1.890   7.336   8.582  0.2040 -0.1535  0.0916
 9772SOL    HW129894   1.963   7.283   8.615 -1.1471 -2.1054  0.1388
 9772SOL    HW229895   1.853   7.284   8.511 -0.2796  1.4675 -0.8858
 9773SOL     OW29896   6.321   5.352   5.882  0.3347 -0.4557  0.1305
 9773SOL    HW129897   6.251   5.397   5.835  0.3010 -0.6458 -0.0006
 9773SOL    HW229898   6.396   5.411   5.875  0.5460 -0.8225 -0.8145
 9774SOL     OW29899   6.099   6.946   1.135  0.0242 -0.2516 -0.2187
 9774SOL    HW129900   6.045   6.937   1.056 -1.6489  0.3772  0.8071
 9774SOL    HW229901   6.132   7.035   1.132 -0.8599  0.0992  0.2784
 9775SOL     OW29902   6.253   5.768   1.519 -0.0818 -0.0653 -0.2292
 9775SOL    HW129903   6.290   5.722   1.594 -0.4537  0.1789  0.1107
 9775SOL    HW229904   6.179   5.817   1.555 -0.2063  0.1310 -0.7382
 9776SOL     OW29905   8.949   1.635   6.111 -0.2157 -0.4852 -0.2060
 9776SOL    HW129906   8.945   1.683   6.028  2.7054 -0.8365 -0.6735
 9776SOL    HW229907   8.861   1.641   6.147 -1.0410  1.4780 -2.3199
 9777SOL     OW29908   8.446   2.706   1.351  0.1514  0.3458 -0.0829
 9777SOL    HW129909   8.535   2.700   1.386 -0.2647 -2.3598  0.7283
 9777SOL    HW229910   8.395   2.747   1.421  0.3480 -0.1816  0.3789
 9778SOL     OW29911   3.029   5.575   2.036 -0.1068  0.2862 -0.3883
 9778SOL    HW129912   3.073   5.583   1.952  0.4688 -1.0694 -0.2307
 9778SOL    HW229913   3.080   5.631   2.096  1.1247 -0.8606 -0.3262
 9779SOL     OW29914   7.108   2.921   2.121 -0.1204 -0.2657 -0.5824
 9779SOL    HW129915   7.201   2.942   2.120  0.1766 -1.4900 -0.8680
 9779SOL    HW229916   7.081   2.933   2.212  0.4430 -0.4133 -0.3931
 9780SOL     OW29917   4.915   7.923   7.132 -0.3987  0.2109 -0.7954
 9780SOL    HW129918   4.992   7.871   7.110 -0.1611  0.4203 -0.4719
 9780SOL    HW229919   4.918   7.997   7.072 -1.6667 -0.9844 -2.4358
 9781SOL     OW29920   4.893   9.054   3.615  0.4194  0.1468 -0.7691
 9781SOL    HW129921   4.857   9.131   3.571  0.1728  0.8349  0.5764
 9781SOL    HW229922   4.838   9.043   3.693  0.0088 -1.8261 -1.2726
 9782SOL     OW29923   4.465   2.077   2.829 -0.3149  0.4674 -0.5720
 9782SOL    HW129924   4.442   2.163   2.863 -1.3912  0.0545 -0.1894
 9782SOL    HW229925   4.418   2.071   2.746  1.4783  1.0678 -1.6704
 9783SOL     OW29926   6.217   7.656   7.154 -0.0495 -0.0228  0.0787
 9783SOL    HW129927   6.294   7.700   7.118  0.0992 -1.3419 -1.3063
 9783SOL    HW229928   6.239   7.639   7.246 -0.6257  3.8403  1.1217
 9784SOL     OW29929   7.022   3.143   8.571 -0.0521  0.6579  0.1217
 9784SOL    HW129930   7.108   3.178   8.595  0.1394 -0.5968  1.3258
 9784SOL    HW229931   6.992   3.202   8.501  1.4651  1.5364  0.1594
 9785SOL     OW29932   3.369   8.838   9.151 -0.7634 -0.3595 -0.1936
 9785SOL    HW129933   3.431   8.766   9.150  1.1811  1.2317 -1.9424
 9785SOL    HW229934   3.325   8.831   9.236  1.6059 -1.7250  1.0162
 9786SOL     OW29935   0.676   5.583   5.529 -0.4430  0.2555 -0.2517
 9786SOL    HW129936   0.761   5.608   5.493 -1.6954  1.3014 -2.7212
 9786SOL    HW229937   0.645   5.513   5.472 -1.6385  0.5552 -0.0009
 9787SOL     OW29938   0.302   5.698   7.281 -0.7616 -0.1305  0.0837
 9787SOL    HW129939   0.386   5.732   7.249 -1.1280  1.3495  0.5971
 9787SOL    HW229940   0.289   5.616   7.233  0.0169  0.6177 -1.4929
 9788SOL     OW29941   4.160   5.628   1.681 -0.1875  0.2797  0.2066
 9788SOL    HW129942   4.213   5.678   1.743 -1.6646  2.2301  0.0178
 9788SOL    HW229943   4.072   5.666   1.690 -0.7201 -0.2744 -2.1413
 9789SOL     OW29944   1.316   8.170   8.074  1.1628 -0.5060 -0.5708
 9789SOL    HW129945   1.396   8.127   8.042  1.1597  0.0138 -1.2870
 9789SOL    HW229946   1.252   8.158   8.004  1.3179  1.1062 -1.0103
 9790SOL     OW29947   0.418   4.230   0.770  0.0445 -0.0746  0.4207
 9790SOL    HW129948   0.441   4.161   0.832 -1.0126 -0.5200  0.3312
 9790SOL    HW229949   0.324   4.243   0.782  0.0594  0.6965 -0.2235
 9791SOL     OW29950   4.846   8.484   9.591 -0.7427  0.2751  0.1639
 9791SOL    HW129951   4.923   8.464   9.538 -0.9398 -0.7699  0.2588
 9791SOL    HW229952   4.881   8.517   9.673 -0.4323  2.9336 -0.9341
 9792SOL     OW29953   7.019   3.073   4.816  0.3959 -0.1923  0.6042
 9792SOL    HW129954   7.079   3.117   4.755 -1.1991  0.9978 -0.1816
 9792SOL    HW229955   6.951   3.138   4.834 -0.6105 -1.4539  1.5451
 9793SOL     OW29956   7.695   3.751   5.505 -0.4013  0.4443  0.0107
 9793SOL    HW129957   7.770   3.775   5.450 -1.5468  4.0354 -0.2593
 9793SOL    HW229958   7.627   3.726   5.442 -1.1140  2.7185 -0.2152
 9794SOL     OW29959   1.504   1.266   3.673 -0.2364  0.1493  0.5347
 9794SOL    HW129960   1.437   1.198   3.671 -0.3151  0.2006 -1.8080
 9794SOL    HW229961   1.459   1.346   3.647  0.8922 -0.1019 -2.6493
 9795SOL     OW29962   9.970   7.875   0.121  0.2138 -0.2593 -0.2882
 9795SOL    HW129963   9.992   7.921   0.202  0.8881  0.9041 -1.1025
 9795SOL    HW229964   9.977   7.782   0.143 -1.2666 -0.0261  1.4372
 9796SOL     OW29965   1.423   6.569   5.574  0.2858 -0.3350  0.1585
 9796SOL    HW129966   1.477   6.511   5.520 -0.0788 -1.3719  0.8661
 9796SOL    HW229967   1.424   6.653   5.528  0.7395 -0.9307 -0.9646
 9797SOL     OW29968   2.008   8.409   9.596 -0.4677 -0.0318  0.0570
 9797SOL    HW129969   1.942   8.349   9.629  0.5782 -1.7187 -0.7773
 9797SOL    HW229970   2.090   8.361   9.604  0.5166  1.5764  0.0073
 9798SOL     OW29971   0.645   8.464   8.454  0.4641 -0.4103 -0.2771
 9798SOL    HW129972   0.660   8.540   8.510  2.4419 -0.4900 -0.6252
 9798SOL    HW229973   0.550   8.458   8.447  0.2342  1.1928  0.8841
 9799SOL     OW29974   5.690   3.767   3.647  0.2553  0.1766  0.1496
 9799SOL    HW129975   5.728   3.774   3.559  0.2929 -0.0519  0.1479
 9799SOL    HW229976   5.608   3.720   3.634  0.6360 -0.5604  0.3406
 9800SOL     OW29977   8.419   1.497   7.609 -0.0012  0.1539  0.2505
 9800SOL    HW129978   8.477   1.574   7.605 -1.2070  1.4232  3.3843
 9800SOL    HW229979   8.478   1.422   7.600  2.2137  1.3902  2.8038
 9801SOL     OW29980   6.599   7.889   5.092 -0.1829 -0.1317 -0.3443
 9801SOL    HW129981   6.522   7.832   5.091 -0.5312  0.3292 -0.7887
 9801SOL    HW229982   6.672   7.832   5.114 -0.8822 -0.3000  1.7807
 9802SOL     OW29983   5.833   5.089   5.461 -0.3300  0.1616 -0.5807
 9802SOL    HW129984   5.762   5.135   5.504  0.2709  1.3597 -0.8275
 9802SOL    HW229985   5.884   5.051   5.532 -0.1315  0.9409 -0.3063
 9803SOL     OW29986   3.647   3.774   6.360  0.0502  0.1008  0.4838
 9803SOL    HW129987   3.731   3.748   6.398 -0.7666  1.3326  3.4503
 9803SOL    HW229988   3.593   3.695   6.363  0.7627 -0.4352 -0.4731
 9804SOL     OW29989   9.943   1.268   6.974 -0.1192  0.1761 -0.6674
 9804SOL    HW129990  10.039   1.260   6.972 -0.2415 -1.5214 -0.8389
 9804SOL    HW229991   9.925   1.348   6.926  1.2610  1.0279  0.1647
 9805SOL     OW29992   6.028   2.214   1.458  0.3278 -0.2977  0.0940
 9805SOL    HW129993   6.012   2.170   1.542 -0.2660  1.0577  0.7202
 9805SOL    HW229994   6.122   2.202   1.442  0.2911 -1.2668  0.5398
 9806SOL     OW29995   0.547   7.117   3.202 -0.3622  0.2256  0.4724
 9806SOL    HW129996   0.613   7.138   3.267  0.6299  1.0142 -0.7457
 9806SOL    HW229997   0.584   7.147   3.119 -1.1720 -1.5775 -0.6130
 9807SOL     OW29998   8.669   2.742   1.718  0.0149  0.1030 -0.7010
 9807SOL    HW129999   8.695   2.825   1.680  0.4676 -0.0875 -0.8089
 9807SOL    HW230000   8.747   2.710   1.763  0.9801 -1.8953 -3.4872
 9808SOL     OW30001   0.428   7.857   0.920 -0.0423 -0.1690  0.3693
 9808SOL    HW130002   0.454   7.874   1.010  1.1785  0.0560 -0.0042
 9808SOL    HW230003   0.368   7.928   0.898  1.2011  0.9142  0.3870
 9809SOL     OW30004   0.789   4.118   5.584 -0.1421 -0.0345  0.4510
 9809SOL    HW130005   0.849   4.088   5.652 -2.1463 -0.8756  1.9449
 9809SOL    HW230006   0.744   4.039   5.555 -0.8070  0.6112 -0.3248
 9810SOL     OW30007   6.837   4.345   1.548  0.2656  0.2831 -0.2214
 9810SOL    HW130008   6.924   4.374   1.574  0.0337  0.5320  0.2919
 9810SOL    HW230009   6.840   4.249   1.556 -0.3097  0.3873  2.5207
 9811SOL     OW30010   4.322   8.570   0.845 -0.5004  0.5962 -0.0797
 9811SOL    HW130011   4.308   8.661   0.872  1.8272  1.2330 -0.8375
 9811SOL    HW230012   4.413   8.566   0.818 -0.5544 -1.9766 -0.1529
 9812SOL     OW30013   2.484   2.816   3.363 -0.1648 -0.4523 -0.1506
 9812SOL    HW130014   2.547   2.804   3.434  1.6091 -1.3783 -1.7815
 9812SOL    HW230015   2.509   2.899   3.322 -0.5616 -0.3878 -0.2673
 9813SOL     OW30016   4.918   1.881   2.604  0.2279 -0.3000 -0.0903
 9813SOL    HW130017   4.859   1.836   2.544 -0.0152 -1.1709  0.7717
 9813SOL    HW230018   4.938   1.816   2.671 -0.9152  1.1551  1.7510
 9814SOL     OW30019   6.580   9.169   0.164  0.0728 -0.2191 -0.3899
 9814SOL    HW130020   6.579   9.203   0.074  2.4783  1.1149 -0.0082
 9814SOL    HW230021   6.542   9.238   0.217 -0.8104 -0.7663 -0.2971
 9815SOL     OW30022   4.714   8.929   9.438  0.5731  0.0135 -0.5042
 9815SOL    HW130023   4.632   8.919   9.487  0.1506 -0.5293 -1.3048
 9815SOL    HW230024   4.713   9.019   9.407  0.8858  0.3924  0.5436
 9816SOL     OW30025   9.240   3.066   2.131  0.3103  0.2873 -0.2309
 9816SOL    HW130026   9.174   3.118   2.085 -1.5473 -2.0742 -0.4109
 9816SOL    HW230027   9.239   2.981   2.088  1.2226 -0.8285  1.7941
 9817SOL     OW30028   4.664   1.889   6.539  0.1070  0.8201  0.0994
 9817SOL    HW130029   4.746   1.857   6.502 -0.4058 -0.1706 -0.2413
 9817SOL    HW230030   4.679   1.893   6.633 -0.5217 -3.0321  0.5542
 9818SOL     OW30031   2.697   9.834   3.017  0.8885  0.3921  0.1975
 9818SOL    HW130032   2.739   9.866   3.097  0.8910 -2.4736  1.4522
 9818SOL    HW230033   2.604   9.834   3.038  0.9030 -0.5142  0.2739
 9819SOL     OW30034   5.109   3.891   1.803  0.1576 -0.8709 -0.2825
 9819SOL    HW130035   5.029   3.907   1.754 -0.3501 -1.5674  0.2904
 9819SOL    HW230036   5.090   3.921   1.892  0.5825 -0.9100 -0.1738
 9820SOL     OW30037   2.927   3.975   6.615  0.0075  0.0184  0.4603
 9820SOL    HW130038   2.910   4.012   6.702 -0.0705  0.2524  0.3437
 9820SOL    HW230039   2.841   3.973   6.573  0.5740  4.5508 -1.4968
 9821SOL     OW30040   5.882   8.871   8.025 -0.3812  0.0081 -0.2928
 9821SOL    HW130041   5.828   8.814   8.080  0.1237 -0.5346 -0.3368
 9821SOL    HW230042   5.965   8.878   8.072 -0.4092  0.6544 -0.3308
 9822SOL     OW30043   9.222   5.666   8.598 -0.1244 -0.2334  0.4964
 9822SOL    HW130044   9.185   5.578   8.608 -0.0576 -0.4305 -0.7288
 9822SOL    HW230045   9.168   5.721   8.654 -1.4182 -0.7530 -0.1668
 9823SOL     OW30046   6.108   0.414   3.033  0.0391 -0.0605 -0.9308
 9823SOL    HW130047   6.184   0.365   3.004  0.3235  0.1517 -0.5689
 9823SOL    HW230048   6.095   0.482   2.967  0.3284  0.0644 -0.8605
 9824SOL     OW30049   4.138   2.968   2.571 -0.5613  0.0202 -0.3814
 9824SOL    HW130050   4.110   2.967   2.479  0.6380 -0.8469 -0.7710
 9824SOL    HW230051   4.167   3.058   2.586 -2.1620  0.5643 -0.3779
 9825SOL     OW30052   8.440   3.174   9.482  0.0555  0.5233  0.3629
 9825SOL    HW130053   8.516   3.115   9.483  0.0865  0.5040 -1.0665
 9825SOL    HW230054   8.453   3.230   9.559  0.7135 -0.4600  1.0049
 9826SOL     OW30055   5.720   7.573   8.483 -0.0981 -0.0671 -0.4590
 9826SOL    HW130056   5.663   7.521   8.427  1.2803  0.2393 -2.2389
 9826SOL    HW230057   5.769   7.509   8.534  0.7242 -0.5210 -1.7630
 9827SOL     OW30058   4.767   4.993   1.643 -0.3297  0.3760 -0.3802
 9827SOL    HW130059   4.749   5.027   1.555 -0.1786  1.1344 -0.1251
 9827SOL    HW230060   4.701   4.925   1.656 -0.4775  0.3926 -1.0055
 9828SOL     OW30061   0.544   9.958   4.331  0.2676  0.4034  0.3157
 9828SOL    HW130062   0.600   9.881   4.330  0.4410  0.5293  0.3546
 9828SOL    HW230063   0.511   9.966   4.241 -1.5494 -1.0280  0.7870
 9829SOL     OW30064   3.950   5.974   1.633  0.6894 -0.3540  0.7452
 9829SOL    HW130065   4.045   5.982   1.643  0.6075  0.0477  1.2241
 9829SOL    HW230066   3.926   5.895   1.681  0.7317 -0.2523  0.9313
 9830SOL     OW30067   4.062   1.325   4.763 -0.0721  0.4930 -0.4752
 9830SOL    HW130068   3.993   1.259   4.769 -1.3109  1.8780  2.3338
 9830SOL    HW230069   4.032   1.384   4.694 -1.6365  0.9359  0.5382
 9831SOL     OW30070   9.195   6.027   2.441 -0.0194  0.3676 -0.7691
 9831SOL    HW130071   9.160   6.045   2.354 -1.2576  0.3058 -0.3056
 9831SOL    HW230072   9.153   6.092   2.498 -0.8208 -0.8567  0.1092
 9832SOL     OW30073   2.516   7.833   7.166 -0.5607 -0.5209 -0.0391
 9832SOL    HW130074   2.563   7.892   7.225  0.0814 -2.7709  1.8681
 9832SOL    HW230075   2.562   7.840   7.083 -0.1924  1.2397  0.2776
 9833SOL     OW30076   1.109   5.869   0.178  0.1397  0.3277 -0.8102
 9833SOL    HW130077   1.146   5.942   0.129 -0.7535  1.2412 -0.1691
 9833SOL    HW230078   1.177   5.848   0.243  0.2463  0.8769 -0.7301
 9834SOL     OW30079   0.303   8.066   0.736 -0.4707  0.4688 -0.4162
 9834SOL    HW130080   0.374   8.044   0.676  0.2408 -0.0755  0.5984
 9834SOL    HW230081   0.294   8.161   0.728 -1.9268  0.1967 -3.0252
 9835SOL     OW30082   8.529   7.708   3.189  0.3916  0.0517  0.0203
 9835SOL    HW130083   8.582   7.631   3.170 -1.1742 -1.5371  1.6775
 9835SOL    HW230084   8.448   7.694   3.140  1.0479  2.0073 -1.7706
 9836SOL     OW30085   2.254   1.451   1.758  0.5930 -0.4324  0.1711
 9836SOL    HW130086   2.238   1.460   1.852 -1.7277 -0.2954 -0.1846
 9836SOL    HW230087   2.284   1.537   1.730 -2.2584  0.6626  0.2106
 9837SOL     OW30088   1.837   1.831   1.596  0.3274  0.3159 -0.2075
 9837SOL    HW130089   1.914   1.775   1.581  0.2262 -0.3009  1.4057
 9837SOL    HW230090   1.763   1.770   1.599  0.2441  0.4426  1.7856
 9838SOL     OW30091   9.073   7.747   4.581  0.3558 -0.1377 -0.3188
 9838SOL    HW130092   9.080   7.701   4.497  2.1862  0.1374 -0.3436
 9838SOL    HW230093   9.064   7.839   4.557  0.1231 -0.1341 -0.2195
 9839SOL     OW30094   2.602   5.845   0.479 -0.2090 -0.0929  0.4273
 9839SOL    HW130095   2.559   5.823   0.561 -0.9898  1.7626  0.5539
 9839SOL    HW230096   2.544   5.909   0.438  1.1297  0.4724 -0.6549
 9840SOL     OW30097   5.451   4.885   9.659 -0.2632 -0.0892 -0.1617
 9840SOL    HW130098   5.511   4.859   9.589 -0.9600  0.7686 -1.1138
 9840SOL    HW230099   5.487   4.844   9.738 -0.0854 -2.0539 -1.1890
 9841SOL     OW30100   3.909   7.204   9.500  0.4517  0.2671  0.5094
 9841SOL    HW130101   3.880   7.123   9.458  0.8102 -0.2846  1.3077
 9841SOL    HW230102   3.832   7.260   9.500  0.3836  0.1962 -0.6735
 9842SOL     OW30103   4.685   3.849   6.153  0.3085  0.3189  0.5798
 9842SOL    HW130104   4.622   3.784   6.123  0.9335  0.3450 -0.8950
 9842SOL    HW230105   4.725   3.883   6.072  1.2918  1.2188  1.4062
 9843SOL     OW30106   9.464   8.371   4.632 -0.3810  0.1697 -0.7158
 9843SOL    HW130107   9.421   8.368   4.718 -0.3031  0.7136 -0.6578
 9843SOL    HW230108   9.408   8.318   4.576 -0.6029  0.0688 -0.4055
 9844SOL     OW30109   8.820   3.247   1.525 -0.5272  0.7354  0.0606
 9844SOL    HW130110   8.868   3.321   1.564  0.3455  0.3645 -0.2902
 9844SOL    HW230111   8.876   3.218   1.453 -1.7568  0.9053 -0.9894
 9845SOL     OW30112   8.909   1.555   3.097  0.4633 -0.0119  0.0197
 9845SOL    HW130113   8.917   1.586   3.007 -0.0722 -1.3798 -0.5398
 9845SOL    HW230114   8.879   1.464   3.088 -0.0117 -0.0410  1.5922
 9846SOL     OW30115   2.910   0.406   0.131  0.1196 -0.0973  0.2250
 9846SOL    HW130116   2.925   0.338   0.065 -1.6528 -1.2323  0.9141
 9846SOL    HW230117   2.991   0.408   0.182  0.3709 -1.3933 -0.0818
 9847SOL     OW30118   2.154   7.848   7.518  0.2292  0.6883 -0.4710
 9847SOL    HW130119   2.157   7.785   7.445  0.7529 -0.1526  0.2574
 9847SOL    HW230120   2.237   7.895   7.511  1.4081 -1.0458  0.9774
 9848SOL     OW30121   9.484   2.073   2.613  0.3394 -0.1489 -0.3543
 9848SOL    HW130122   9.432   2.008   2.567  1.1700 -0.8000 -0.4045
 9848SOL    HW230123   9.514   2.133   2.544  0.4725 -0.3470 -0.4691
 9849SOL     OW30124   4.710   3.051   1.029 -0.5146 -0.3286 -0.5653
 9849SOL    HW130125   4.707   2.980   1.093  0.6882 -0.1547 -0.2890
 9849SOL    HW230126   4.730   3.008   0.946  1.0139 -0.2791 -0.2635
 9850SOL     OW30127   2.738   6.513   1.630  0.1470 -0.2401 -0.1685
 9850SOL    HW130128   2.788   6.456   1.572 -0.6192 -1.1871  0.0688
 9850SOL    HW230129   2.773   6.495   1.717 -0.4089 -0.7077 -0.0357
 9851SOL     OW30130   6.411   2.946   0.662 -0.5168  0.2375 -0.2523
 9851SOL    HW130131   6.490   2.990   0.632 -1.0091  0.5924 -1.0846
 9851SOL    HW230132   6.341   2.984   0.609 -1.0247 -1.1906 -0.6725
 9852SOL     OW30133   2.292   5.473   3.116 -0.2576  0.5622  0.2831
 9852SOL    HW130134   2.218   5.525   3.083  1.0202  1.5737 -1.0780
 9852SOL    HW230135   2.323   5.522   3.192  0.2668  1.2264 -0.3532
 9853SOL     OW30136   0.681   3.353   4.851  0.0738  0.0189 -0.5666
 9853SOL    HW130137   0.701   3.444   4.831  1.1456 -0.3453 -1.2021
 9853SOL    HW230138   0.725   3.337   4.935  0.9867 -0.2647 -1.0831
 9854SOL     OW30139   2.631   4.295   6.281 -0.6242 -0.0621 -0.4529
 9854SOL    HW130140   2.633   4.382   6.241 -0.5918  0.4511  0.6159
 9854SOL    HW230141   2.567   4.246   6.230 -1.4712  0.9468 -0.3868
 9855SOL     OW30142   6.946   7.866   0.008 -0.1347 -0.0297  0.4389
 9855SOL    HW130143   7.005   7.939   0.028  0.2708 -0.3791  0.5344
 9855SOL    HW230144   6.916   7.836   0.094  0.1957 -0.3758  0.4388
 9856SOL     OW30145   3.069   9.839   2.786  0.2380 -0.6543 -0.2207
 9856SOL    HW130146   3.091   9.814   2.876 -0.7649 -0.6877  0.0207
 9856SOL    HW230147   3.059   9.934   2.789 -1.8441 -0.8543  0.1760
 9857SOL     OW30148   5.864   8.472   6.106 -0.0734 -0.0448 -0.3891
 9857SOL    HW130149   5.957   8.455   6.120  0.3864  1.1837 -1.6881
 9857SOL    HW230150   5.829   8.490   6.193  1.1405  0.5492 -0.0070
 9858SOL     OW30151   7.759   2.214   1.692 -0.1766 -0.1311  0.5930
 9858SOL    HW130152   7.754   2.172   1.606  0.7039 -0.8686  0.8870
 9858SOL    HW230153   7.730   2.146   1.753 -0.5700  0.3139  0.9101
 9859SOL     OW30154   1.538   0.868   5.795 -0.3567  0.2829 -0.3496
 9859SOL    HW130155   1.619   0.918   5.805  0.3700 -0.8260 -0.5302
 9859SOL    HW230156   1.483   0.898   5.867  0.9727 -0.3393  0.9820
 9860SOL     OW30157   3.404   7.899   8.546 -0.5628 -0.3241  0.1183
 9860SOL    HW130158   3.434   7.812   8.520 -1.3478 -0.8160  0.8062
 9860SOL    HW230159   3.372   7.939   8.465 -0.1174 -0.6268 -0.2154
 9861SOL     OW30160   6.615   1.037   2.532  0.4614 -0.4683  0.2868
 9861SOL    HW130161   6.679   1.095   2.492  1.1735 -1.8463 -0.6236
 9861SOL    HW230162   6.539   1.093   2.548  1.0976  0.6915 -0.6093
 9862SOL     OW30163   5.480   5.331   8.406  0.2535  0.3532  0.2835
 9862SOL    HW130164   5.469   5.256   8.464 -2.6699 -0.0992 -0.7263
 9862SOL    HW230165   5.522   5.295   8.328 -0.9399 -0.2112 -0.1112
 9863SOL     OW30166   3.883   6.920   9.909  0.0864  0.0549 -0.0911
 9863SOL    HW130167   3.877   6.962   9.995 -0.9539  1.1236 -0.6525
 9863SOL    HW230168   3.828   6.842   9.917 -0.2968  0.3414  0.1218
 9864SOL     OW30169   2.015   7.761   0.839 -0.3385 -0.3369 -0.0742
 9864SOL    HW130170   1.985   7.790   0.753  0.4795 -0.3674 -0.3793
 9864SOL    HW230171   2.109   7.780   0.840 -0.5259  0.7206  1.2556
 9865SOL     OW30172   6.266   5.062   2.006  0.0724 -0.1419  0.1711
 9865SOL    HW130173   6.288   4.990   2.065 -1.3134 -0.4330  0.3653
 9865SOL    HW230174   6.191   5.105   2.047  0.0828  0.6372 -0.5871
 9866SOL     OW30175   7.173   3.755   9.839 -0.1100 -0.4598  0.4790
 9866SOL    HW130176   7.157   3.849   9.848  0.4384 -0.2697 -0.4441
 9866SOL    HW230177   7.267   3.746   9.855  0.3452 -0.4885 -1.9502
 9867SOL     OW30178   2.636   3.676   7.793 -0.8583 -0.1653  0.2079
 9867SOL    HW130179   2.603   3.746   7.737  0.1606  0.1315 -0.0432
 9867SOL    HW230180   2.576   3.675   7.868 -1.6154  0.1325 -0.3847
 9868SOL     OW30181   6.131   2.403   2.932 -0.1585  0.5321  0.1959
 9868SOL    HW130182   6.073   2.468   2.971 -0.1625 -0.3291  1.6638
 9868SOL    HW230183   6.218   2.444   2.934  0.1990 -0.1869  2.9358
 9869SOL     OW30184   2.516   9.684   8.732  0.0291  0.0571  0.1357
 9869SOL    HW130185   2.559   9.612   8.686  0.0698  1.4702 -2.2072
 9869SOL    HW230186   2.502   9.651   8.821  1.3539 -2.2739 -0.4354
 9870SOL     OW30187   8.188   9.392   4.066 -0.3752  0.4729 -0.2846
 9870SOL    HW130188   8.256   9.325   4.076 -2.6165 -1.7005  1.7195
 9870SOL    HW230189   8.212   9.460   4.130 -0.3497 -0.5621  0.8524
 9871SOL     OW30190   8.725   1.368   1.440 -0.2422  0.3929 -0.0936
 9871SOL    HW130191   8.760   1.411   1.518 -1.5373  0.1959  0.6207
 9871SOL    HW230192   8.738   1.275   1.456  0.1280  0.3807 -0.4414
 9872SOL     OW30193   7.510   2.629   2.518  0.5038 -0.1063  0.1018
 9872SOL    HW130194   7.470   2.646   2.603 -2.0038 -2.5415 -0.4431
 9872SOL    HW230195   7.584   2.572   2.537 -2.0244 -3.5706  0.6390
 9873SOL     OW30196   9.708   6.201   8.537  0.1360 -0.3948 -0.2788
 9873SOL    HW130197   9.724   6.114   8.499  1.0719 -0.0656 -0.6553
 9873SOL    HW230198   9.776   6.211   8.604 -0.0069  0.0244 -0.1973
 9874SOL     OW30199   6.960   4.230   1.247  0.2084  0.6848 -0.0554
 9874SOL    HW130200   6.975   4.169   1.319 -0.9668  2.9053  2.2204
 9874SOL    HW230201   6.908   4.180   1.184  0.7840 -1.1553  0.8367
 9875SOL     OW30202   1.847   5.481   4.551 -0.3491 -0.3494 -0.2751
 9875SOL    HW130203   1.769   5.493   4.605  0.8253  0.6046  1.2918
 9875SOL    HW230204   1.837   5.546   4.481 -0.8116  0.0065  0.1112
 9876SOL     OW30205   5.847   5.296   4.599  0.1120  0.4559 -0.1168
 9876SOL    HW130206   5.914   5.311   4.532  1.7050 -2.0984  0.7505
 9876SOL    HW230207   5.787   5.233   4.559  0.2517  0.0329  0.3266
 9877SOL     OW30208   9.552   7.595   7.083  0.1389  0.8912  0.4707
 9877SOL    HW130209   9.584   7.683   7.064  3.3451 -0.3595 -0.5394
 9877SOL    HW230210   9.517   7.602   7.172 -2.7771  3.8096 -0.6767
 9878SOL     OW30211   5.153   0.891   5.348 -0.4488  0.4059  0.1904
 9878SOL    HW130212   5.079   0.901   5.288  0.3264 -0.3272 -0.9251
 9878SOL    HW230213   5.230   0.897   5.291  0.3324  0.5845  1.2535
 9879SOL     OW30214   7.732   9.673   0.856  0.4177  0.6161 -0.9119
 9879SOL    HW130215   7.753   9.746   0.913  1.4286 -0.8483  0.7096
 9879SOL    HW230216   7.652   9.636   0.892 -0.0087  0.8174 -1.6346
 9880SOL     OW30217   6.007   3.567   6.291 -0.2885 -0.3736 -0.6631
 9880SOL    HW130218   5.960   3.644   6.323  0.1902 -0.7184  0.9790
 9880SOL    HW230219   6.059   3.599   6.217 -0.7409  0.6747 -0.5467
 9881SOL     OW30220   7.199   3.243   4.036  0.3446  1.0244  0.5812
 9881SOL    HW130221   7.168   3.256   4.126  1.8684 -0.1521  1.3383
 9881SOL    HW230222   7.214   3.149   4.030  2.0005  1.3039 -0.2773
 9882SOL     OW30223   8.774   0.694   1.253  0.0163  0.5776 -0.4076
 9882SOL    HW130224   8.864   0.694   1.222 -0.0228 -0.9915 -0.6008
 9882SOL    HW230225   8.727   0.640   1.190 -0.5447 -0.7025  1.0318
 9883SOL     OW30226   8.145   5.354   6.572 -0.0514  0.2537 -0.3668
 9883SOL    HW130227   8.210   5.304   6.523  0.4218  1.2934 -0.8183
 9883SOL    HW230228   8.153   5.443   6.539 -0.5974  0.7229  0.7194
 9884SOL     OW30229   6.384   5.188   3.433 -0.8883 -0.1061  0.4669
 9884SOL    HW130230   6.315   5.123   3.418 -1.2469 -0.2828  2.5853
 9884SOL    HW230231   6.431   5.155   3.509  0.9981  0.4914 -0.3842
 9885SOL     OW30232   6.575   9.900   1.184  0.3442  0.1726 -0.2965
 9885SOL    HW130233   6.550   9.845   1.109  1.3918 -1.1962  0.3125
 9885SOL    HW230234   6.523   9.866   1.257  0.8378  0.1319  0.0393
 9886SOL     OW30235   9.869   1.346   2.597 -0.3685  0.2919 -0.4830
 9886SOL    HW130236   9.921   1.373   2.673  0.4600  0.0033 -0.9244
 9886SOL    HW230237   9.797   1.409   2.593 -0.7159  0.0074  0.8273
 9887SOL     OW30238   3.554   9.380   2.495 -0.4484 -0.4187  0.5676
 9887SOL    HW130239   3.462   9.406   2.495 -0.2975  0.1610  1.7875
 9887SOL    HW230240   3.571   9.350   2.584  0.2606 -1.5846  0.0588
 9888SOL     OW30241   1.288   5.320   4.115 -0.4015 -0.0061 -0.1105
 9888SOL    HW130242   1.370   5.282   4.084 -0.1513  0.7368 -0.3727
 9888SOL    HW230243   1.311   5.363   4.198 -0.4814  0.3514 -0.2708
 9889SOL     OW30244   1.320   5.027   4.287  0.1544  0.2203  0.0862
 9889SOL    HW130245   1.331   5.083   4.364  3.8161 -0.1983  0.0490
 9889SOL    HW230246   1.348   4.940   4.316  1.7846  0.0860 -1.6467
 9890SOL     OW30247   8.018   0.147   7.839  0.5257  0.3512  0.3835
 9890SOL    HW130248   8.020   0.054   7.815  0.6775 -0.1379  2.1513
 9890SOL    HW230249   8.074   0.153   7.916 -0.4028  1.7139  0.9798
 9891SOL     OW30250   9.379   5.219   4.427 -0.0479  0.3382  0.3855
 9891SOL    HW130251   9.320   5.230   4.501 -0.9099 -0.2668 -0.1982
 9891SOL    HW230252   9.322   5.208   4.351  0.7927 -0.6152 -0.1444
 9892SOL     OW30253   5.802   6.165   9.934  0.0269  0.1673 -0.7787
 9892SOL    HW130254   5.786   6.071   9.928 -2.0175  0.4398 -0.5031
 9892SOL    HW230255   5.817   6.182  10.026 -2.1785  0.3962 -0.4028
 9893SOL     OW30256   6.780   2.001   5.394  0.3746 -0.5498 -0.8931
 9893SOL    HW130257   6.848   2.042   5.341  1.7485 -0.4156  0.8572
 9893SOL    HW230258   6.764   2.064   5.465 -3.2526  0.4790 -2.3909
 9894SOL     OW30259   8.439   1.963   2.774 -0.0636 -0.3320 -0.3495
 9894SOL    HW130260   8.498   1.903   2.819  0.4995  1.3621  1.2992
 9894SOL    HW230261   8.353   1.944   2.810  0.2604  0.4511  0.8943
 9895SOL     OW30262   0.454   1.651   1.591  0.1273  0.1792  0.3393
 9895SOL    HW130263   0.435   1.578   1.532 -0.0871  1.0934 -0.7492
 9895SOL    HW230264   0.510   1.613   1.658  0.2411 -0.9317 -0.3583
 9896SOL     OW30265   9.805   5.964   2.022 -0.6429 -0.2470  0.0444
 9896SOL    HW130266   9.767   6.038   2.070 -1.4545  0.5899 -1.8032
 9896SOL    HW230267   9.803   5.991   1.930  1.0351 -1.7122 -0.4804
 9897SOL     OW30268   0.183   7.315   6.023  0.1253  0.5833 -0.5417
 9897SOL    HW130269   0.224   7.344   5.942  1.9186  3.5982  1.2692
 9897SOL    HW230270   0.256   7.294   6.082 -1.1142 -1.6084  0.3543
 9898SOL     OW30271   9.098   1.599   6.777  0.0059  0.2677  0.3519
 9898SOL    HW130272   9.148   1.578   6.698 -1.0191 -0.4636 -0.1381
 9898SOL    HW230273   9.106   1.693   6.787  0.0677  0.3864 -0.6961
 9899SOL     OW30274   0.082   7.001   1.659  0.2091  0.1061  0.4591
 9899SOL    HW130275   0.048   6.980   1.746 -0.3475 -1.1436 -0.0332
 9899SOL    HW230276   0.077   6.918   1.611 -0.8688  1.0796 -1.2110
 9900SOL     OW30277   7.434   3.391   1.797 -0.1460  0.5399  0.0561
 9900SOL    HW130278   7.363   3.339   1.836 -0.0846 -0.8381 -1.5532
 9900SOL    HW230279   7.421   3.382   1.703  1.5994  1.0789 -0.2713
 9901SOL     OW30280   3.133   9.109   5.705 -0.9435  0.6377  0.1422
 9901SOL    HW130281   3.061   9.147   5.755 -1.3623  0.3316 -0.2264
 9901SOL    HW230282   3.193   9.183   5.691 -0.9843  0.8021  0.7967
 9902SOL     OW30283   9.793   9.342   4.149  1.0500  0.0282  0.0322
 9902SOL    HW130284   9.841   9.387   4.079  1.3323  0.1325  0.2932
 9902SOL    HW230285   9.835   9.257   4.157  0.0739 -0.5728 -0.9392
 9903SOL     OW30286   6.283   9.911   9.894 -0.3746  0.5925  0.2272
 9903SOL    HW130287   6.332   9.861   9.960 -0.5933  0.1333  0.0427
 9903SOL    HW230288   6.269   9.997   9.934 -1.8693 -0.1672  1.4197
 9904SOL     OW30289   5.411   1.689   6.277  0.0596 -0.1057 -0.2771
 9904SOL    HW130290   5.461   1.760   6.316 -0.4119  0.0706  0.0172
 9904SOL    HW230291   5.444   1.684   6.187  1.4635 -0.8188  0.2540
 9905SOL     OW30292   6.329   9.265   2.833  0.0162 -0.6626  0.0488
 9905SOL    HW130293   6.345   9.171   2.836  0.6919 -0.5821 -0.7671
 9905SOL    HW230294   6.313   9.284   2.740 -1.8049 -0.2347  0.4041
 9906SOL     OW30295   9.441   4.463   7.191  0.1077  0.3811  0.3371
 9906SOL    HW130296   9.402   4.386   7.233 -0.9176  0.5859 -0.2072
 9906SOL    HW230297   9.401   4.537   7.237 -0.8882  0.6031 -0.8492
 9907SOL     OW30298   2.807   6.071   6.859 -0.5498  0.1509  0.4843
 9907SOL    HW130299   2.805   6.058   6.954  3.0873 -1.0867  0.5545
 9907SOL    HW230300   2.879   6.133   6.845 -1.8749  1.3398 -1.4271
 9908SOL     OW30301   0.084   8.093   2.801  0.2833 -0.1123 -0.0789
 9908SOL    HW130302   0.130   8.075   2.719  0.1697 -0.0551 -0.1548
 9908SOL    HW230303   0.090   8.011   2.850 -0.2676 -0.3745 -0.4384
 9909SOL     OW30304   3.858   5.280   4.181  0.1378  0.8515 -0.7018
 9909SOL    HW130305   3.914   5.203   4.183  2.0026  2.1572 -0.5682
 9909SOL    HW230306   3.769   5.245   4.182  0.9319 -1.2804 -0.6791
 9910SOL     OW30307   5.284   3.919   1.384 -0.3783 -0.0967 -0.2046
 9910SOL    HW130308   5.317   3.843   1.432  0.4246 -0.5297 -1.3994
 9910SOL    HW230309   5.363   3.967   1.358 -0.8726  1.1652  0.5259
 9911SOL     OW30310   9.359   3.956   5.424 -0.1039 -0.0231  0.6700
 9911SOL    HW130311   9.400   3.869   5.424 -0.7566 -0.3390  0.1829
 9911SOL    HW230312   9.412   4.007   5.485  0.1225 -0.8386  1.1734
 9912SOL     OW30313   9.934   4.707   7.036 -0.0361  0.4883 -0.4321
 9912SOL    HW130314   9.872   4.635   7.019 -0.3331  0.7995 -0.6860
 9912SOL    HW230315   9.919   4.768   6.964  0.6721  0.5007 -0.5694
 9913SOL     OW30316   0.125   8.548   0.352  0.0882 -0.2023 -0.0243
 9913SOL    HW130317   0.142   8.623   0.296 -0.1791  0.1949  0.4107
 9913SOL    HW230318   0.083   8.586   0.430 -0.6257 -0.8693 -0.0707
 9914SOL     OW30319   4.423   3.737   1.610 -0.5250  0.2197  0.1287
 9914SOL    HW130320   4.467   3.820   1.594 -0.4934  0.5186  1.6139
 9914SOL    HW230321   4.430   3.724   1.705 -0.4142 -1.5357 -0.0852
 9915SOL     OW30322   1.335   7.086   0.748 -0.4369 -0.0804 -0.1914
 9915SOL    HW130323   1.374   7.083   0.835 -0.6368  1.7834 -0.0115
 9915SOL    HW230324   1.241   7.079   0.763 -0.3942 -1.7384 -0.4369
 9916SOL     OW30325   8.674   9.135   3.698  0.3493  0.1373  0.8052
 9916SOL    HW130326   8.666   9.159   3.605  0.1885 -0.3812  0.6817
 9916SOL    HW230327   8.727   9.205   3.736  1.3623 -0.2107  0.0836
 9917SOL     OW30328   6.984   6.161   7.759 -0.2914 -0.0223 -0.5417
 9917SOL    HW130329   6.994   6.240   7.706 -0.6171 -0.0508 -0.6452
 9917SOL    HW230330   7.024   6.184   7.843 -1.7863  0.8028 -0.0234
 9918SOL     OW30331   8.022   7.306   9.006  0.6980  0.1270 -0.2133
 9918SOL    HW130332   8.101   7.263   8.974 -0.0993 -1.2379 -0.4099
 9918SOL    HW230333   8.026   7.297   9.101  1.1340  0.7184 -0.1708
 9919SOL     OW30334   7.110   7.267   7.371  0.0005  0.0811 -0.0092
 9919SOL    HW130335   7.061   7.331   7.320 -0.8715 -0.6845 -0.1550
 9919SOL    HW230336   7.200   7.275   7.338 -0.4328  0.0161 -1.2637
 9920SOL     OW30337   1.478   3.477   9.840 -0.9634 -0.1831 -0.3661
 9920SOL    HW130338   1.525   3.559   9.854 -1.6289  0.4737 -1.8759
 9920SOL    HW230339   1.487   3.430   9.924  0.0451  1.0905  0.2702
 9921SOL     OW30340   0.090   3.655   6.480 -0.3503 -0.4654 -0.1338
 9921SOL    HW130341   0.076   3.750   6.481  2.4163  0.0125 -0.3660
 9921SOL    HW230342   0.074   3.628   6.570  1.9724  0.8181  0.7458
 9922SOL     OW30343   2.669   0.400   0.243  0.3713  0.8046 -0.1085
 9922SOL    HW130344   2.650   0.494   0.247  0.2289  0.7652  0.1515
 9922SOL    HW230345   2.755   0.395   0.200 -0.8140  0.9075 -2.6699
 9923SOL     OW30346   2.680   2.633   8.383 -0.5159  0.1814  0.8884
 9923SOL    HW130347   2.720   2.634   8.296 -0.7725  0.8638  0.7689
 9923SOL    HW230348   2.726   2.703   8.430  2.0357 -2.3435  2.4311
 9924SOL     OW30349   5.295   7.742   8.548  0.1681  0.2505 -0.4367
 9924SOL    HW130350   5.336   7.820   8.585 -0.3134 -0.6090  2.1372
 9924SOL    HW230351   5.202   7.752   8.569 -0.1120 -0.3706 -1.3285
 9925SOL     OW30352   9.933   4.963   3.400  0.0593 -0.4286 -0.5736
 9925SOL    HW130353   9.859   5.003   3.354 -1.4360 -1.7765  0.5622
 9925SOL    HW230354   9.995   5.035   3.411 -1.8965  1.2576  0.1203
 9926SOL     OW30355   1.596   7.785   4.850 -0.0253  0.3802 -0.4298
 9926SOL    HW130356   1.588   7.731   4.772  2.0895  1.0404 -1.1908
 9926SOL    HW230357   1.684   7.766   4.884 -0.5018  0.8855  1.1854
 9927SOL     OW30358   4.711   2.451   5.095 -0.1070  0.0174  0.3553
 9927SOL    HW130359   4.617   2.455   5.111 -0.1518 -1.5563  0.6246
 9927SOL    HW230360   4.749   2.431   5.181  0.3806 -0.2752  0.0736
 9928SOL     OW30361   7.330   3.052   8.371  0.4630 -0.3285  0.5562
 9928SOL    HW130362   7.351   3.051   8.465  1.1457 -1.4419  0.4046
 9928SOL    HW230363   7.331   3.145   8.348  0.1522 -0.0295  1.6763
 9929SOL     OW30364   3.945   7.875   9.923 -0.0540  0.4361  0.1793
 9929SOL    HW130365   3.977   7.786   9.938 -0.2404  0.2864 -0.2800
 9929SOL    HW230366   3.890   7.867   9.845 -2.4982  0.3686  1.8114
 9930SOL     OW30367   7.618   0.547   3.127 -0.2565  0.2033 -0.6238
 9930SOL    HW130368   7.689   0.488   3.153 -0.1771 -0.0584 -1.4184
 9930SOL    HW230369   7.577   0.572   3.210  0.2905 -0.2309 -0.2080
 9931SOL     OW30370   8.913   3.775   5.895  0.4525 -0.0392  0.2473
 9931SOL    HW130371   8.950   3.830   5.826  1.4466  0.6695  1.2949
 9931SOL    HW230372   8.828   3.814   5.914  0.9149  0.8079  0.6010
 9932SOL     OW30373   9.905   0.035   5.811  0.1296 -0.0761 -0.1561
 9932SOL    HW130374   9.861  -0.046   5.836 -1.7896  0.9497 -0.0270
 9932SOL    HW230375   9.839   0.084   5.763  1.4497  1.1758 -0.7790
 9933SOL     OW30376   4.028   3.198   7.635  0.3534 -0.1598 -0.1007
 9933SOL    HW130377   3.974   3.277   7.644  1.5032  0.7181 -0.6144
 9933SOL    HW230378   3.970   3.134   7.594 -0.3524  0.7024 -0.4881
 9934SOL     OW30379   6.653   5.309   1.251  0.2557  0.2481 -0.0027
 9934SOL    HW130380   6.567   5.273   1.272 -1.6974  2.8103 -2.7345
 9934SOL    HW230381   6.664   5.382   1.312  0.8413 -0.4302  0.7334
 9935SOL     OW30382   0.093   6.923   2.280  0.6774 -0.0299 -0.0228
 9935SOL    HW130383   0.042   6.842   2.274  0.7656 -0.0149 -1.4638
 9935SOL    HW230384   0.132   6.932   2.193  1.0313  1.3316  0.2626
 9936SOL     OW30385   4.539   3.576   3.190  0.1150 -0.6147  0.8020
 9936SOL    HW130386   4.616   3.525   3.218  0.9142  0.0691 -0.0791
 9936SOL    HW230387   4.535   3.649   3.252  1.4977  0.5396 -0.3926
 9937SOL     OW30388   1.713   8.836   2.619  0.2539 -0.3263  0.2555
 9937SOL    HW130389   1.645   8.773   2.596 -2.6953  2.1047  1.5864
 9937SOL    HW230390   1.702   8.849   2.714  0.3890  2.4027 -0.0114
 9938SOL     OW30391   4.026   5.926   4.006 -0.6867 -0.1511 -0.2419
 9938SOL    HW130392   4.005   5.999   4.065 -0.5338 -0.5938  0.3672
 9938SOL    HW230393   3.977   5.945   3.926 -1.5228  0.0570  0.3067
 9939SOL     OW30394   0.419   1.079   8.080 -0.3361  0.2608 -0.3393
 9939SOL    HW130395   0.484   1.015   8.109  0.3856  0.6304 -1.0928
 9939SOL    HW230396   0.382   1.042   8.000  0.5650  1.0651 -1.1565
 9940SOL     OW30397   6.421   3.276   4.866 -0.4985 -0.2162 -0.1369
 9940SOL    HW130398   6.328   3.266   4.884 -1.1233 -1.7086 -3.4522
 9940SOL    HW230399   6.446   3.195   4.823  1.7319  1.0887 -1.5048
 9941SOL     OW30400   5.260   8.284   4.148  0.3770 -0.1517 -0.2914
 9941SOL    HW130401   5.287   8.262   4.059 -0.2286  1.2310 -0.8516
 9941SOL    HW230402   5.321   8.351   4.176 -2.1946  2.9619 -1.5540
 9942SOL     OW30403   3.562   3.595   7.088 -0.0912  0.5970  0.0166
 9942SOL    HW130404   3.581   3.650   7.165 -0.4862  1.3213 -0.3973
 9942SOL    HW230405   3.640   3.540   7.079 -0.4191 -0.1950  1.5104
 9943SOL     OW30406   3.883   9.340   0.184 -0.6252 -0.3066 -0.1782
 9943SOL    HW130407   3.863   9.350   0.091 -1.2937 -0.7545 -0.0913
 9943SOL    HW230408   3.803   9.369   0.229 -0.2357  0.0964  0.2678
 9944SOL     OW30409   0.665   5.738   3.414 -0.5779  0.0614 -0.5140
 9944SOL    HW130410   0.572   5.715   3.416 -0.4892 -0.4163  2.0854
 9944SOL    HW230411   0.672   5.813   3.473  0.5034  1.0699 -1.8664
 9945SOL     OW30412   4.820   2.996   7.700 -0.4210 -0.5472  0.5014
 9945SOL    HW130413   4.741   3.007   7.646 -0.3896 -1.2958  0.2826
 9945SOL    HW230414   4.818   2.903   7.725  0.2287 -0.4954  0.7516
 9946SOL     OW30415   2.477   8.631   8.737 -0.0739 -0.3376  0.0866
 9946SOL    HW130416   2.505   8.702   8.796  0.6592 -2.2026  2.1028
 9946SOL    HW230417   2.519   8.652   8.653  1.1123  0.9796  0.9653
 9947SOL     OW30418   9.086   0.130   8.512 -0.1904 -0.2833 -0.4837
 9947SOL    HW130419   9.026   0.058   8.494  0.4590 -0.5051 -1.8937
 9947SOL    HW230420   9.155   0.092   8.566 -1.5505  0.1092  1.6619
 9948SOL     OW30421   1.779   8.975   6.386  0.0856  0.5779 -0.2268
 9948SOL    HW130422   1.728   9.000   6.463 -2.6377  0.0077 -1.6922
 9948SOL    HW230423   1.817   9.057   6.355 -1.2243  1.3471  0.1061
 9949SOL     OW30424   2.098   7.438   9.089 -0.4725 -0.3077 -0.1964
 9949SOL    HW130425   2.105   7.488   9.171 -1.7139  0.0575 -0.2922
 9949SOL    HW230426   2.132   7.352   9.111  0.5446  0.2110  0.3171
 9950SOL     OW30427   8.139   8.482   0.036  0.5665  0.1000 -0.2052
 9950SOL    HW130428   8.147   8.404  -0.018 -0.9935  0.0382 -0.3959
 9950SOL    HW230429   8.086   8.454   0.111  1.0914  0.6524  0.3853
 9951SOL     OW30430   1.322   9.128   6.380  0.0743 -0.3574  0.0527
 9951SOL    HW130431   1.231   9.105   6.361  0.2800  0.4416 -2.3204
 9951SOL    HW230432   1.318   9.221   6.401  0.1434 -0.7646  2.0393
 9952SOL     OW30433   1.181   3.904   3.003  0.5828 -0.2140 -0.1322
 9952SOL    HW130434   1.154   3.955   3.079  0.3842 -0.5845  0.0470
 9952SOL    HW230435   1.247   3.959   2.960 -0.2309  0.5825 -0.4206
 9953SOL     OW30436   1.590   6.640   6.897 -0.3988 -0.2327  0.0370
 9953SOL    HW130437   1.579   6.631   6.802 -1.5971  1.1510  0.0159
 9953SOL    HW230438   1.569   6.553   6.932 -2.0868 -0.2191 -0.8214
 9954SOL     OW30439   9.976   3.227   9.411  0.1831 -0.4437 -0.3506
 9954SOL    HW130440  10.003   3.164   9.343 -4.5856 -0.4093 -2.7385
 9954SOL    HW230441   9.925   3.174   9.473 -0.2344  0.3988  0.0331
 9955SOL     OW30442   1.137   2.950   9.588  0.4261 -0.0142  0.0550
 9955SOL    HW130443   1.215   2.936   9.535 -0.9787 -2.0491 -1.6461
 9955SOL    HW230444   1.168   2.951   9.679  2.5070  0.3324 -0.6251
 9956SOL     OW30445   0.436   8.729   9.887  0.3291  0.3483  0.5803
 9956SOL    HW130446   0.445   8.807   9.832  0.9794  1.0936  1.7202
 9956SOL    HW230447   0.381   8.670   9.835  0.5198  1.2166 -0.6634
 9957SOL     OW30448   9.816   2.869   0.389  0.5568  0.3391  0.6936
 9957SOL    HW130449   9.838   2.935   0.323 -1.2255 -0.5545 -0.9121
 9957SOL    HW230450   9.897   2.821   0.404  0.8554  0.0381 -1.5391
 9958SOL     OW30451   5.444   1.841   8.536  0.2508 -0.1086 -0.3594
 9958SOL    HW130452   5.510   1.782   8.572  0.5271  0.8249  0.7278
 9958SOL    HW230453   5.364   1.788   8.530  0.8683 -1.0101 -0.8923
 9959SOL     OW30454   6.629   6.940   1.529 -0.1951  0.7260  0.5270
 9959SOL    HW130455   6.639   6.860   1.476 -0.6570  0.6347  0.5703
 9959SOL    HW230456   6.710   6.989   1.514  0.1005  0.2441  0.5074
 9960SOL     OW30457   6.036   1.205   7.238  0.8683 -0.0317  0.8495
 9960SOL    HW130458   6.111   1.252   7.201  0.5718 -0.8921 -0.9911
 9960SOL    HW230459   6.075   1.133   7.288  1.2831  0.1449  0.7797
 9961SOL     OW30460   7.189   4.473   3.192  0.0988  0.4940  0.4248
 9961SOL    HW130461   7.205   4.457   3.285 -1.9928 -3.2145  0.3179
 9961SOL    HW230462   7.094   4.469   3.182  0.3152 -1.6268 -2.1142
 9962SOL     OW30463   8.715   5.113   6.864  0.7361 -0.8778 -0.0200
 9962SOL    HW130464   8.654   5.187   6.863  1.0220 -0.6269  0.4992
 9962SOL    HW230465   8.690   5.060   6.788  0.9174  0.0629 -0.7566
 9963SOL     OW30466   0.539   9.261   8.406  0.2989  0.1598  0.1822
 9963SOL    HW130467   0.513   9.353   8.405 -1.6984 -0.3689 -0.0224
 9963SOL    HW230468   0.569   9.244   8.317  0.9543  0.6688  0.2967
 9964SOL     OW30469   1.042   7.526   7.672 -0.2824  0.1137  0.1383
 9964SOL    HW130470   1.136   7.533   7.691 -0.6893  0.1722  2.4055
 9964SOL    HW230471   1.037   7.529   7.576  2.0026  0.2910 -0.0410
 9965SOL     OW30472   3.476   8.893   4.476 -0.2771  0.1137 -0.0523
 9965SOL    HW130473   3.551   8.833   4.484 -0.6051 -0.4366 -1.0316
 9965SOL    HW230474   3.490   8.938   4.393 -0.3250  1.0232  0.4134
 9966SOL     OW30475   5.370   4.977   6.825  0.0497 -0.2301  0.2382
 9966SOL    HW130476   5.412   4.946   6.744 -0.4347 -0.9788  0.2633
 9966SOL    HW230477   5.371   4.902   6.883  0.1070  0.2142  0.8217
 9967SOL     OW30478   5.253   2.873   6.979 -0.1881 -0.4779 -0.4120
 9967SOL    HW130479   5.224   2.808   7.044 -1.9211  0.0664 -0.5981
 9967SOL    HW230480   5.180   2.881   6.919  0.7876  0.2015 -1.5587
 9968SOL     OW30481   2.442   8.775   0.645  0.4683  0.6430 -0.1138
 9968SOL    HW130482   2.445   8.739   0.733 -0.2288  1.2453  0.1672
 9968SOL    HW230483   2.528   8.817   0.633  1.6662 -1.8196 -0.7941
 9969SOL     OW30484   9.096   7.934   3.199  0.8697 -0.3828  0.3132
 9969SOL    HW130485   9.050   7.965   3.121  1.1286  1.5498  0.8794
 9969SOL    HW230486   9.051   7.852   3.222 -1.6445  0.8728  0.2453
 9970SOL     OW30487   5.144   5.724   4.551 -0.6053 -0.0770  0.2500
 9970SOL    HW130488   5.211   5.759   4.610  0.4365  0.7672 -1.3610
 9970SOL    HW230489   5.082   5.796   4.539 -0.2447  0.1147 -0.4965
 9971SOL     OW30490   9.226   1.274   6.759  0.2027 -0.0502  0.8261
 9971SOL    HW130491   9.144   1.300   6.800  0.3316  0.3779  0.8140
 9971SOL    HW230492   9.292   1.281   6.829  0.1168 -1.0789  1.0322
 9972SOL     OW30493   5.728   5.047   6.415 -0.5362  0.0301  0.5464
 9972SOL    HW130494   5.751   4.981   6.480  1.2907 -0.2015 -0.3011
 9972SOL    HW230495   5.810   5.089   6.392 -1.3633  1.1372 -0.5414
 9973SOL     OW30496   8.383   3.044   2.702 -0.0839 -0.5778  0.0550
 9973SOL    HW130497   8.372   3.093   2.784 -1.5631 -0.8147  0.0185
 9973SOL    HW230498   8.372   3.110   2.633  1.9040 -0.2278  0.0056
 9974SOL     OW30499   7.099   1.103   7.888 -0.5681  0.1423 -0.0203
 9974SOL    HW130500   7.172   1.161   7.864 -0.6220 -0.2726 -1.1995
 9974SOL    HW230501   7.141   1.018   7.905 -0.6424  0.2049  0.5077
 9975SOL     OW30502   1.525   3.143   5.810 -0.0776 -0.0383  0.2474
 9975SOL    HW130503   1.588   3.215   5.817  0.0555 -0.1583  0.2845
 9975SOL    HW230504   1.561   3.086   5.743 -0.3326  0.0786  0.0069
 9976SOL     OW30505   6.104   2.899   6.708 -0.4414 -0.5874  0.2360
 9976SOL    HW130506   6.098   2.808   6.739 -0.1077 -0.7994 -0.3115
 9976SOL    HW230507   6.183   2.933   6.749 -0.2696 -0.7157  0.0150
 9977SOL     OW30508   4.370   5.619   7.605 -0.2744 -0.0767  0.0364
 9977SOL    HW130509   4.450   5.601   7.655 -0.6112 -0.2348  0.5311
 9977SOL    HW230510   4.336   5.700   7.643 -0.3889 -0.0512 -0.1217
 9978SOL     OW30511   2.209   4.920   0.540  0.1035  0.5250  0.1315
 9978SOL    HW130512   2.204   4.989   0.606  1.7780  1.1655 -0.3755
 9978SOL    HW230513   2.139   4.860   0.564 -0.2051  1.4426  1.6802
 9979SOL     OW30514   0.904   2.829   4.269 -0.1762 -0.5239  0.2484
 9979SOL    HW130515   0.882   2.908   4.219 -0.0210 -1.0489 -0.6605
 9979SOL    HW230516   0.973   2.858   4.330 -0.0245  0.0112 -0.1691
 9980SOL     OW30517   7.256   2.145   4.757  0.6503 -0.8720 -0.1539
 9980SOL    HW130518   7.273   2.168   4.848  0.0186 -0.4823 -0.1268
 9980SOL    HW230519   7.202   2.066   4.763  1.2267 -1.2752 -0.2094
 9981SOL     OW30520   7.165   9.802   4.672 -0.1095 -0.3106  0.1030
 9981SOL    HW130521   7.153   9.709   4.690  0.8938 -0.4960 -0.1258
 9981SOL    HW230522   7.223   9.833   4.742  0.8471 -0.2200 -0.7028
 9982SOL     OW30523   1.805   4.096   5.596  0.5065 -0.1080  0.6592
 9982SOL    HW130524   1.730   4.101   5.537  0.2869  0.5056  0.9821
 9982SOL    HW230525   1.846   4.013   5.575  0.9161  0.4694 -0.9283
 9983SOL     OW30526   7.336   3.604   5.135 -0.4124  0.1690 -0.5000
 9983SOL    HW130527   7.288   3.538   5.186 -1.8555  1.0172 -0.7040
 9983SOL    HW230528   7.308   3.589   5.045  0.8136 -0.2111 -0.8382
 9984SOL     OW30529   2.367   9.082   5.216 -0.3143 -0.0510 -0.1133
 9984SOL    HW130530   2.315   9.004   5.200  0.5639 -0.8731  0.9027
 9984SOL    HW230531   2.399   9.072   5.306  0.4844  1.0763 -0.2494
 9985SOL     OW30532   2.872   0.902   3.231 -0.1846  0.7218  0.1973
 9985SOL    HW130533   2.922   0.821   3.239 -0.6365  0.5564  1.7824
 9985SOL    HW230534   2.854   0.911   3.138  1.3303 -0.0980 -0.2002
 9986SOL     OW30535   4.134   7.118   0.019 -0.1734  0.4314 -0.2539
 9986SOL    HW130536   4.049   7.150   0.048 -0.3907  0.6850 -1.1396
 9986SOL    HW230537   4.197   7.168   0.070 -0.5437  0.1223  0.5317
 9987SOL     OW30538   7.716   3.227   0.345 -0.2044 -0.2955 -0.1687
 9987SOL    HW130539   7.654   3.273   0.402 -0.1113 -0.5416  0.1346
 9987SOL    HW230540   7.736   3.146   0.392 -0.0212 -0.4370 -0.4900
 9988SOL     OW30541   9.032   6.152   9.020 -0.4799 -0.3406  0.2531
 9988SOL    HW130542   8.968   6.163   9.090 -1.3067  0.6700 -0.6191
 9988SOL    HW230543   9.009   6.219   8.955  0.6113 -0.8595 -0.7253
 9989SOL     OW30544   9.881   6.257   6.877 -0.4727 -0.0785  0.0614
 9989SOL    HW130545   9.883   6.180   6.934 -1.2551 -0.5118 -0.4821
 9989SOL    HW230546   9.930   6.231   6.799 -1.0082 -0.1430 -0.2579
 9990SOL     OW30547   1.629   9.141   4.730  0.6563 -0.3285  0.2162
 9990SOL    HW130548   1.645   9.236   4.726  1.2293 -0.3809  1.0568
 9990SOL    HW230549   1.717   9.103   4.732  0.4548 -0.7760  1.8449
 9991SOL     OW30550   3.769   4.194   1.520  0.1599  0.0263  0.4624
 9991SOL    HW130551   3.770   4.175   1.614 -0.4568  0.8286  0.6429
 9991SOL    HW230552   3.764   4.289   1.515 -0.2909 -0.0365 -0.3860
 9992SOL     OW30553   2.045   0.064   9.149  0.0545 -0.3298  0.4286
 9992SOL    HW130554   1.959   0.052   9.187 -0.2891  0.8715  0.0727
 9992SOL    HW230555   2.096  -0.011   9.180 -1.4078 -1.6679 -0.2600
 9993SOL     OW30556   9.567   1.289   7.145  0.0635 -0.0954  0.3797
 9993SOL    HW130557   9.478   1.324   7.151  0.6666  1.5607  0.2525
 9993SOL    HW230558   9.602   1.328   7.065  1.9001  1.7951  1.9858
 9994SOL     OW30559   0.267   0.913   0.199 -0.6292  0.4536  0.2282
 9994SOL    HW130560   0.177   0.935   0.177 -0.5165 -0.6933 -1.4924
 9994SOL    HW230561   0.302   0.871   0.121  1.1568  0.1340  1.1487
 9995SOL     OW30562   2.137   9.806   7.738  0.1026 -0.2716 -0.0055
 9995SOL    HW130563   2.059   9.760   7.769  1.2994 -1.8750  0.7716
 9995SOL    HW230564   2.154   9.872   7.805  0.8212 -1.5806  1.1310
 9996SOL     OW30565   5.779   2.128   7.351 -0.1043 -0.2986  0.2038
 9996SOL    HW130566   5.816   2.197   7.407 -0.2434  0.0011 -0.0665
 9996SOL    HW230567   5.849   2.105   7.291  0.0240 -0.5728  0.4589
 9997SOL     OW30568   9.336   8.286   3.162  0.2776  0.1761  0.3066
 9997SOL    HW130569   9.424   8.251   3.145  0.4464 -0.2670  1.9250
 9997SOL    HW230570   9.290   8.214   3.207 -0.5068  0.8350  0.5774
 9998SOL     OW30571   2.386   4.095   3.705 -0.1731  0.5932 -0.2607
 9998SOL    HW130572   2.428   4.120   3.623  0.0695 -1.1433 -0.7088
 9998SOL    HW230573   2.344   4.175   3.736 -1.0527  1.0883 -2.5387
 9999SOL     OW30574   5.916   9.342   5.790  0.2732  0.0344  0.0888
 9999SOL    HW130575   5.890   9.257   5.753  0.6792  0.6617 -1.7314
 9999SOL    HW230576   5.918   9.327   5.884 -0.8220 -1.6537 -0.1150
10000SOL     OW30577   6.319   9.069   1.382 -0.1933  0.2916  0.3581
10000SOL    HW130578   6.337   8.977   1.366  0.5045  0.5386 -0.3370
10000SOL    HW230579   6.306   9.075   1.477  0.0461 -0.4666  0.4415
10001SOL     OW30580   5.619   5.642   7.400 -0.4215 -0.6765 -0.0414
10001SOL    HW130581   5.576   5.616   7.318 -2.0421 -0.5349  0.7208
10001SOL    HW230582   5.606   5.567   7.458 -0.7874 -0.1011  0.6247
10002SOL     OW30583   7.676   0.794   5.630  0.7101  0.4170  0.1879
10002SOL    HW130584   7.659   0.703   5.605  0.8261  1.2240 -3.5187
10002SOL    HW230585   7.755   0.790   5.684  1.5083 -1.6001 -1.0045
10003SOL     OW30586   4.590   7.066   3.585 -0.1158  0.0758 -0.3002
10003SOL    HW130587   4.585   6.978   3.549  0.7250 -0.5083  0.9462
10003SOL    HW230588   4.519   7.069   3.650  0.8112 -0.2508  0.7701
10004SOL     OW30589   1.311   4.710   9.298 -0.0771 -0.4206  0.9589
10004SOL    HW130590   1.228   4.700   9.343  0.3375  0.4581  1.9539
10004SOL    HW230591   1.376   4.676   9.359  0.3416 -0.7609  0.3421
10005SOL     OW30592   5.437   1.120   8.871 -0.2425  0.0792 -0.0958
10005SOL    HW130593   5.463   1.075   8.791 -0.4231  0.8125 -0.5719
10005SOL    HW230594   5.484   1.203   8.869  2.4287 -1.2129  2.2152
10006SOL     OW30595   0.361   3.387   8.058  0.4278 -0.2049  0.4868
10006SOL    HW130596   0.322   3.303   8.035  0.6683 -0.2479  0.2368
10006SOL    HW230597   0.380   3.429   7.974  0.6199 -0.0457  0.6094
10007SOL     OW30598   3.494   8.415   1.218 -0.2598 -0.1823  0.1857
10007SOL    HW130599   3.471   8.331   1.258 -0.3004  0.1042  0.7741
10007SOL    HW230600   3.423   8.474   1.242 -0.6953 -0.2036 -1.0010
10008SOL     OW30601   0.520   4.990   2.168  0.4424  0.1674  0.1467
10008SOL    HW130602   0.457   4.963   2.101  1.7520  0.6805 -1.3546
10008SOL    HW230603   0.547   4.908   2.209  0.0293 -0.2301 -0.3581
10009SOL     OW30604   8.628   3.745   4.350 -0.2730 -0.2003  0.1758
10009SOL    HW130605   8.553   3.799   4.379 -0.4436 -0.3831  0.0772
10009SOL    HW230606   8.703   3.805   4.354 -0.5830  0.2708 -0.6538
10010SOL     OW30607   9.109   6.017   7.404 -0.3276 -0.0069  0.0838
10010SOL    HW130608   9.152   5.932   7.412 -0.1542  0.1368  0.7397
10010SOL    HW230609   9.107   6.052   7.493 -1.8962 -0.0528  0.0980
10011SOL     OW30610   3.538   5.638   9.759  0.3563 -0.0055 -0.2946
10011SOL    HW130611   3.630   5.655   9.740  0.1945  0.9799 -0.2687
10011SOL    HW230612   3.492   5.716   9.728 -0.1341  0.8675  2.3763
10012SOL     OW30613   3.424   7.044   2.473  0.7465 -0.0618 -0.1870
10012SOL    HW130614   3.357   7.009   2.532 -0.3177  1.1788 -0.6129
10012SOL    HW230615   3.432   7.136   2.497  2.1044 -0.1182 -0.3486
10013SOL     OW30616   7.477   1.822   0.258 -0.0194 -0.8860  0.0297
10013SOL    HW130617   7.527   1.785   0.185  0.9785  1.2045 -0.4518
10013SOL    HW230618   7.476   1.753   0.324  2.1254 -1.6302 -0.6030
10014SOL     OW30619   1.662   1.763   4.268 -0.3580  0.8522  0.6510
10014SOL    HW130620   1.641   1.788   4.178 -0.1906  2.2723  0.9816
10014SOL    HW230621   1.755   1.785   4.278 -0.1950  0.0619  0.9738
10015SOL     OW30622   7.720   8.512   8.171 -0.3088  0.5663  0.0079
10015SOL    HW130623   7.674   8.502   8.255 -0.1147  2.3979  0.3652
10015SOL    HW230624   7.758   8.599   8.174  3.4830 -0.8691 -0.1593
10016SOL     OW30625   7.799   6.763   7.186 -0.2136 -0.1319 -0.3400
10016SOL    HW130626   7.805   6.700   7.114 -0.2482  0.0449 -0.4985
10016SOL    HW230627   7.708   6.757   7.216 -0.6420  0.9119 -1.3399
10017SOL     OW30628   1.120   1.021   0.729  0.2233 -0.1257  0.4616
10017SOL    HW130629   1.058   1.022   0.656 -1.9620 -3.3133  2.0145
10017SOL    HW230630   1.133   1.113   0.751 -2.2474  0.7696 -1.4050
10018SOL     OW30631   8.319   0.980   9.471 -0.2619 -0.0937  0.5963
10018SOL    HW130632   8.289   0.955   9.558 -1.1114 -0.3929  0.2259
10018SOL    HW230633   8.243   0.967   9.414  0.6757 -1.3160 -0.4571
10019SOL     OW30634   4.619   2.054   5.642  0.0076 -0.0139  0.1320
10019SOL    HW130635   4.525   2.062   5.654 -0.4178 -3.5543  0.2960
10019SOL    HW230636   4.656   2.074   5.728 -0.9511 -1.8759  1.0395
10020SOL     OW30637   6.497   6.453   9.018 -0.0177 -0.2225 -0.0648
10020SOL    HW130638   6.408   6.464   8.985 -0.6367  0.6345  1.7589
10020SOL    HW230639   6.512   6.530   9.074  0.3464 -2.2920  2.8779
10021SOL     OW30640   6.294   9.861   0.872  0.0922  0.2989 -0.6763
10021SOL    HW130641   6.358   9.813   0.924 -1.2984 -1.0357 -0.1513
10021SOL    HW230642   6.310   9.953   0.894  0.9780 -0.0898  0.4143
10022SOL     OW30643   8.619   5.457   1.259  0.1281  0.3056  0.6628
10022SOL    HW130644   8.547   5.398   1.278  0.7378 -0.3828  0.8815
10022SOL    HW230645   8.582   5.523   1.200 -0.2662 -0.9762 -0.5795
10023SOL     OW30646   2.933   8.476   4.811 -0.7481 -0.3876  0.5413
10023SOL    HW130647   2.992   8.477   4.887  1.0979 -0.5370 -0.8244
10023SOL    HW230648   2.861   8.419   4.837  0.0614 -0.7909  2.0176
10024SOL     OW30649   0.689   0.243   3.618  0.3082  0.1051 -0.1530
10024SOL    HW130650   0.650   0.330   3.613  1.1400  0.4399 -1.0600
10024SOL    HW230651   0.675   0.205   3.531  2.3205  0.3921 -0.6334
10025SOL     OW30652   3.659   1.127   3.200  0.0295  0.0715  0.3991
10025SOL    HW130653   3.622   1.215   3.208 -1.5586 -0.7050  3.2288
10025SOL    HW230654   3.733   1.126   3.261  1.0380 -0.1487 -0.7828
10026SOL     OW30655   2.015   6.730   2.188 -0.0591  0.0738  0.3662
10026SOL    HW130656   2.078   6.748   2.258  1.0548  0.7124 -0.7413
10026SOL    HW230657   2.036   6.641   2.158 -0.7598 -0.3291  1.0589
10027SOL     OW30658   7.486   9.567   9.908 -0.1449 -0.0138  0.1194
10027SOL    HW130659   7.451   9.582   9.820 -0.0642 -0.6066 -0.0165
10027SOL    HW230660   7.581   9.570   9.898 -0.1317  1.1203  0.4073
10028SOL     OW30661   7.096   8.551   3.047  0.1720 -0.1009  0.1918
10028SOL    HW130662   7.104   8.505   2.963 -1.7796 -0.0597 -0.0716
10028SOL    HW230663   7.002   8.551   3.065  0.4766  0.6422  1.9750
10029SOL     OW30664   2.839   2.936   7.206  0.0647 -0.3112  0.3383
10029SOL    HW130665   2.788   2.892   7.138  1.3297 -0.5108 -0.5117
10029SOL    HW230666   2.860   2.867   7.269  1.0309 -0.6827 -0.3790
10030SOL     OW30667   7.789   2.510   1.113  0.0890 -0.1950  0.0194
10030SOL    HW130668   7.754   2.594   1.082 -1.0521 -0.6711 -0.0396
10030SOL    HW230669   7.711   2.456   1.128  0.8158 -1.7199 -1.3077
10031SOL     OW30670   6.548   2.645   6.182  0.3446  0.0723 -0.4758
10031SOL    HW130671   6.474   2.680   6.134 -0.7950  1.1242  1.8718
10031SOL    HW230672   6.510   2.584   6.245  1.4064  0.7335  0.8743
10032SOL     OW30673   0.963   1.529   0.434 -0.3277 -0.0759 -0.0792
10032SOL    HW130674   0.903   1.602   0.418  1.2274  0.8533 -2.2768
10032SOL    HW230675   1.046   1.571   0.457  0.0584 -1.2466  0.7553
10033SOL     OW30676   7.491   4.011   0.906  0.2625  0.1488  0.2080
10033SOL    HW130677   7.431   4.081   0.930  2.0384  2.5963 -1.8404
10033SOL    HW230678   7.576   4.037   0.943  0.6104 -1.9921  1.0692
10034SOL     OW30679   7.304   2.005   2.443 -0.4537 -0.1871 -0.0651
10034SOL    HW130680   7.328   1.985   2.534  2.6294  0.3806 -0.6324
10034SOL    HW230681   7.282   2.098   2.445 -0.4778 -0.1949  0.1124
10035SOL     OW30682   1.936   3.494   1.292  0.4295  0.2525 -0.3377
10035SOL    HW130683   1.878   3.557   1.335 -0.8887 -0.2977 -1.2534
10035SOL    HW230684   2.024   3.529   1.306 -0.2748  2.4262 -1.0029
10036SOL     OW30685   8.660   5.349   4.750  0.6994  0.1767  0.3183
10036SOL    HW130686   8.656   5.441   4.776  1.7599  0.5967 -0.9462
10036SOL    HW230687   8.731   5.312   4.803 -1.2604 -0.5787  2.6272
10037SOL     OW30688   2.219   2.510   2.640 -0.1727 -1.2079 -0.1187
10037SOL    HW130689   2.160   2.463   2.581  1.1711 -0.8191 -1.8671
10037SOL    HW230690   2.243   2.589   2.593  0.3819 -0.5053  1.2804
10038SOL     OW30691   4.791   1.376   3.178 -0.4216 -0.1071 -0.3338
10038SOL    HW130692   4.725   1.311   3.157  0.9502 -1.6014 -0.2049
10038SOL    HW230693   4.785   1.440   3.106 -0.9667 -1.0276 -1.1293
10039SOL     OW30694   6.679   5.743   0.405 -0.4171 -0.1266  0.0254
10039SOL    HW130695   6.619   5.817   0.396 -1.9939 -1.2511  0.9122
10039SOL    HW230696   6.638   5.673   0.354  0.0207 -0.9921  0.8540
10040SOL     OW30697   8.629   5.341   6.552 -0.3090 -0.6215  0.3976
10040SOL    HW130698   8.723   5.326   6.564  0.0397  1.6424  0.9831
10040SOL    HW230699   8.590   5.317   6.637 -0.2451 -1.3497  0.2267
10041SOL     OW30700   9.524   5.791   9.231 -0.1255 -0.0140  0.3783
10041SOL    HW130701   9.511   5.709   9.183  1.6038 -1.2127  1.8282
10041SOL    HW230702   9.445   5.800   9.285 -1.9387  1.1742 -2.2195
10042SOL     OW30703   3.426   2.264   1.910 -0.4667 -1.2896  0.2866
10042SOL    HW130704   3.509   2.224   1.932  0.1602 -1.4426 -2.0781
10042SOL    HW230705   3.363   2.226   1.972  0.9214 -2.3895  1.0615
10043SOL     OW30706   9.801   7.414   0.624 -0.4787 -0.0243 -0.0600
10043SOL    HW130707   9.893   7.408   0.648 -0.2527  0.8427 -0.6698
10043SOL    HW230708   9.779   7.506   0.636 -0.9565 -0.0049 -0.9704
10044SOL     OW30709   8.212   2.034   8.812  0.5170  0.2627 -0.3404
10044SOL    HW130710   8.302   2.009   8.834  0.9770  1.0725 -1.2377
10044SOL    HW230711   8.158   1.963   8.848  1.3943  0.4270  1.4129
10045SOL     OW30712   2.701   7.357   2.112  0.7697 -0.4379 -0.0192
10045SOL    HW130713   2.704   7.363   2.208  1.4714  3.1869 -0.1401
10045SOL    HW230714   2.790   7.331   2.088  1.0678  0.2553  0.2918
10046SOL     OW30715   2.206   1.181   6.196  0.6516 -0.2329 -0.1622
10046SOL    HW130716   2.287   1.226   6.219  1.2245 -0.7375 -1.1313
10046SOL    HW230717   2.161   1.242   6.137  0.3445  0.0212  0.3276
10047SOL     OW30718   7.861   6.720   7.589  0.3124 -0.1187 -0.3947
10047SOL    HW130719   7.851   6.815   7.593  0.9844 -0.0532 -0.2353
10047SOL    HW230720   7.893   6.695   7.676 -0.4336 -0.5657 -0.2335
10048SOL     OW30721   0.603   6.586   2.640  0.5046 -0.3001  0.0341
10048SOL    HW130722   0.598   6.543   2.725 -0.3055  1.0307  0.6885
10048SOL    HW230723   0.553   6.529   2.581 -0.4288 -0.3510  0.8521
10049SOL     OW30724   1.062   1.622   7.554  0.1335  0.1887  0.2048
10049SOL    HW130725   1.086   1.587   7.640 -0.4906 -0.8922 -0.0426
10049SOL    HW230726   1.003   1.556   7.517  1.9608 -0.3754 -1.8936
10050SOL     OW30727   3.957   5.624   7.342 -0.5576  0.5707  0.5232
10050SOL    HW130728   3.986   5.677   7.268 -0.0223  0.5597  0.7213
10050SOL    HW230729   3.938   5.687   7.411 -1.5121  0.6160  0.2355
10051SOL     OW30730   4.870   8.849   9.645 -0.4201 -0.3498  0.1093
10051SOL    HW130731   4.958   8.829   9.615 -0.0815  3.0646 -1.6732
10051SOL    HW230732   4.821   8.872   9.566 -2.0180  0.7045  1.3189
10052SOL     OW30733   6.732   5.203   7.491 -0.2638  0.0432  0.5354
10052SOL    HW130734   6.789   5.261   7.542  2.2002 -3.6260  2.3854
10052SOL    HW230735   6.788   5.171   7.420 -1.7178  0.2317 -0.7404
10053SOL     OW30736   7.961   1.660   5.920 -0.4078 -0.3681  0.0578
10053SOL    HW130737   7.912   1.631   5.843  1.0148  0.3929 -1.1883
10053SOL    HW230738   7.912   1.736   5.952 -1.0231 -0.7015 -0.0676
10054SOL     OW30739   8.210   8.338   5.798 -0.1641  0.7316  0.5951
10054SOL    HW130740   8.242   8.382   5.877 -1.0959 -0.4359  1.6728
10054SOL    HW230741   8.115   8.345   5.803 -0.3589 -1.3615  0.8300
10055SOL     OW30742   2.268   5.121   0.094 -0.0889 -0.8060  0.3152
10055SOL    HW130743   2.274   5.048   0.156 -0.3190 -1.5984 -0.5765
10055SOL    HW230744   2.241   5.081   0.012 -0.7703  0.3656 -0.0586
10056SOL     OW30745   2.082   2.240   1.446  0.6751  0.0035 -0.1875
10056SOL    HW130746   2.101   2.223   1.354  0.5733 -0.6394 -0.0952
10056SOL    HW230747   1.988   2.254   1.449  0.6475 -0.1758 -0.1588
10057SOL     OW30748   9.653   0.734   1.880  0.0519  0.1414  0.0349
10057SOL    HW130749   9.624   0.732   1.789 -0.8752  1.5033  0.2738
10057SOL    HW230750   9.647   0.826   1.905  1.8103  0.0352  1.0100
10058SOL     OW30751   3.725   9.687   4.974  0.0326  0.0514 -0.0100
10058SOL    HW130752   3.775   9.629   5.031  1.0010  1.3521  0.5282
10058SOL    HW230753   3.643   9.641   4.959  1.8204 -2.7726 -2.0053
10059SOL     OW30754   0.895   4.740   4.143 -0.2962  0.2478 -0.4581
10059SOL    HW130755   0.852   4.788   4.072 -3.0910  0.3275  1.1485
10059SOL    HW230756   0.888   4.648   4.118  0.6843  0.3724 -1.2545
10060SOL     OW30757   1.453   8.767   6.527 -0.0109 -0.3996  0.3777
10060SOL    HW130758   1.509   8.689   6.521  0.5687 -0.1621  2.1600
10060SOL    HW230759   1.368   8.734   6.556  0.0274 -0.4584  0.4235
10061SOL     OW30760   7.053   0.878   7.198 -0.0641  0.5908 -0.3902
10061SOL    HW130761   7.136   0.923   7.208 -0.5148  2.0499 -2.6485
10061SOL    HW230762   7.069   0.810   7.132  0.1039 -1.4060  1.5638
10062SOL     OW30763   5.273   9.800   0.778 -0.4415 -0.6059  0.9141
10062SOL    HW130764   5.353   9.757   0.808 -0.1557  0.4928  1.7828
10062SOL    HW230765   5.291   9.824   0.687  0.5119  0.2922  1.3246
10063SOL     OW30766   7.513   3.623   6.771 -0.0455  0.4865 -0.1931
10063SOL    HW130767   7.541   3.612   6.680  0.5516  1.4995 -0.1470
10063SOL    HW230768   7.447   3.693   6.767  1.6660  2.2055  0.4216
10064SOL     OW30769   5.649   2.105   4.364  0.1387 -0.2552 -0.3002
10064SOL    HW130770   5.653   2.198   4.339  0.9306  0.0673  0.9280
10064SOL    HW230771   5.674   2.104   4.457 -0.0500 -1.6851 -0.2415
10065SOL     OW30772   4.465   0.634   6.002  0.3273 -0.7478  0.3923
10065SOL    HW130773   4.373   0.615   6.017 -0.1214  1.6824  1.1665
10065SOL    HW230774   4.476   0.628   5.907 -0.1225 -2.8278  0.4154
10066SOL     OW30775   1.487   5.096   4.048 -0.3120  0.2859  0.5633
10066SOL    HW130776   1.532   5.012   4.055  0.9788  0.7808 -1.0701
10066SOL    HW230777   1.397   5.078   4.075 -0.0021 -1.5554  0.5056
10067SOL     OW30778   0.688   8.520   7.717  0.4107  0.2020 -0.0977
10067SOL    HW130779   0.656   8.562   7.637 -0.4089 -1.0791 -0.4680
10067SOL    HW230780   0.640   8.562   7.787 -1.2096 -0.8036 -0.5485
10068SOL     OW30781   8.815   9.582   7.104 -0.4140 -0.2439 -0.3295
10068SOL    HW130782   8.818   9.501   7.053 -1.9556  0.3309 -1.3768
10068SOL    HW230783   8.767   9.558   7.184 -2.6034  0.0273 -1.4889
10069SOL     OW30784   1.962   7.934   7.678  0.2977  0.3518 -0.0481
10069SOL    HW130785   2.037   7.881   7.652  1.0221  1.6593 -0.7384
10069SOL    HW230786   1.936   7.978   7.597 -0.4364  0.8630  0.4585
10070SOL     OW30787   5.369   6.748   4.992  0.5226 -0.4599 -0.1022
10070SOL    HW130788   5.366   6.717   4.901 -3.4144  0.5589 -0.5125
10070SOL    HW230789   5.316   6.685   5.041 -1.1667  1.3540  0.5348
10071SOL     OW30790   7.547   3.376   5.126  0.4085 -0.1106 -0.1887
10071SOL    HW130791   7.602   3.313   5.079  0.1946  1.3714 -2.6106
10071SOL    HW230792   7.498   3.323   5.189  1.3578 -2.1134 -1.0326
10072SOL     OW30793   5.634   7.597   4.756 -0.1165 -0.2040  0.1460
10072SOL    HW130794   5.617   7.684   4.790 -0.7088 -0.5770  0.8380
10072SOL    HW230795   5.665   7.547   4.832  1.2651 -0.3226 -0.4678
10073SOL     OW30796   9.573   3.841   3.906  0.1665  0.3306  0.2493
10073SOL    HW130797   9.546   3.867   3.994 -0.1926  0.6393  0.0477
10073SOL    HW230798   9.524   3.761   3.888 -1.5853  1.5393 -0.5951
10074SOL     OW30799   8.522   7.029   0.126  0.4688 -0.3749 -0.2882
10074SOL    HW130800   8.432   7.015   0.099 -0.0514 -0.2858  1.2808
10074SOL    HW230801   8.564   6.944   0.114 -0.1479 -0.7450  0.1306
10075SOL     OW30802   5.385   9.570   7.104 -0.0302  0.1492 -0.1858
10075SOL    HW130803   5.310   9.601   7.054 -0.1829 -0.2821 -0.2312
10075SOL    HW230804   5.347   9.521   7.177  0.2111 -0.8543 -0.7204
10076SOL     OW30805   2.368   5.190   3.877 -0.1394  0.4267  0.1318
10076SOL    HW130806   2.391   5.225   3.791  3.3814  2.8769  1.7898
10076SOL    HW230807   2.451   5.157   3.912 -1.3239 -0.0337  2.7645
10077SOL     OW30808   5.645   6.769   5.038 -0.1072 -0.3379  0.2774
10077SOL    HW130809   5.551   6.781   5.024 -0.0040 -1.2801 -1.5598
10077SOL    HW230810   5.651   6.703   5.107 -0.7743  0.4920  1.1342
10078SOL     OW30811   0.695   3.482   6.083  0.1657 -0.3516  0.0023
10078SOL    HW130812   0.692   3.559   6.139  0.7767 -0.9658  0.9171
10078SOL    HW230813   0.661   3.512   5.999 -1.7058  0.3611  0.9477
10079SOL     OW30814   3.474   0.048   6.534 -0.7455  0.5058  0.3862
10079SOL    HW130815   3.457   0.104   6.458  2.3994 -0.2684 -1.0322
10079SOL    HW230816   3.549   0.089   6.578  1.3932 -2.2233 -0.4606
10080SOL     OW30817   9.532   5.440   7.816  0.5938 -0.4125 -0.6067
10080SOL    HW130818   9.443   5.465   7.790  0.5597 -0.5145 -0.5874
10080SOL    HW230819   9.520   5.364   7.873  0.3107  2.3174  3.4037
10081SOL     OW30820   8.009   2.479   8.589  0.5882 -0.4936  0.2262
10081SOL    HW130821   8.010   2.406   8.527  0.7693 -0.2526 -0.0557
10081SOL    HW230822   8.064   2.448   8.661  1.0148 -0.4720 -0.0840
10082SOL     OW30823   0.355   4.130   2.315 -0.2534  0.3211  0.0426
10082SOL    HW130824   0.343   4.199   2.381 -2.0881  0.2745 -0.1726
10082SOL    HW230825   0.266   4.112   2.284  0.2458 -1.7808 -0.2846
10083SOL     OW30826   2.920   5.423   7.130 -0.0223  0.0439 -0.2043
10083SOL    HW130827   2.930   5.430   7.035 -2.5764 -0.9221 -0.6388
10083SOL    HW230828   2.831   5.455   7.147 -0.5844 -2.1428  1.4934
10084SOL     OW30829   5.025   2.547   8.127  0.1277 -0.1517  0.0456
10084SOL    HW130830   5.071   2.482   8.073 -1.0016 -1.3312  0.4608
10084SOL    HW230831   5.074   2.548   8.209  0.8268  0.3820 -0.3646
10085SOL     OW30832   8.145   4.809   9.381 -0.1144  0.5969 -0.7223
10085SOL    HW130833   8.088   4.856   9.441 -1.2525 -3.2178  1.5304
10085SOL    HW230834   8.232   4.845   9.397 -0.6786  0.9816  1.9379
10086SOL     OW30835   4.633   6.762   9.279  0.0425 -0.0181  0.2531
10086SOL    HW130836   4.607   6.851   9.254 -0.2394  0.6959  2.7769
10086SOL    HW230837   4.643   6.766   9.374 -0.7244 -2.9011  0.5422
10087SOL     OW30838   0.740   5.622   5.253  0.3709  0.4419  0.2737
10087SOL    HW130839   0.781   5.536   5.265 -0.6167 -0.0230  0.3845
10087SOL    HW230840   0.784   5.658   5.176  0.0585 -0.6164 -0.4236
10088SOL     OW30841   7.901   8.027   8.380 -0.4830  0.0583  0.0591
10088SOL    HW130842   7.931   7.947   8.336  0.0768  1.1840 -1.6892
10088SOL    HW230843   7.873   8.084   8.309 -0.5056  1.5775  1.2505
10089SOL     OW30844   5.929   6.901   6.623  0.0577 -1.3459 -0.3556
10089SOL    HW130845   6.022   6.920   6.620  0.3314 -2.5827 -0.4035
10089SOL    HW230846   5.887   6.974   6.578  0.8317  0.1561  1.2800
10090SOL     OW30847   7.316   0.811   2.211  0.4518  0.0726 -0.3049
10090SOL    HW130848   7.245   0.850   2.160  1.5494  1.1690 -1.0346
10090SOL    HW230849   7.303   0.716   2.201 -2.9395  0.0069  2.4073
10091SOL     OW30850   9.777   3.515   4.953 -0.2957 -0.2478  0.1432
10091SOL    HW130851   9.683   3.503   4.956 -0.4509  0.4352 -1.2093
10091SOL    HW230852   9.812   3.428   4.935 -0.9299 -0.0251 -2.6687
10092SOL     OW30853   7.154   8.159   8.768  0.1240 -0.0688  0.0165
10092SOL    HW130854   7.140   8.157   8.674  0.3476  2.0193 -0.1024
10092SOL    HW230855   7.246   8.135   8.779 -0.0822 -1.0234 -0.2040
10093SOL     OW30856   1.683   4.630   7.493  0.7527  0.2302 -0.1306
10093SOL    HW130857   1.673   4.581   7.412  0.9311 -0.0021 -0.0121
10093SOL    HW230858   1.611   4.600   7.548  1.5187 -0.7444  0.3679
10094SOL     OW30859   8.537   6.821   1.075 -0.6694  0.1059  0.7000
10094SOL    HW130860   8.465   6.800   1.135 -0.2597  0.0135  1.1725
10094SOL    HW230861   8.563   6.736   1.039 -0.8439  0.1483  0.4699
10095SOL     OW30862   8.427   7.176   8.210 -0.1283 -0.2741 -0.0316
10095SOL    HW130863   8.483   7.240   8.166  0.1197 -2.1916 -2.7639
10095SOL    HW230864   8.367   7.147   8.142 -0.8763 -2.2211  1.3914
10096SOL     OW30865   4.766   5.450   7.749 -0.4130 -0.0171 -0.1128
10096SOL    HW130866   4.861   5.438   7.744 -0.3725 -1.2435  2.2705
10096SOL    HW230867   4.730   5.363   7.733 -1.3067  0.7099 -2.5507
10097SOL     OW30868   1.842   0.392   5.817 -0.2457 -0.7566  0.2235
10097SOL    HW130869   1.831   0.460   5.883  1.4644  2.5223 -2.5274
10097SOL    HW230870   1.934   0.367   5.821 -0.7854 -2.8478  0.9997
10098SOL     OW30871   4.432   5.519   6.006 -0.0325  0.2795  0.0327
10098SOL    HW130872   4.430   5.428   5.976  0.4379  0.8025 -1.7131
10098SOL    HW230873   4.353   5.558   5.969 -0.4735  0.5012  1.1610
10099SOL     OW30874   0.020   3.487   0.504  0.4211 -0.0662  0.1841
10099SOL    HW130875   0.001   3.450   0.418 -0.8496  0.6043  0.1594
10099SOL    HW230876   0.098   3.439   0.533 -0.9142 -2.5535  0.0223
10100SOL     OW30877   8.996   0.300   4.308 -0.3932 -0.3014 -0.2774
10100SOL    HW130878   8.940   0.330   4.236  0.8074  1.2039 -0.6271
10100SOL    HW230879   8.971   0.208   4.321 -1.6549 -0.1819 -1.6261
10101SOL     OW30880   6.309   1.128   0.792 -0.2669 -0.0585 -0.2398
10101SOL    HW130881   6.332   1.221   0.799  1.2947 -0.4217 -0.0063
10101SOL    HW230882   6.302   1.098   0.883 -0.3841 -0.2456 -0.3108
10102SOL     OW30883   5.170   7.017   7.492 -0.1928  0.8311 -0.3149
10102SOL    HW130884   5.218   7.088   7.535  0.9862 -0.4419  0.5650
10102SOL    HW230885   5.237   6.953   7.470 -1.2764 -0.1931 -0.7280
10103SOL     OW30886   3.325   1.087   2.869  0.0541  0.5748 -0.1588
10103SOL    HW130887   3.338   1.070   2.962 -0.2540  1.2958  0.0242
10103SOL    HW230888   3.395   1.148   2.846  0.1108  0.4208 -0.3912
10104SOL     OW30889   0.470   8.111   1.323 -0.0697  0.0585  0.0626
10104SOL    HW130890   0.523   8.185   1.295  0.1879  0.0393  0.4927
10104SOL    HW230891   0.495   8.096   1.414  0.3299 -0.9505 -0.1985
10105SOL     OW30892   0.143   9.631   0.589 -0.6685 -0.3838  0.4699
10105SOL    HW130893   0.230   9.605   0.559 -0.8568 -0.4408 -0.0433
10105SOL    HW230894   0.135   9.723   0.564 -1.3022 -0.7660 -0.8087
10106SOL     OW30895   3.992   2.803   3.205  0.2628 -0.2744 -0.2327
10106SOL    HW130896   3.918   2.818   3.264  0.0824 -0.6672 -0.3603
10106SOL    HW230897   4.068   2.832   3.255  0.3399 -2.3003  0.9272
10107SOL     OW30898   1.445   7.238   7.466  0.2779  0.4794 -0.1654
10107SOL    HW130899   1.472   7.329   7.465 -1.8168  1.1543 -0.4599
10107SOL    HW230900   1.526   7.189   7.476  1.3882  2.3849  0.6795
10108SOL     OW30901   5.392   4.690   1.723  0.1308  0.0634 -0.1252
10108SOL    HW130902   5.327   4.708   1.791  0.6874  1.6480  0.0562
10108SOL    HW230903   5.463   4.645   1.770  1.1083  2.3010  0.7579
10109SOL     OW30904   8.937   4.658   6.621 -0.3754  0.4170 -0.1288
10109SOL    HW130905   8.975   4.707   6.695 -1.8260  1.1740  0.1520
10109SOL    HW230906   8.870   4.603   6.661  1.9852 -2.8451 -0.2593
10110SOL     OW30907   0.494   5.744   2.227 -0.0960 -0.2885  0.0359
10110SOL    HW130908   0.467   5.732   2.318 -1.9332  0.8547 -0.3057
10110SOL    HW230909   0.467   5.663   2.183 -1.6630  0.2013  0.0237
10111SOL     OW30910   1.300   7.702   3.453 -0.2447 -0.0432  0.2165
10111SOL    HW130911   1.222   7.756   3.439 -0.3949  0.0339  1.2748
10111SOL    HW230912   1.273   7.638   3.519  0.9122  0.7457  1.5139
10112SOL     OW30913   0.031   7.814   8.890 -0.0239 -0.3065  0.0318
10112SOL    HW130914  -0.041   7.797   8.951  0.1435 -2.4168 -0.3182
10112SOL    HW230915   0.015   7.755   8.817  0.6025  1.1327 -1.3119
10113SOL     OW30916   3.134   7.611   7.290  0.7007  0.4037 -0.0516
10113SOL    HW130917   3.172   7.591   7.375  0.7886  1.5513  0.2009
10113SOL    HW230918   3.040   7.618   7.307  0.6713  0.1999 -0.1345
10114SOL     OW30919   6.306   4.350   6.430 -0.3814 -0.0142 -0.9765
10114SOL    HW130920   6.357   4.404   6.490 -1.5877  1.3024 -1.0918
10114SOL    HW230921   6.354   4.267   6.426  0.5669  0.4225  0.5590
10115SOL     OW30922   1.015   2.993   8.313  0.1387 -0.3692  0.3214
10115SOL    HW130923   1.027   2.940   8.234  0.8103 -0.9863  0.8274
10115SOL    HW230924   0.953   3.061   8.287 -1.8948 -2.2209  0.0329
10116SOL     OW30925   7.840   7.516   3.263  0.1788 -0.1611 -0.1234
10116SOL    HW130926   7.905   7.562   3.209  0.1805  1.1478  0.9518
10116SOL    HW230927   7.863   7.538   3.353 -0.3790 -1.5718  0.3911
10117SOL     OW30928   7.353   7.807   0.589 -0.0823 -0.1370 -0.0212
10117SOL    HW130929   7.264   7.776   0.571 -0.1514  1.0512 -1.9683
10117SOL    HW230930   7.343   7.902   0.600  1.0446  0.1507 -1.2657
10118SOL     OW30931   2.835   4.227   9.251  0.2683  0.1576 -0.7163
10118SOL    HW130932   2.813   4.262   9.337  1.5356 -0.9975  0.1242
10118SOL    HW230933   2.866   4.302   9.201  0.8684  0.6211  0.3250
10119SOL     OW30934   5.492   3.633   2.664  0.9668  0.0918  0.1418
10119SOL    HW130935   5.580   3.660   2.691  1.7521 -2.4823  0.4135
10119SOL    HW230936   5.438   3.711   2.677  3.2498  1.8627 -0.4012
10120SOL     OW30937   2.993   7.744   0.989  0.0973 -0.0965 -0.5650
10120SOL    HW130938   2.937   7.819   0.965  0.2766 -0.2024 -1.3174
10120SOL    HW230939   3.067   7.784   1.034  0.1852  0.1854 -0.9487
10121SOL     OW30940   1.079   1.016   9.366 -0.2119  0.1662  0.1350
10121SOL    HW130941   1.163   0.973   9.381 -0.5378 -0.0194  1.4921
10121SOL    HW230942   1.100   1.109   9.361  0.3038 -0.0056 -1.3912
10122SOL     OW30943   1.982   9.410   7.798 -0.1582  0.2057 -0.0476
10122SOL    HW130944   1.934   9.489   7.822  0.6479  0.7846 -0.2996
10122SOL    HW230945   1.979   9.355   7.877 -2.8987 -0.6679 -0.6482
10123SOL     OW30946   8.654   2.080   8.837  0.1753  0.1785  0.0347
10123SOL    HW130947   8.593   2.009   8.859 -1.4821  1.3590 -0.5176
10123SOL    HW230948   8.711   2.043   8.769  2.1349 -1.9081  2.6170
10124SOL     OW30949   3.366   0.197   9.597 -0.3164  0.0152 -0.2662
10124SOL    HW130950   3.350   0.291   9.603 -0.6702 -0.0520 -0.1293
10124SOL    HW230951   3.313   0.167   9.524 -0.1259 -0.0630 -0.3737
10125SOL     OW30952   0.932   3.501   0.137 -0.3740 -0.0057 -0.0052
10125SOL    HW130953   0.987   3.565   0.183  0.3294  1.3949 -2.6112
10125SOL    HW230954   0.903   3.441   0.206 -0.9578  2.9788  2.5929
10126SOL     OW30955   0.231   4.405   4.298  0.0996 -0.0882 -0.3433
10126SOL    HW130956   0.281   4.324   4.282  0.4838  0.2768 -1.0268
10126SOL    HW230957   0.299   4.472   4.310 -0.2003 -0.0001  1.0198
10127SOL     OW30958   7.206   2.326   1.307  0.2374  0.2893  0.4163
10127SOL    HW130959   7.255   2.281   1.376  1.4671 -0.1070 -0.6730
10127SOL    HW230960   7.212   2.267   1.232 -2.8156 -0.2704  0.4866
10128SOL     OW30961   1.410   2.999   2.842 -0.1849  0.1479 -0.5224
10128SOL    HW130962   1.409   3.077   2.786 -1.1243  0.9724  0.6007
10128SOL    HW230963   1.442   3.030   2.926 -2.3471 -0.2500  0.5077
10129SOL     OW30964   4.576   7.663   1.536  0.1333  0.0381  0.2196
10129SOL    HW130965   4.509   7.731   1.544  1.3211  1.4438 -1.1730
10129SOL    HW230966   4.527   7.583   1.514 -1.1495  0.8123  0.2000
10130SOL     OW30967   7.377   7.398   1.237 -0.5223  0.0600 -0.0026
10130SOL    HW130968   7.376   7.447   1.320  1.3201 -1.8055  1.2560
10130SOL    HW230969   7.409   7.460   1.173  1.0556  0.7617  1.3821
10131SOL     OW30970   2.322   0.075   3.951  0.0534 -0.0368 -0.1968
10131SOL    HW130971   2.338   0.160   3.910  0.8837 -0.7530 -1.4259
10131SOL    HW230972   2.311   0.015   3.877 -0.1093 -1.0755  0.6495
10132SOL     OW30973   7.175   7.868   0.893 -0.5711 -1.0299  0.2303
10132SOL    HW130974   7.130   7.783   0.889 -0.3653 -1.0960 -1.3300
10132SOL    HW230975   7.268   7.846   0.897 -0.5137 -0.8907 -0.2401
10133SOL     OW30976   3.237   4.737   7.606  0.6843 -0.0286 -0.3613
10133SOL    HW130977   3.152   4.777   7.591 -0.3907 -1.8327  0.6794
10133SOL    HW230978   3.282   4.797   7.665 -0.2425  0.4316 -0.1095
10134SOL     OW30979   3.176   3.057   4.005 -0.3856  0.5161 -0.1034
10134SOL    HW130980   3.234   3.133   4.001 -0.3683  0.4522 -1.1966
10134SOL    HW230981   3.100   3.088   4.056  0.8457  0.4061  1.9176
10135SOL     OW30982   1.674   4.180   7.267  0.1588 -0.5090  0.7240
10135SOL    HW130983   1.629   4.124   7.331 -0.7229 -1.0121 -0.2962
10135SOL    HW230984   1.738   4.122   7.226 -0.8703 -0.8537 -0.4511
10136SOL     OW30985   7.975   0.780   4.808 -0.3799  0.8164 -0.1086
10136SOL    HW130986   7.974   0.697   4.761 -1.3702  0.9874 -0.4236
10136SOL    HW230987   8.046   0.830   4.768 -0.5676  0.5806 -0.7474
10137SOL     OW30988   8.970   5.867   3.417  0.1716 -0.4758  0.2495
10137SOL    HW130989   8.972   5.861   3.321 -1.9751 -1.2521  0.1836
10137SOL    HW230990   8.876   5.872   3.438  0.6008 -0.3263  2.3191
10138SOL     OW30991   0.862   9.046   9.720  0.0757 -0.0171 -0.2637
10138SOL    HW130992   0.884   9.070   9.630 -0.3228  0.3138 -0.2753
10138SOL    HW230993   0.891   9.121   9.772  2.1481 -1.0116  0.1434
10139SOL     OW30994   4.068   5.422   8.010 -0.7221  0.1035  0.1752
10139SOL    HW130995   4.072   5.408   8.104 -1.5359  1.4182  0.4290
10139SOL    HW230996   4.138   5.483   7.991 -1.9725  1.6352  0.3186
10140SOL     OW30997   7.095   4.271   8.625  0.0339  0.2925  0.3798
10140SOL    HW130998   7.001   4.253   8.620 -0.1136  1.2273 -0.4813
10140SOL    HW230999   7.119   4.296   8.536  1.2837 -0.7430  0.3880
10141SOL     OW31000   9.740   9.629   7.757  0.4432 -0.3275  0.4763
10141SOL    HW131001   9.653   9.668   7.743  0.3049 -0.9153 -0.3208
10141SOL    HW231002   9.800   9.703   7.750  0.0893 -0.0708  0.0553
10142SOL     OW31003   5.119   9.396   4.912  0.4435 -0.0301  0.4587
10142SOL    HW131004   5.207   9.432   4.903  0.4133  0.1099  0.7046
10142SOL    HW231005   5.128   9.303   4.890  0.1576  0.4857 -2.2374
10143SOL     OW31006   0.553   3.186   2.930 -0.1397  0.0189 -0.1569
10143SOL    HW131007   0.537   3.252   2.863 -1.1183 -1.0509 -1.0388
10143SOL    HW231008   0.610   3.122   2.887 -0.6210 -0.5840  0.0811
10144SOL     OW31009   0.708   7.612   8.385  0.0748  0.0913 -0.5083
10144SOL    HW131010   0.803   7.621   8.379  0.0888  0.4342  0.1703
10144SOL    HW231011   0.679   7.690   8.432 -0.0857 -1.8871  3.0199
10145SOL     OW31012   5.507   6.018   9.736  0.2946 -0.1288  0.7247
10145SOL    HW131013   5.420   6.054   9.754 -0.1115 -1.3248  1.2716
10145SOL    HW231014   5.536   5.984   9.821  1.4136  0.4872  0.5987
10146SOL     OW31015   1.076   3.225   6.638  0.3720 -0.1241  0.2723
10146SOL    HW131016   1.037   3.312   6.643  2.1966  0.6503  2.1828
10146SOL    HW231017   1.029   3.173   6.704  0.7427  0.0357  0.6630
10147SOL     OW31018   5.532   2.850   2.589 -0.4477 -0.2317  0.1652
10147SOL    HW131019   5.557   2.758   2.579 -1.9606 -0.8613  1.7074
10147SOL    HW231020   5.437   2.848   2.603 -0.4258  1.5115  0.8674
10148SOL     OW31021   4.343   6.518   8.879  0.7835  0.3857 -0.2418
10148SOL    HW131022   4.369   6.566   8.800  1.5040  1.7958  0.8107
10148SOL    HW231023   4.301   6.583   8.935  0.5624 -0.5141  0.6882
10149SOL     OW31024   0.450   1.992   9.883  0.6341 -0.2509 -0.2052
10149SOL    HW131025   0.422   1.900   9.885 -0.0741 -0.0355  0.4116
10149SOL    HW231026   0.525   1.993   9.825  0.8955 -1.2987  0.0940
10150SOL     OW31027   5.038   9.430   5.907 -0.8533  0.2855  0.0581
10150SOL    HW131028   4.984   9.475   5.843 -0.7836 -1.7741 -1.5389
10150SOL    HW231029   4.976   9.392   5.969 -1.0060  0.9950  0.3464
10151SOL     OW31030   3.002   6.538   1.811 -0.7062  0.4560  0.3763
10151SOL    HW131031   2.977   6.509   1.899  0.3675 -0.2333  0.4766
10151SOL    HW231032   3.006   6.633   1.817 -2.9848  0.6088  0.4117
10152SOL     OW31033   2.990   1.349   0.048 -0.2909 -0.0654  0.0281
10152SOL    HW131034   2.958   1.427   0.094 -0.0508 -0.6002  1.1250
10152SOL    HW231035   2.930   1.280   0.074 -0.1175 -0.3914 -0.4333
10153SOL     OW31036   0.963   4.272   7.994  0.1826  0.0414  0.6523
10153SOL    HW131037   1.057   4.291   7.995  0.3081 -0.5329  0.2758
10153SOL    HW231038   0.939   4.265   8.086 -0.1489  3.2255  0.9453
10154SOL     OW31039   7.346   7.564   9.593  0.2266 -0.1266 -0.3714
10154SOL    HW131040   7.282   7.602   9.533  0.7016  1.5349  0.1402
10154SOL    HW231041   7.340   7.469   9.576 -0.6829  0.1704 -1.9863
10155SOL     OW31042   8.569   5.487   3.726  0.1665 -0.2180 -0.0870
10155SOL    HW131043   8.501   5.496   3.659  0.1189 -2.3223 -0.3892
10155SOL    HW231044   8.648   5.519   3.683 -0.7170  3.3842  0.6544
10156SOL     OW31045   2.977   4.917   2.118 -0.1782  0.1374  0.0976
10156SOL    HW131046   2.964   4.977   2.044  0.1185 -0.7167 -0.6650
10156SOL    HW231047   3.071   4.898   2.118 -0.4838 -1.5480 -0.6658
10157SOL     OW31048   7.948   2.539   1.960 -0.5039  0.1776 -0.2341
10157SOL    HW131049   7.958   2.629   1.930 -0.1026  0.4293  0.6435
10157SOL    HW231050   8.034   2.500   1.948 -0.1194  0.5092  1.3114
10158SOL     OW31051   5.984   7.274   6.675 -0.0360 -0.1926 -0.0717
10158SOL    HW131052   6.024   7.358   6.650 -0.9818  0.5392  0.8287
10158SOL    HW231053   5.974   7.228   6.591 -1.9475  1.6808 -0.9628
10159SOL     OW31054   2.305   1.981   0.293  0.0152 -0.0353  0.1400
10159SOL    HW131055   2.343   1.936   0.368  0.4376 -1.4399 -0.8930
10159SOL    HW231056   2.236   1.922   0.262  0.5942 -0.0121 -1.2562
10160SOL     OW31057   5.393   5.597   8.844 -0.5627 -0.5919 -0.0747
10160SOL    HW131058   5.394   5.665   8.777 -5.0737 -0.1218 -0.0189
10160SOL    HW231059   5.418   5.642   8.925 -0.6230  0.2590 -0.5180
10161SOL     OW31060   7.760   1.536   2.649  0.0671 -0.1323 -0.0063
10161SOL    HW131061   7.854   1.550   2.655 -0.0145  1.6686 -1.6924
10161SOL    HW231062   7.749   1.473   2.578 -0.0112  1.1255 -1.1621
10162SOL     OW31063   2.241   5.977   9.702  0.3278  0.3420 -0.6140
10162SOL    HW131064   2.329   6.002   9.677  0.3022  0.4532 -0.5909
10162SOL    HW231065   2.222   5.899   9.648  0.2828  0.5636 -0.9202
10163SOL     OW31066   7.843   4.427   4.406 -0.4761 -0.8301  0.4871
10163SOL    HW131067   7.857   4.333   4.418  0.8585 -1.0604 -2.1418
10163SOL    HW231068   7.816   4.436   4.314 -0.8841  1.3519  0.7615
10164SOL     OW31069   8.371   1.852   0.690  0.7427  0.4875 -0.1552
10164SOL    HW131070   8.422   1.832   0.769  1.3995  1.5962 -0.2813
10164SOL    HW231071   8.280   1.850   0.720  0.8613 -0.9877  0.1872
10165SOL     OW31072   4.162   3.156   9.284 -0.3493 -0.6498  0.7308
10165SOL    HW131073   4.129   3.171   9.373 -0.5320  1.1940  0.3856
10165SOL    HW231074   4.237   3.097   9.296 -1.4238 -1.8412  1.9105
10166SOL     OW31075   5.470   4.331   2.266  0.5897  0.2947 -0.2624
10166SOL    HW131076   5.540   4.395   2.279 -0.2400  1.3214 -0.6355
10166SOL    HW231077   5.407   4.350   2.336  0.1134  0.2132 -0.6562
10167SOL     OW31078   5.319   5.676   2.970 -0.2708 -0.0423  0.2124
10167SOL    HW131079   5.400   5.643   2.931 -0.4692 -2.3714  1.5657
10167SOL    HW231080   5.342   5.694   3.061 -1.1813 -0.3713  0.5186
10168SOL     OW31081   6.162   8.839   3.603  0.1581  0.0401  0.2873
10168SOL    HW131082   6.256   8.845   3.587  0.5218  1.3003  2.4407
10168SOL    HW231083   6.122   8.862   3.519  1.7390 -0.6584 -0.7078
10169SOL     OW31084   4.323   3.290   7.955  0.4450  0.1778  0.0378
10169SOL    HW131085   4.232   3.275   7.930  0.3751 -0.1561  0.4859
10169SOL    HW231086   4.327   3.268   8.048  0.9157  0.4875  0.0972
10170SOL     OW31087   9.851   6.100   1.514 -0.1182  0.4124 -0.0692
10170SOL    HW131088   9.843   6.176   1.458 -1.0927  0.4773  0.1507
10170SOL    HW231089   9.761   6.076   1.537  0.2360  1.2114  2.5661
10171SOL     OW31090   7.392   9.945   0.428  0.3475  0.1120  0.4065
10171SOL    HW131091   7.409  10.022   0.374 -1.6329  0.9140  0.8265
10171SOL    HW231092   7.460   9.883   0.404  0.3003  0.9147 -2.0733
10172SOL     OW31093   4.916   5.324   4.602  0.3870  0.1366 -0.2801
10172SOL    HW131094   4.866   5.405   4.610  1.0149  0.6448 -1.3890
10172SOL    HW231095   5.007   5.351   4.605  0.6020 -0.4906 -0.9573
10173SOL     OW31096   2.423   5.435   9.153 -0.4302 -0.6563 -0.1834
10173SOL    HW131097   2.360   5.506   9.158 -0.3717 -0.6388  0.4886
10173SOL    HW231098   2.392   5.370   9.216  0.3942 -0.4931  0.4177
10174SOL     OW31099   3.205   8.582   9.776  0.1330  0.2502  0.1023
10174SOL    HW131100   3.157   8.533   9.843 -1.1857  0.4998 -0.6385
10174SOL    HW231101   3.294   8.547   9.781 -0.5535 -1.6267  0.1934
10175SOL     OW31102   2.608   9.788   7.789 -0.3505 -0.3259 -0.4483
10175SOL    HW131103   2.608   9.729   7.865 -0.5420  1.4435  0.9831
10175SOL    HW231104   2.525   9.768   7.745 -1.3051  0.0824  1.0536
10176SOL     OW31105   6.036   7.565   6.923 -0.0149  0.3182 -0.4141
10176SOL    HW131106   6.091   7.597   6.851  1.6535 -0.9829  0.2095
10176SOL    HW231107   5.956   7.535   6.880 -0.0312  1.7128 -1.4264
10177SOL     OW31108   9.632   2.016   8.548 -0.0700  0.3624  0.7825
10177SOL    HW131109   9.723   2.032   8.573  0.6338 -0.0771 -1.2425
10177SOL    HW231110   9.615   1.927   8.576  1.0259 -0.4763 -0.9867
10178SOL     OW31111   3.522   1.329   0.380 -0.3726 -0.0347  0.0438
10178SOL    HW131112   3.561   1.256   0.429  0.1807  0.0373 -0.2778
10178SOL    HW231113   3.449   1.289   0.332 -0.1819 -0.3436  0.0059
10179SOL     OW31114   6.446   7.081   7.831 -0.3115  0.3748  0.1127
10179SOL    HW131115   6.364   7.037   7.857 -1.5623  0.2806 -3.4355
10179SOL    HW231116   6.491   7.017   7.777  0.0377  1.8713 -1.4426
10180SOL     OW31117   6.605   4.092   4.043 -0.3603 -0.3561 -0.2937
10180SOL    HW131118   6.517   4.061   4.065 -0.1739 -0.2336  0.6730
10180SOL    HW231119   6.608   4.090   3.947 -1.2569 -0.7933 -0.3236
10181SOL     OW31120   2.026   4.487   5.368 -0.4489 -0.5642  0.1097
10181SOL    HW131121   2.095   4.508   5.305 -0.1899 -0.6133  0.3711
10181SOL    HW231122   2.069   4.430   5.432 -0.5492 -0.0234  0.6650
10182SOL     OW31123   5.736   7.420   3.393 -0.0245  0.0717  0.3985
10182SOL    HW131124   5.756   7.418   3.299 -0.6751  0.8369  0.2314
10182SOL    HW231125   5.791   7.351   3.430  1.3242  0.6915 -0.3370
10183SOL     OW31126   3.035   0.510   4.195 -0.0858  0.4832 -0.2663
10183SOL    HW131127   3.052   0.462   4.113 -2.8710  0.7886 -1.1075
10183SOL    HW231128   2.971   0.576   4.171  0.0138  1.4505  1.9453
10184SOL     OW31129   3.216   5.904   4.608  0.0377  0.6621  0.1054
10184SOL    HW131130   3.194   5.929   4.518  1.8094  1.0958 -0.2327
10184SOL    HW231131   3.245   5.985   4.649 -3.4386  1.1510  2.0274
10185SOL     OW31132   7.537   1.255   9.563  0.2851  0.4238 -0.0660
10185SOL    HW131133   7.530   1.258   9.468 -0.3637 -0.5112 -0.0566
10185SOL    HW231134   7.464   1.200   9.591  0.9911 -0.0402  0.9089
10186SOL     OW31135   6.157   2.452   8.825  0.2263  0.3385  0.0161
10186SOL    HW131136   6.126   2.383   8.883 -1.4776  0.2411 -0.9268
10186SOL    HW231137   6.247   2.429   8.804  0.4019 -0.3764  1.4847
10187SOL     OW31138   7.682   5.801   8.492 -0.2283 -0.3966  0.0364
10187SOL    HW131139   7.719   5.716   8.469 -1.2840 -1.3501  1.7108
10187SOL    HW231140   7.589   5.786   8.501 -0.3492  0.7748  1.0746
10188SOL     OW31141   2.216   0.852   4.011  0.2173  0.2308  0.1425
10188SOL    HW131142   2.217   0.918   3.941 -0.0564 -0.1180 -0.1982
10188SOL    HW231143   2.164   0.891   4.081 -0.5780  0.0743 -0.3563
10189SOL     OW31144   9.886   7.448   2.440  0.0774 -0.0385  0.6540
10189SOL    HW131145   9.947   7.487   2.503  0.3059  1.3191 -0.3465
10189SOL    HW231146   9.870   7.518   2.376  0.3596 -1.5376 -1.1603
10190SOL     OW31147   5.934   2.713   1.328  0.2624  0.2715 -0.1318
10190SOL    HW131148   6.029   2.698   1.337  0.2363 -0.0046 -0.3040
10190SOL    HW231149   5.919   2.712   1.233  0.0210 -0.0846 -0.0878
10191SOL     OW31150   1.680   6.701   5.181 -0.0266 -0.2967 -0.4185
10191SOL    HW131151   1.674   6.729   5.089  0.6611  0.2346 -0.3079
10191SOL    HW231152   1.773   6.705   5.201 -0.1357 -0.7519  0.2094
10192SOL     OW31153   9.466   6.708   5.005  0.3213 -0.5427  0.2340
10192SOL    HW131154   9.453   6.615   4.986 -2.3061 -0.0185 -1.0127
10192SOL    HW231155   9.405   6.726   5.077  0.9523  0.1704  0.5912
10193SOL     OW31156   5.328   4.935   7.715  0.4737  0.0387  0.1545
10193SOL    HW131157   5.289   5.000   7.774  1.1505  0.1942  0.4431
10193SOL    HW231158   5.324   4.976   7.628  1.4708  0.7497  0.4270
10194SOL     OW31159   7.817   5.372   2.326  0.5197  0.1701  0.4079
10194SOL    HW131160   7.863   5.441   2.279  0.5356  0.0023  0.1759
10194SOL    HW231161   7.885   5.328   2.377  1.2323 -1.9962 -2.1828
10195SOL     OW31162   4.308   1.123   9.554  0.6078 -0.1451  0.4132
10195SOL    HW131163   4.251   1.193   9.585 -0.8574  0.2764 -2.7637
10195SOL    HW231164   4.383   1.169   9.516  0.2838 -0.3185 -0.4750
10196SOL     OW31165   6.387   9.569   5.511 -0.1126 -0.1511 -0.1813
10196SOL    HW131166   6.399   9.594   5.602  1.9815 -1.3148 -0.0612
10196SOL    HW231167   6.408   9.648   5.461  1.1777 -0.1524  0.3138
10197SOL     OW31168   6.950   7.247   9.693 -0.3537  0.2343 -0.2370
10197SOL    HW131169   6.937   7.158   9.661 -1.5782  0.1038  0.5214
10197SOL    HW231170   6.922   7.303   9.621 -0.4115 -0.0142 -0.4083
10198SOL     OW31171   1.129   7.473   0.453 -0.6537  0.2251  0.2559
10198SOL    HW131172   1.169   7.387   0.439  1.3268  1.1655 -0.3250
10198SOL    HW231173   1.040   7.454   0.483 -0.6396 -2.0061 -0.8947
10199SOL     OW31174   4.856   2.563   4.421 -0.3019 -0.3490  0.0608
10199SOL    HW131175   4.794   2.578   4.492  1.4580  1.9474  1.2692
10199SOL    HW231176   4.805   2.574   4.341 -1.5572  1.1467  1.0045
10200SOL     OW31177   8.642   2.993   1.016 -0.2844 -0.1804 -0.0374
10200SOL    HW131178   8.596   2.910   1.021 -1.1299  0.2160 -0.8542
10200SOL    HW231179   8.576   3.059   1.040  0.1532  0.3126 -0.1642
10201SOL     OW31180   7.997   4.759   0.100 -0.0859 -0.1954  0.3324
10201SOL    HW131181   8.051   4.686   0.134 -0.6454  0.0780  1.9023
10201SOL    HW231182   7.907   4.727   0.108 -0.2335 -0.3377 -1.5289
10202SOL     OW31183   0.325   9.085   8.456 -0.4157 -0.6934  0.3239
10202SOL    HW131184   0.334   9.057   8.547 -0.0453  1.0207  0.8467
10202SOL    HW231185   0.396   9.148   8.443 -0.7438 -0.5631 -1.0150
10203SOL     OW31186   2.129   4.308   9.609 -0.0723 -0.0281 -0.1323
10203SOL    HW131187   2.089   4.232   9.650 -0.9264 -0.9617 -2.5265
10203SOL    HW231188   2.223   4.297   9.623 -0.2566 -0.9628  0.4429
10204SOL     OW31189   0.366   8.827   7.425 -0.0772 -0.0121 -0.2598
10204SOL    HW131190   0.330   8.793   7.506  0.3811 -0.2631 -0.1548
10204SOL    HW231191   0.376   8.921   7.440 -0.3481  0.0003 -0.1626
10205SOL     OW31192   4.394   4.252   0.733 -0.0610 -0.3875 -0.2814
10205SOL    HW131193   4.338   4.329   0.739  0.7019  0.2037 -0.5511
10205SOL    HW231194   4.477   4.280   0.772  0.9960 -0.3046 -2.4379
10206SOL     OW31195   8.718   8.787   0.300 -0.6232  0.8751 -0.1868
10206SOL    HW131196   8.681   8.728   0.366  0.1212 -0.7112 -1.1323
10206SOL    HW231197   8.643   8.815   0.248 -0.8859  0.0434 -0.2677
10207SOL     OW31198   7.123   9.844   7.343  0.5329  0.0782 -0.2972
10207SOL    HW131199   7.083   9.926   7.370 -1.6930 -1.0601  0.1274
10207SOL    HW231200   7.117   9.845   7.247  0.1242  0.2537 -0.2737
10208SOL     OW31201   5.576   1.937   4.179 -0.1080  0.6542 -0.5570
10208SOL    HW131202   5.611   1.981   4.256  0.8786  0.6230 -0.9627
10208SOL    HW231203   5.483   1.960   4.177 -0.3587 -0.0737  1.1374
10209SOL     OW31204   8.505   6.892   3.397  0.2299  0.1319 -0.0013
10209SOL    HW131205   8.591   6.850   3.397 -0.1110 -0.7089  2.0629
10209SOL    HW231206   8.479   6.893   3.305  1.5576 -1.4845 -0.4578
10210SOL     OW31207   5.351   0.692   6.269  0.2122  0.5451 -0.0733
10210SOL    HW131208   5.328   0.612   6.221 -0.6226 -1.2251  3.0259
10210SOL    HW231209   5.304   0.762   6.223 -3.3120 -1.4979  0.0604
10211SOL     OW31210   6.979   6.799   5.335  0.8821 -0.3570 -0.3163
10211SOL    HW131211   6.907   6.861   5.343  0.9846 -0.4201  1.3957
10211SOL    HW231212   6.976   6.771   5.243  0.0210  1.1667 -0.7834
10212SOL     OW31213   5.251   2.768   2.198  0.9761 -0.2152  0.3710
10212SOL    HW131214   5.224   2.690   2.247  0.0694  0.1303  0.4334
10212SOL    HW231215   5.186   2.776   2.128  1.0982  0.4524  0.3294
10213SOL     OW31216   8.580   2.062   3.951 -0.3932  0.6916  0.3055
10213SOL    HW131217   8.642   1.992   3.929 -1.3272 -0.2111  0.4883
10213SOL    HW231218   8.608   2.092   4.038 -0.9021 -0.5405  0.9257
10214SOL     OW31219   3.016   1.162   5.404 -0.6328  0.2132 -0.0320
10214SOL    HW131220   3.103   1.124   5.416 -0.6888 -0.0069 -0.3053
10214SOL    HW231221   2.956   1.089   5.417 -0.7696  0.3364  0.0281
10215SOL     OW31222   0.899   5.188   6.351 -0.0537 -0.6397  0.1607
10215SOL    HW131223   0.936   5.166   6.265 -0.8372 -0.9562 -0.1057
10215SOL    HW231224   0.812   5.224   6.331  0.1569  0.2211  0.7638
10216SOL     OW31225   7.336   2.525   7.729 -0.5332  0.1969  0.3159
10216SOL    HW131226   7.336   2.455   7.664 -0.9727  1.8015 -1.5095
10216SOL    HW231227   7.375   2.485   7.807  0.8023 -1.5900 -1.1663
10217SOL     OW31228   2.778   0.494   0.756 -0.0979 -0.0785 -0.0426
10217SOL    HW131229   2.760   0.582   0.725 -1.0100 -0.2637 -0.0679
10217SOL    HW231230   2.872   0.482   0.743 -0.2446  0.2908 -1.5528
10218SOL     OW31231   0.403   4.362   2.466 -0.2137  0.0472 -0.6938
10218SOL    HW131232   0.377   4.412   2.388 -2.4293  1.4862  0.8614
10218SOL    HW231233   0.482   4.407   2.498  0.2224 -0.0408 -1.6030
10219SOL     OW31234   2.500   3.073   1.598 -0.2128 -0.1204 -0.8563
10219SOL    HW131235   2.548   3.113   1.671  1.8113 -1.2311 -1.4866
10219SOL    HW231236   2.412   3.109   1.604  0.6301  1.9050  0.5023
10220SOL     OW31237   4.775   5.903   8.979 -1.1141 -0.1193 -0.2053
10220SOL    HW131238   4.734   5.821   9.004 -2.1327  0.4632  0.0681
10220SOL    HW231239   4.793   5.894   8.886  2.8436 -2.3685  0.5737
10221SOL     OW31240   6.299   3.147   6.485  0.0059 -0.0381  0.2651
10221SOL    HW131241   6.304   3.203   6.408  0.4614 -1.4212 -0.7472
10221SOL    HW231242   6.376   3.171   6.537 -0.0956  0.6331  0.1194
10222SOL     OW31243   4.141   9.194   7.820 -0.4766 -0.3608 -0.1753
10222SOL    HW131244   4.087   9.115   7.819 -0.3325 -0.4561 -1.8262
10222SOL    HW231245   4.167   9.207   7.729  1.0047  0.5744  0.3525
10223SOL     OW31246   2.829   1.582   8.308  0.1256 -0.5264  0.1214
10223SOL    HW131247   2.852   1.673   8.290 -0.2416 -0.6771 -1.2437
10223SOL    HW231248   2.782   1.586   8.392  0.1803  0.5284  0.1239
10224SOL     OW31249   8.900   9.731   9.744 -0.2759 -0.4168  0.0250
10224SOL    HW131250   8.973   9.785   9.776 -0.4207  0.3793 -0.9489
10224SOL    HW231251   8.896   9.658   9.806  0.5311  0.1902  0.8277
10225SOL     OW31252   6.838   3.926   8.610 -0.4176  0.4193  0.0362
10225SOL    HW131253   6.763   3.955   8.560 -1.3168 -0.2632  0.9507
10225SOL    HW231254   6.913   3.943   8.553 -1.3082  0.5660 -1.1297
10226SOL     OW31255   2.971   3.651   2.095 -0.6273  0.1499  0.4838
10226SOL    HW131256   3.035   3.581   2.096 -1.9571 -1.1653 -0.8059
10226SOL    HW231257   2.929   3.648   2.181 -0.4987 -0.4883  0.5255
10227SOL     OW31258   5.622   0.729   8.279 -0.0367  0.3088  0.2853
10227SOL    HW131259   5.619   0.641   8.317  2.1300  0.2023  0.3276
10227SOL    HW231260   5.600   0.716   8.187  1.7723 -0.5884 -0.0793
10228SOL     OW31261   8.045   7.628   1.375  0.0562 -0.0658 -0.5790
10228SOL    HW131262   7.962   7.591   1.405  0.7536 -0.1670  1.4345
10228SOL    HW231263   8.075   7.568   1.307  0.3702 -2.3929  1.4649
10229SOL     OW31264   4.059   0.425   2.230 -0.1569  0.3734 -0.0624
10229SOL    HW131265   4.138   0.470   2.200  0.2028 -0.0463  0.2461
10229SOL    HW231266   4.054   0.444   2.323 -0.6470  0.7278 -0.1553
10230SOL     OW31267   1.925   6.484   0.474  0.1457  0.0179  1.0416
10230SOL    HW131268   1.843   6.443   0.447  0.6984 -1.3280  1.3264
10230SOL    HW231269   1.993   6.421   0.449  1.1666  1.4375  0.1288
10231SOL     OW31270   7.069   0.992   3.988 -0.0411  0.2205  0.2156
10231SOL    HW131271   7.099   0.932   3.919 -1.3023 -2.0522  1.5158
10231SOL    HW231272   6.974   0.982   3.988 -0.0688  0.1038  2.3073
10232SOL     OW31273   3.303   4.309   4.444 -0.0499 -0.0717  0.2096
10232SOL    HW131274   3.364   4.383   4.443 -0.3003  0.1370 -0.1032
10232SOL    HW231275   3.228   4.341   4.494 -0.6274  0.2866 -0.8422
10233SOL     OW31276   9.754   8.640   7.071  0.2612 -0.2661  0.4843
10233SOL    HW131277   9.710   8.600   6.996 -0.0236  3.2200 -1.4245
10233SOL    HW231278   9.684   8.656   7.134 -0.1437 -0.1048 -0.0037
10234SOL     OW31279   1.199   6.846   1.753 -0.2179  0.2122 -0.1302
10234SOL    HW131280   1.139   6.878   1.686 -1.3262 -0.5118  0.4913
10234SOL    HW231281   1.230   6.762   1.719 -0.1022  0.2509 -0.1230
10235SOL     OW31282   2.352   8.161   5.288  0.3603  0.0039  0.0365
10235SOL    HW131283   2.410   8.161   5.364 -2.2060 -2.0924  2.1889
10235SOL    HW231284   2.344   8.069   5.264  0.2731  0.5327 -2.2173
10236SOL     OW31285   9.539   1.816   7.687 -0.1708 -0.6919  0.0043
10236SOL    HW131286   9.614   1.759   7.668  0.9788  0.0434  1.9870
10236SOL    HW231287   9.556   1.848   7.776 -2.2199  0.5094  0.0137
10237SOL     OW31288   5.027   5.635   9.197 -0.4463  0.6709  0.4901
10237SOL    HW131289   5.032   5.587   9.114  0.0226  2.4868 -0.5864
10237SOL    HW231290   5.116   5.632   9.232 -0.6697 -0.1941  1.0009
10238SOL     OW31291   7.034   5.891   4.016  0.3378  0.1255  0.5355
10238SOL    HW131292   7.061   5.800   4.028  1.1331  0.2531 -0.2312
10238SOL    HW231293   7.098   5.942   4.067  0.6999  0.3347 -0.1187
10239SOL     OW31294   9.364   7.202   4.309 -0.1515  0.6256 -0.4004
10239SOL    HW131295   9.435   7.150   4.270 -1.2149 -1.3526  0.1681
10239SOL    HW231296   9.388   7.293   4.290  1.4621 -0.0727 -2.0364
10240SOL     OW31297   5.319   3.553   7.951 -0.4976  0.0930  0.6294
10240SOL    HW131298   5.395   3.502   7.923  0.2044  0.3899  1.8954
10240SOL    HW231299   5.316   3.627   7.891  0.0066 -0.1094  0.3500
10241SOL     OW31300   8.645   7.936   0.223  0.5154  0.1760  0.0775
10241SOL    HW131301   8.598   7.892   0.152  0.1726  0.5962  0.0380
10241SOL    HW231302   8.682   7.865   0.276  0.7984 -0.1392 -0.5354
10242SOL     OW31303   2.079   3.509   1.804 -0.9025  0.4600  0.1182
10242SOL    HW131304   2.169   3.539   1.793 -1.1667  1.9008  1.3539
10242SOL    HW231305   2.086   3.434   1.862 -0.4988  0.7122  0.4054
10243SOL     OW31306   9.540   1.956   3.769 -0.0887 -0.3047 -0.6632
10243SOL    HW131307   9.628   1.983   3.745 -0.3315 -0.3612 -1.6813
10243SOL    HW231308   9.547   1.863   3.788  0.1077 -0.2636 -0.5326
10244SOL     OW31309   0.119   1.623   4.347 -0.0049  0.7212  0.0254
10244SOL    HW131310   0.126   1.528   4.356 -1.0458  0.5280 -0.9666
10244SOL    HW231311   0.207   1.655   4.367  0.3189 -0.4308  0.5450
10245SOL     OW31312   0.946   8.789   5.731  0.0683 -0.4304 -0.2648
10245SOL    HW131313   0.957   8.705   5.775  0.5125 -0.0462  0.3866
10245SOL    HW231314   1.034   8.811   5.700 -0.1705 -0.5164 -1.0271
10246SOL     OW31315   1.653   1.593   0.355 -0.2748 -0.0214  0.4010
10246SOL    HW131316   1.703   1.623   0.432  0.0430  1.0985 -0.2222
10246SOL    HW231317   1.612   1.672   0.321 -0.7643 -0.5833 -0.3375
10247SOL     OW31318   4.060   6.283   9.209 -0.4671 -0.0050  0.6381
10247SOL    HW131319   4.104   6.202   9.231 -1.7686 -0.8601  0.2088
10247SOL    HW231320   3.970   6.257   9.189 -1.4382  1.7634  2.3676
10248SOL     OW31321   7.175   0.683   5.080  0.1686 -0.1791 -0.5577
10248SOL    HW131322   7.213   0.614   5.134  2.0143  1.3585  0.2251
10248SOL    HW231323   7.161   0.642   4.994  2.0138 -1.3027 -0.3648
10249SOL     OW31324   2.649   2.862   7.672  0.4100 -0.7095  0.0407
10249SOL    HW131325   2.736   2.825   7.658  0.3791 -1.8926  2.4444
10249SOL    HW231326   2.610   2.864   7.585  2.8416 -0.0364 -1.1272
10250SOL     OW31327   0.024   3.564   3.859  0.5087 -0.1851 -0.4054
10250SOL    HW131328   0.118   3.549   3.872  0.6464  0.9018  0.0122
10250SOL    HW231329  -0.015   3.546   3.945  0.1986 -1.4502 -0.7858
10251SOL     OW31330   5.368   1.323   3.698 -0.0151 -0.2774 -0.4994
10251SOL    HW131331   5.331   1.386   3.636  0.8720  0.2424 -0.5038
10251SOL    HW231332   5.458   1.309   3.669 -0.6239 -2.8025 -1.4726
10252SOL     OW31333   1.402   8.437   2.158 -0.5277  0.6369 -0.4223
10252SOL    HW131334   1.422   8.367   2.220  0.2592 -0.1857 -1.5566
10252SOL    HW231335   1.444   8.515   2.195  1.2992 -0.1742 -0.6683
10253SOL     OW31336   7.828   7.471   7.884  0.3930  0.1156  0.3647
10253SOL    HW131337   7.795   7.385   7.909  3.3244 -0.8209  1.3071
10253SOL    HW231338   7.837   7.467   7.789  0.0762 -0.4346  0.3570
10254SOL     OW31339   2.338   8.278   5.648  0.3826  0.3183 -0.6341
10254SOL    HW131340   2.404   8.210   5.636 -0.0936 -0.4031  0.6089
10254SOL    HW231341   2.352   8.309   5.738  0.0636  1.2851 -0.9047
10255SOL     OW31342   0.867   0.872   0.966 -0.3318  0.0809 -0.4004
10255SOL    HW131343   0.801   0.803   0.957  1.1189 -1.2856 -0.9293
10255SOL    HW231344   0.851   0.931   0.892 -0.3620 -0.7511 -1.0639
10256SOL     OW31345   7.120   8.747   5.432  0.5145 -0.2933  0.2738
10256SOL    HW131346   7.084   8.659   5.441 -0.2245 -0.2281 -1.5040
10256SOL    HW231347   7.049   8.804   5.463  0.8086 -0.2975  0.9678
10257SOL     OW31348   9.979   4.459   1.753 -0.1107  0.0177 -1.1722
10257SOL    HW131349   9.913   4.509   1.801  0.8310 -1.0380  1.4459
10257SOL    HW231350   9.930   4.388   1.712 -0.6773 -1.1546  1.2881
10258SOL     OW31351   6.923   5.326   9.968  0.0731  1.0030  0.4882
10258SOL    HW131352   6.829   5.345   9.965 -0.5841 -1.8024 -2.0367
10258SOL    HW231353   6.960   5.373   9.894  0.5586  1.5335  1.0580
10259SOL     OW31354   8.455   6.436   7.786  0.1066 -0.2677  0.4826
10259SOL    HW131355   8.395   6.497   7.743 -0.1517  0.5112  1.8678
10259SOL    HW231356   8.527   6.491   7.815  0.7659 -0.9484  0.1514
10260SOL     OW31357   0.921   2.551   3.121 -0.3051 -0.1088  0.4160
10260SOL    HW131358   1.016   2.558   3.117 -0.2354 -1.1123 -0.1602
10260SOL    HW231359   0.890   2.639   3.142  0.7808  0.0919  1.2343
10261SOL     OW31360   6.826   7.377   7.675 -0.5841 -0.2782 -0.5484
10261SOL    HW131361   6.850   7.419   7.592 -1.6608  0.3734 -0.5534
10261SOL    HW231362   6.743   7.333   7.657 -0.5571 -0.5828  0.0446
10262SOL     OW31363   5.920   8.609   1.028  0.0173  0.2873 -0.3851
10262SOL    HW131364   5.991   8.545   1.030  0.9194  1.2548 -0.2500
10262SOL    HW231365   5.844   8.560   0.999  0.5679 -0.9503  0.1760
10263SOL     OW31366   5.805   4.209   5.147 -0.1440 -0.3796  0.5509
10263SOL    HW131367   5.755   4.134   5.114  2.2405 -1.7715 -0.1360
10263SOL    HW231368   5.875   4.222   5.083  0.6331  1.2081  1.6485
10264SOL     OW31369   3.323   0.539   8.611 -0.1478 -0.2750  0.1122
10264SOL    HW131370   3.245   0.514   8.662  0.1716  0.4792  1.0117
10264SOL    HW231371   3.391   0.477   8.638 -0.6435 -1.5329 -1.3683
10265SOL     OW31372   4.187   1.109   1.759  0.6098  0.4330 -0.0112
10265SOL    HW131373   4.207   1.016   1.760  1.0692  0.4620 -2.1178
10265SOL    HW231374   4.091   1.112   1.765  0.6693 -0.0485  1.8690
10266SOL     OW31375   1.044   6.955   8.637  0.3824 -0.0743 -0.2436
10266SOL    HW131376   1.050   7.004   8.555  0.7874 -0.2157 -0.3008
10266SOL    HW231377   1.126   6.906   8.641 -0.4030 -1.4846 -0.6477
10267SOL     OW31378   9.496   6.353   9.438 -0.5513 -0.0772  0.0571
10267SOL    HW131379   9.529   6.270   9.472  0.0360 -0.2709 -0.9258
10267SOL    HW231380   9.575   6.407   9.427 -0.8071  0.2257 -0.2988
10268SOL     OW31381   3.555   0.380   4.455  0.2887  0.2359 -0.2505
10268SOL    HW131382   3.585   0.435   4.528 -0.3118  0.3271 -0.0705
10268SOL    HW231383   3.465   0.356   4.478  0.7918 -1.4789  0.0665
10269SOL     OW31384   8.195   8.982   3.201 -0.1261 -0.3248 -0.1874
10269SOL    HW131385   8.280   8.946   3.174 -0.8575 -0.9585 -1.8002
10269SOL    HW231386   8.145   8.988   3.120 -1.7070 -0.1569  0.7605
10270SOL     OW31387   7.118   7.318   3.392  0.1018 -0.0879  0.1777
10270SOL    HW131388   7.104   7.319   3.297  1.2090 -1.4027 -0.0379
10270SOL    HW231389   7.072   7.240   3.422 -0.0982  0.2298  0.7041
10271SOL     OW31390   6.590   2.476   1.129  0.4169 -1.0613  0.1998
10271SOL    HW131391   6.582   2.442   1.218 -2.0679  0.7420  0.7947
10271SOL    HW231392   6.515   2.536   1.119  1.5832  0.1508 -2.5077
10272SOL     OW31393   6.600   2.920   3.910  0.2176  0.3084 -0.1160
10272SOL    HW131394   6.667   2.959   3.966 -0.0923  1.3126 -0.4242
10272SOL    HW231395   6.546   2.869   3.969  1.7829 -1.3199  0.0162
10273SOL     OW31396   6.929   6.822   9.425  0.4137 -0.3217 -0.2638
10273SOL    HW131397   7.023   6.834   9.409  0.0723  0.7987 -1.6583
10273SOL    HW231398   6.909   6.883   9.496  0.2246  1.8072 -2.0020
10274SOL     OW31399   3.618   1.491   3.918  0.1817 -0.2288 -0.1959
10274SOL    HW131400   3.544   1.489   3.858 -0.3609 -0.1789  0.4536
10274SOL    HW231401   3.591   1.435   3.991  0.1588  0.9483  0.7331
10275SOL     OW31402   9.399   6.475   7.615  0.1827 -0.1926  0.0576
10275SOL    HW131403   9.450   6.417   7.672  2.6736  0.7610 -1.0672
10275SOL    HW231404   9.338   6.518   7.675  0.1137 -1.9405  1.3493
10276SOL     OW31405   4.720   6.143   8.470 -0.5282  0.0517 -0.7594
10276SOL    HW131406   4.780   6.217   8.480 -0.9653  0.6144 -2.0463
10276SOL    HW231407   4.770   6.077   8.423 -0.7109  0.2635 -1.2534
10277SOL     OW31408   2.718   8.603   8.539 -0.1533  0.0766  0.1363
10277SOL    HW131409   2.751   8.530   8.486 -0.5457 -0.0954  0.1272
10277SOL    HW231410   2.787   8.617   8.605 -0.1972 -0.4895  0.3122
10278SOL     OW31411   6.272   9.684   3.004  0.5907 -0.1564  0.0373
10278SOL    HW131412   6.359   9.646   3.014  0.8377  0.5680  0.7741
10278SOL    HW231413   6.251   9.671   2.912  1.1075 -1.1112  0.0400
10279SOL     OW31414   5.780   7.983   5.118 -0.2086  0.5380  0.7501
10279SOL    HW131415   5.737   8.019   5.195 -1.5583  0.5057  0.0399
10279SOL    HW231416   5.715   7.926   5.078  0.8832 -0.3907  0.2331
10280SOL     OW31417   6.029   8.125   5.461 -0.3071  0.1170  0.7871
10280SOL    HW131418   6.112   8.116   5.414 -0.8122 -0.6925  0.0143
10280SOL    HW231419   5.982   8.195   5.415  0.5544  1.6805  2.1837
10281SOL     OW31420   7.035   1.329   6.482 -0.2365 -0.5933 -0.0345
10281SOL    HW131421   7.023   1.353   6.390  0.5668  0.8439  0.1997
10281SOL    HW231422   6.952   1.288   6.507  0.1788 -2.7041 -1.8614
10282SOL     OW31423   3.995   6.460   4.992 -0.0539 -0.0907 -0.1478
10282SOL    HW131424   3.925   6.425   4.938  0.3347  0.0471 -0.7506
10282SOL    HW231425   3.950   6.499   5.067 -0.5605 -0.7627 -0.0977
10283SOL     OW31426   5.743   5.668   7.950 -0.1518 -0.4221 -0.0913
10283SOL    HW131427   5.758   5.575   7.965  0.1606 -0.3025  0.3318
10283SOL    HW231428   5.748   5.708   8.036 -2.8514 -0.3524  0.1324
10284SOL     OW31429   9.047   4.776   4.968 -0.0504  0.0139  0.3162
10284SOL    HW131430   9.126   4.722   4.969 -1.5503 -2.3905 -1.2279
10284SOL    HW231431   9.075   4.859   4.927  1.6370 -0.8345 -0.3358
10285SOL     OW31432   3.202   8.334   6.035  0.2361  0.0711 -0.0407
10285SOL    HW131433   3.285   8.323   6.080  1.7548  2.7105 -1.9210
10285SOL    HW231434   3.172   8.245   6.016  1.0924 -1.0286  3.1835
10286SOL     OW31435   3.753   7.624   1.037  0.2955  0.4016  0.2340
10286SOL    HW131436   3.673   7.671   1.058 -0.5773 -1.8585  2.5093
10286SOL    HW231437   3.736   7.585   0.951 -1.1823 -0.2137  0.7665
10287SOL     OW31438   7.379   5.252   4.089 -0.0993 -0.4037 -0.2507
10287SOL    HW131439   7.424   5.315   4.146 -0.0129 -0.9362  0.2809
10287SOL    HW231440   7.353   5.181   4.148 -1.5945 -0.1405 -0.5594
10288SOL     OW31441   4.877   2.165   0.035 -0.1136 -0.4201 -0.0380
10288SOL    HW131442   4.878   2.228   0.106  0.9651 -0.1827 -0.2454
10288SOL    HW231443   4.807   2.195  -0.023 -0.2907 -0.0135  0.3836
10289SOL     OW31444   4.632   4.649   7.548  0.2812  0.4527  0.3523
10289SOL    HW131445   4.651   4.617   7.459  0.3070  1.5089 -0.0313
10289SOL    HW231446   4.688   4.726   7.558 -0.2514  0.7612  1.0219
10290SOL     OW31447   1.630   8.960   1.414 -0.1696 -0.4140 -0.4367
10290SOL    HW131448   1.587   8.910   1.483 -0.3660  0.4736  0.1016
10290SOL    HW231449   1.558   8.992   1.359 -0.0446 -0.7208 -0.7858
10291SOL     OW31450   1.707   4.763   8.615  0.6526  0.7623  0.1635
10291SOL    HW131451   1.644   4.788   8.683  0.6917 -0.1580  0.5468
10291SOL    HW231452   1.662   4.785   8.533  0.5429  1.7339  0.4646
10292SOL     OW31453   9.878   1.229   2.009  0.0747 -0.1784 -0.6845
10292SOL    HW131454   9.801   1.253   2.060  1.6133  1.4647  1.0104
10292SOL    HW231455   9.900   1.308   1.959  1.4792 -0.1198 -0.0221
10293SOL     OW31456   3.181   2.041   4.317 -0.0488 -0.4056 -0.4835
10293SOL    HW131457   3.218   2.010   4.234  0.4496 -0.3688 -0.2749
10293SOL    HW231458   3.257   2.056   4.373 -0.1400  2.3630 -0.9632
10294SOL     OW31459   0.507   9.650   0.628  0.0024  0.7901  0.4970
10294SOL    HW131460   0.438   9.654   0.695 -1.5512  1.2010 -1.0704
10294SOL    HW231461   0.520   9.741   0.602 -0.1014  0.5478 -0.4289
10295SOL     OW31462   8.776   1.190   9.538  0.1708 -0.5264 -0.1442
10295SOL    HW131463   8.795   1.228   9.452 -1.3587 -1.8289 -1.1148
10295SOL    HW231464   8.729   1.258   9.585  2.4206  0.7977  0.3277
10296SOL     OW31465   2.323   3.897   1.039 -0.3825  0.1561  0.3310
10296SOL    HW131466   2.289   3.953   0.969  1.5486 -1.9519 -2.5305
10296SOL    HW231467   2.246   3.872   1.090 -1.9063  1.6991 -1.1057
10297SOL     OW31468   8.577   9.615   6.357 -0.0306 -0.3110  0.1710
10297SOL    HW131469   8.594   9.529   6.320 -0.5044  0.1690 -1.2316
10297SOL    HW231470   8.658   9.640   6.400  0.4438 -1.0340 -0.2890
10298SOL     OW31471   7.569   4.100   4.261  0.0339 -0.0014  0.0243
10298SOL    HW131472   7.599   4.011   4.239 -0.2993 -0.5348  1.6292
10298SOL    HW231473   7.594   4.153   4.185  0.9771 -1.3060 -0.6118
10299SOL     OW31474   3.862   5.898   2.744 -0.3732  0.3114  0.0800
10299SOL    HW131475   3.908   5.933   2.821 -0.9115  1.3443 -0.0538
10299SOL    HW231476   3.842   5.975   2.691 -0.8915 -0.2944 -0.6192
10300SOL     OW31477   0.480   0.016   8.855 -0.0110  0.2054  0.0688
10300SOL    HW131478   0.513   0.007   8.765 -0.6693 -2.3691  0.0056
10300SOL    HW231479   0.425   0.094   8.852  3.3034  2.7875 -0.6084
10301SOL     OW31480   8.858   3.074   3.163  0.5130 -0.6632  0.3209
10301SOL    HW131481   8.795   3.019   3.117  1.3074 -1.0534 -0.3113
10301SOL    HW231482   8.915   3.012   3.209 -0.4265 -0.2954  2.1141
10302SOL     OW31483   5.413   3.747   3.273  0.0892  0.1945  0.2240
10302SOL    HW131484   5.482   3.681   3.273  0.7566  0.8847  0.5489
10302SOL    HW231485   5.408   3.776   3.181 -0.5102 -0.6053 -0.0087
10303SOL     OW31486   6.803   1.668   4.075 -0.0621 -0.2835  0.0945
10303SOL    HW131487   6.876   1.625   4.030  0.5439  0.2763  0.5286
10303SOL    HW231488   6.790   1.615   4.154 -0.9923 -1.1453 -0.6037
10304SOL     OW31489   2.285   8.405   3.836 -1.1151 -0.1178 -0.8013
10304SOL    HW131490   2.255   8.419   3.746  1.3298 -1.7801 -1.9822
10304SOL    HW231491   2.287   8.310   3.847 -0.5993  0.0360  0.7219
10305SOL     OW31492   4.903   1.517   8.406 -0.0418  0.8405 -0.3357
10305SOL    HW131493   4.846   1.592   8.416 -2.4743 -1.1009  1.6580
10305SOL    HW231494   4.907   1.501   8.312 -0.3880  2.7193 -0.6966
10306SOL     OW31495   8.938   6.252   3.304  0.3930 -0.2532 -0.0287
10306SOL    HW131496   9.020   6.203   3.309  0.6412  0.1657  0.0070
10306SOL    HW231497   8.901   6.247   3.392 -0.3601 -1.6982 -0.3918
10307SOL     OW31498   9.575   8.278   6.420  0.8072 -0.3358 -0.6461
10307SOL    HW131499   9.604   8.192   6.449 -0.2171 -0.1727  0.9991
10307SOL    HW231500   9.581   8.333   6.498 -0.1449  0.6465 -1.2409
10308SOL     OW31501   5.264   8.105   3.447  0.6412 -0.0274  0.2342
10308SOL    HW131502   5.169   8.119   3.442  0.7508  0.8428  0.6034
10308SOL    HW231503   5.302   8.192   3.437  1.4660 -0.5185 -1.2991
10309SOL     OW31504   6.763   3.123   9.750 -0.1520 -0.0655  0.7495
10309SOL    HW131505   6.681   3.078   9.730  0.1525 -0.8198  1.1604
10309SOL    HW231506   6.786   3.168   9.669 -0.7611 -0.1690  0.5094
10310SOL     OW31507   8.744   5.671   5.638  0.3486  0.4724  0.2719
10310SOL    HW131508   8.827   5.632   5.611  0.2014  0.8270 -0.7203
10310SOL    HW231509   8.693   5.679   5.557  0.2093  2.3520  0.4937
10311SOL     OW31510   5.325   3.627   6.534 -0.2600  0.1145  0.1310
10311SOL    HW131511   5.299   3.541   6.569  1.7427 -0.1442  1.1213
10311SOL    HW231512   5.420   3.629   6.542 -0.1375  1.9645 -1.0370
10312SOL     OW31513   0.662   7.399   6.095 -0.0361 -0.5011 -0.5413
10312SOL    HW131514   0.653   7.448   6.176 -3.8171  0.3755 -1.3005
10312SOL    HW231515   0.684   7.465   6.029 -2.1122 -0.2227 -1.0304
10313SOL     OW31516   2.560   3.929   9.114 -0.4106  0.4671 -0.0859
10313SOL    HW131517   2.528   3.862   9.054  0.5268 -2.2203  2.2172
10313SOL    HW231518   2.629   3.974   9.065 -2.6424  1.4735 -2.5224
10314SOL     OW31519   2.683   5.484   1.234 -0.4194  0.3329  0.4419
10314SOL    HW131520   2.623   5.456   1.303 -0.8834  2.7469  1.1191
10314SOL    HW231521   2.726   5.562   1.270  0.4175  0.7964 -1.4494
10315SOL     OW31522   7.209   8.810   0.610  0.2735 -0.1350  0.4150
10315SOL    HW131523   7.270   8.855   0.552  1.1174 -1.1855  0.4502
10315SOL    HW231524   7.218   8.853   0.694 -0.9236  1.3733 -0.1790
10316SOL     OW31525   6.310   4.451   8.311  0.2988  0.6481  0.2345
10316SOL    HW131526   6.403   4.428   8.312  0.3206  0.7365  1.2911
10316SOL    HW231527   6.285   4.443   8.219  1.4004  0.8318 -0.1004
10317SOL     OW31528   9.031   0.313   9.629 -0.1860 -0.5407  0.0349
10317SOL    HW131529   8.992   0.347   9.709  0.2782 -0.4576  0.2294
10317SOL    HW231530   8.984   0.231   9.612  0.4686 -1.1362  1.0207
10318SOL     OW31531   3.163   5.077   0.825  0.0355 -0.1232 -0.0621
10318SOL    HW131532   3.173   5.065   0.730 -0.7537 -3.0481  0.1172
10318SOL    HW231533   3.072   5.104   0.836  0.1817  0.4038 -0.1575
10319SOL     OW31534   9.910   1.943   3.905 -0.7960  0.2612  0.3776
10319SOL    HW131535   9.859   1.982   3.834  0.4445  0.7678 -0.2731
10319SOL    HW231536   9.905   1.848   3.889  0.2022  0.3956 -0.9554
10320SOL     OW31537   8.016   8.397   7.470  0.1028  0.5690 -0.5047
10320SOL    HW131538   8.062   8.467   7.517  1.5703  0.8611 -2.2739
10320SOL    HW231539   8.049   8.403   7.380 -0.9335 -1.3980 -1.0607
10321SOL     OW31540   9.462   6.701   7.862  0.4022  0.0978  0.0306
10321SOL    HW131541   9.531   6.640   7.836  1.2133  0.2485  1.7294
10321SOL    HW231542   9.497   6.788   7.840 -0.0715  0.0771 -0.8678
10322SOL     OW31543   0.967   7.831   7.958  0.3336 -0.5794 -0.7137
10322SOL    HW131544   0.922   7.831   8.043 -0.7924  0.0291 -1.2861
10322SOL    HW231545   0.915   7.773   7.903 -1.5814  2.3308 -2.2535
10323SOL     OW31546   9.755   8.110   8.695 -0.1524 -0.1206  0.3586
10323SOL    HW131547   9.789   8.103   8.784  1.3194  0.9462 -0.0852
10323SOL    HW231548   9.690   8.040   8.689  1.8622 -2.2259  1.3322
10324SOL     OW31549   5.118   9.015   5.633 -0.2452 -0.7542 -0.3308
10324SOL    HW131550   5.154   9.071   5.702 -0.5972 -1.0549  0.1052
10324SOL    HW231551   5.079   9.076   5.571 -1.0389 -0.5188  0.3716
10325SOL     OW31552   5.250   3.267   2.134  0.1436  0.0229  0.7077
10325SOL    HW131553   5.185   3.336   2.122  1.2719  0.7688 -1.9920
10325SOL    HW231554   5.333   3.315   2.146  0.5593 -0.8892  1.5791
10326SOL     OW31555   4.525   2.877   2.328  0.0020  0.8222 -0.0380
10326SOL    HW131556   4.468   2.943   2.290 -1.1693 -0.1569 -0.0451
10326SOL    HW231557   4.466   2.807   2.355  1.2623 -0.6617 -0.9202
10327SOL     OW31558   6.270   6.875   3.080 -0.5882 -0.1255 -0.8906
10327SOL    HW131559   6.301   6.962   3.053  0.5471 -0.3532 -0.4020
10327SOL    HW231560   6.342   6.817   3.057 -1.1636 -0.8751 -0.8137
10328SOL     OW31561   8.971   3.568   3.662  0.6349 -0.8970  0.1661
10328SOL    HW131562   9.013   3.654   3.664  0.8942 -1.0429  1.1190
10328SOL    HW231563   8.995   3.532   3.577 -1.4292  0.9380 -1.3078
10329SOL     OW31564   3.266   6.094   9.164  0.3640  0.1554 -0.0980
10329SOL    HW131565   3.302   6.180   9.141 -0.8763  0.7187 -0.0224
10329SOL    HW231566   3.261   6.047   9.082  0.7258  0.2884 -0.1977
10330SOL     OW31567   0.532   1.862   7.280 -0.2562  0.1674 -0.3533
10330SOL    HW131568   0.531   1.926   7.351 -1.7273  0.6194 -0.7449
10330SOL    HW231569   0.624   1.855   7.255  0.2875  0.0721  1.5094
10331SOL     OW31570   4.538   8.944   3.777  0.8740 -0.0320  0.0912
10331SOL    HW131571   4.452   8.984   3.762  1.2930  1.5909  1.7307
10331SOL    HW231572   4.524   8.851   3.758 -1.1144  0.2667 -0.1301
10332SOL     OW31573   2.477   8.297   3.587 -0.7945 -0.3589  0.0146
10332SOL    HW131574   2.492   8.249   3.506 -0.0851  0.2248 -0.2132
10332SOL    HW231575   2.461   8.387   3.559 -0.9893 -0.2336  0.5038
10333SOL     OW31576   9.583   9.639   3.954  0.1772  0.0935 -0.1276
10333SOL    HW131577   9.585   9.674   4.043  0.7904  0.2541 -0.1992
10333SOL    HW231578   9.597   9.545   3.964  0.6455  0.1657 -0.0775
10334SOL     OW31579   5.939   6.982   1.547 -0.2580 -0.2613 -0.4595
10334SOL    HW131580   6.031   7.000   1.527  0.3867  3.5732  3.9710
10334SOL    HW231581   5.942   6.917   1.617 -0.9325 -0.5237 -0.6675
10335SOL     OW31582   5.931   8.189   2.045  0.2972  0.1218  0.1402
10335SOL    HW131583   6.010   8.143   2.016  1.4796  1.4891  1.0346
10335SOL    HW231584   5.945   8.279   2.016 -1.5540  0.1340 -0.8172
10336SOL     OW31585   5.619   8.626   8.111 -0.2993  0.9012  0.5206
10336SOL    HW131586   5.530   8.660   8.105 -0.7305 -0.0547  1.1865
10336SOL    HW231587   5.609   8.542   8.155  0.8826  0.5417  0.1271
10337SOL     OW31588   2.486   5.220   7.765  0.4577 -0.4552 -0.4616
10337SOL    HW131589   2.567   5.267   7.747  1.3488 -0.0023  3.7709
10337SOL    HW231590   2.432   5.283   7.811 -1.6103 -1.3538 -1.5242
10338SOL     OW31591   9.669   0.404   7.781  0.1496  0.1923  0.1083
10338SOL    HW131592   9.666   0.473   7.848 -0.8509 -1.6637  2.1120
10338SOL    HW231593   9.761   0.401   7.753  1.1390 -0.4047  3.0782
10339SOL     OW31594   2.354   8.651   7.649 -0.5268  0.2113 -0.3425
10339SOL    HW131595   2.268   8.611   7.661  0.0161 -1.2672 -1.0606
10339SOL    HW231596   2.336   8.735   7.607 -1.6636  0.3543  0.3969
10340SOL     OW31597   1.604   4.201   3.306  0.0899 -0.0065  0.5234
10340SOL    HW131598   1.559   4.233   3.228 -0.3503 -1.2027  0.2658
10340SOL    HW231599   1.544   4.220   3.378 -0.2244 -0.3700  0.3574
10341SOL     OW31600   4.314   0.980   2.580 -0.2444  0.3529 -0.0286
10341SOL    HW131601   4.346   1.039   2.511 -0.2867  0.2989 -0.0949
10341SOL    HW231602   4.370   0.903   2.574 -0.6348  0.0971 -0.4026
10342SOL     OW31603   7.500   8.753   0.719  0.7820  0.4238 -0.6532
10342SOL    HW131604   7.542   8.769   0.634  2.0446  0.0353 -0.1345
10342SOL    HW231605   7.511   8.836   0.766 -1.5373  1.2681 -1.4723
10343SOL     OW31606   9.369   8.870   7.404  0.2549 -0.2678  0.2764
10343SOL    HW131607   9.422   8.948   7.419 -0.7270  0.2818  1.0324
10343SOL    HW231608   9.341   8.843   7.491  0.1336 -1.1456 -0.0245
10344SOL     OW31609   8.498   4.712   0.657 -0.3384  0.2851 -0.1795
10344SOL    HW131610   8.541   4.798   0.662 -1.1005  0.6109  1.3566
10344SOL    HW231611   8.524   4.668   0.738 -1.1113 -0.3840 -0.2854
10345SOL     OW31612   2.419   2.794   1.182  0.2098 -0.0115 -0.3233
10345SOL    HW131613   2.431   2.854   1.255 -0.0632  1.0339 -1.1128
10345SOL    HW231614   2.506   2.786   1.142  0.9249 -2.4424  1.4413
10346SOL     OW31615   9.139   7.296   4.611 -0.3550 -1.0516 -0.0100
10346SOL    HW131616   9.186   7.314   4.693  0.5265 -0.3755 -0.6360
10346SOL    HW231617   9.047   7.306   4.633 -0.0575  2.3916  0.2094
10347SOL     OW31618   6.375   4.152   4.290  0.0578 -0.2546 -0.2089
10347SOL    HW131619   6.328   4.167   4.207  1.4311 -1.2570 -1.2238
10347SOL    HW231620   6.380   4.057   4.296  1.5418 -0.1717  0.0956
10348SOL     OW31621   5.592   9.055   0.986 -0.2422  0.0848 -0.3272
10348SOL    HW131622   5.633   9.137   0.960  0.1247  0.5652  1.5887
10348SOL    HW231623   5.659   8.988   0.974  0.3981  0.5232  0.7204
10349SOL     OW31624   8.272   7.863   8.569 -0.1141  0.0408 -0.3463
10349SOL    HW131625   8.209   7.854   8.641  0.1084  0.7628 -0.0511
10349SOL    HW231626   8.355   7.834   8.606 -0.0939 -0.0485 -0.4604
10350SOL     OW31627   0.256   8.865   3.854 -0.2518 -0.0823  0.4605
10350SOL    HW131628   0.314   8.885   3.928  1.1423  0.2570 -0.6848
10350SOL    HW231629   0.279   8.777   3.828  0.2072  0.2901 -0.4083
10351SOL     OW31630   2.967   9.963   9.449 -0.3431  0.6309  0.1541
10351SOL    HW131631   2.931   9.877   9.428 -1.7598  1.6076 -1.6755
10351SOL    HW231632   2.954   9.972   9.544 -1.1124 -0.7411  0.2056
10352SOL     OW31633   3.514   3.707   4.277  0.3533 -0.2973 -0.2642
10352SOL    HW131634   3.544   3.618   4.299 -1.1452 -0.6438  0.5523
10352SOL    HW231635   3.425   3.694   4.245  0.0560  0.9412  0.0393
10353SOL     OW31636   9.787   9.006   2.425 -0.3704  0.3478  0.0460
10353SOL    HW131637   9.735   9.014   2.504  0.4223  1.5075  0.4773
10353SOL    HW231638   9.877   9.027   2.453 -0.3428  2.6406 -1.4674
10354SOL     OW31639   2.224   5.598   1.368 -0.5114  0.0230 -0.4470
10354SOL    HW131640   2.175   5.516   1.376 -1.3077  0.4401 -0.8680
10354SOL    HW231641   2.156   5.665   1.358  0.1034  0.8115  0.4819
10355SOL     OW31642   9.057   3.080   6.025 -0.2714  0.2746 -0.7803
10355SOL    HW131643   9.072   3.174   6.017  0.5062  0.0112 -4.2580
10355SOL    HW231644   8.992   3.060   5.958 -0.3819 -1.6678 -0.1566
10356SOL     OW31645   2.562   8.674   8.124 -0.3332 -0.4253 -0.1095
10356SOL    HW131646   2.542   8.688   8.032 -1.7954 -3.4602 -0.3632
10356SOL    HW231647   2.510   8.598   8.149  2.3010 -1.6106  2.4043
10357SOL     OW31648   7.573   8.098   8.687  0.1837 -0.1009 -0.4860
10357SOL    HW131649   7.485   8.069   8.712 -0.6325  2.6012  0.0998
10357SOL    HW231650   7.609   8.025   8.636 -2.0524 -1.6214 -0.0251
10358SOL     OW31651   5.725   4.798   9.029 -0.4149 -0.4238 -0.1949
10358SOL    HW131652   5.816   4.767   9.028 -0.0283  0.6368 -0.2574
10358SOL    HW231653   5.699   4.794   9.121 -0.7859 -2.0210 -0.3529
10359SOL     OW31654   2.359   2.004   6.473  0.0901 -0.1694 -0.4113
10359SOL    HW131655   2.432   2.009   6.534 -0.1690  0.1003 -0.1214
10359SOL    HW231656   2.400   1.983   6.389  0.4554 -0.4566 -0.1675
10360SOL     OW31657   8.592   4.710   1.262  0.3181 -0.6398  0.3581
10360SOL    HW131658   8.500   4.697   1.237 -0.4322  1.1540  1.8891
10360SOL    HW231659   8.639   4.722   1.180 -0.9769 -0.7467 -0.4177
10361SOL     OW31660   3.830   0.899   5.357  0.0577  0.0071  0.1300
10361SOL    HW131661   3.805   0.912   5.265  0.7853  0.5721 -0.0031
10361SOL    HW231662   3.792   0.814   5.381 -1.3028  0.4685 -0.2747
10362SOL     OW31663   3.558   2.911   3.875 -0.4625 -0.0178  0.6437
10362SOL    HW131664   3.475   2.883   3.836  0.1525  0.3375 -0.9936
10362SOL    HW231665   3.544   3.004   3.895 -0.2520  0.2181 -0.2618
10363SOL     OW31666   9.047   2.210   5.873 -0.3743 -0.2705 -0.1377
10363SOL    HW131667   9.022   2.124   5.905 -1.0052  0.0196  0.1628
10363SOL    HW231668   9.142   2.214   5.887 -0.5720 -0.3103  1.3250
10364SOL     OW31669   1.877   6.777   0.522  0.1954  0.0756  0.4097
10364SOL    HW131670   1.924   6.694   0.523  1.1867  0.6276  1.4937
10364SOL    HW231671   1.944   6.843   0.505 -0.2200  0.8460  1.6217
10365SOL     OW31672   6.655   3.816   0.370 -0.5879  1.0418 -0.0145
10365SOL    HW131673   6.747   3.834   0.390 -0.9692  0.9805  2.0118
10365SOL    HW231674   6.624   3.763   0.443 -2.1004  0.5871 -0.9411
10366SOL     OW31675   6.752   9.300   4.498  0.2690  0.2910  0.0713
10366SOL    HW131676   6.755   9.243   4.421 -0.7842  0.0884  0.1693
10366SOL    HW231677   6.841   9.335   4.505  0.5167 -0.0980 -0.9242
10367SOL     OW31678   3.620   2.440   8.103  0.0804 -0.3059  0.9041
10367SOL    HW131679   3.645   2.527   8.072 -1.1885  0.5075  2.0785
10367SOL    HW231680   3.572   2.456   8.184 -0.3564 -2.0927  1.0347
10368SOL     OW31681   6.081   2.486   0.230  0.2869 -0.0715 -0.7483
10368SOL    HW131682   6.151   2.422   0.220  0.3901 -0.3412  1.2399
10368SOL    HW231683   6.043   2.494   0.143  0.7693 -2.2438 -1.2169
10369SOL     OW31684   7.820   1.553   4.319 -0.6214 -0.7097 -0.1387
10369SOL    HW131685   7.739   1.598   4.295  0.6575  1.4082 -0.7908
10369SOL    HW231686   7.863   1.613   4.380  1.4195 -0.7508 -1.4440
10370SOL     OW31687   7.314   9.490   0.628 -0.4566  0.3585 -0.6276
10370SOL    HW131688   7.220   9.479   0.644 -0.4484  0.7100 -0.3316
10370SOL    HW231689   7.353   9.409   0.661 -0.7353 -0.1343 -1.4876
10371SOL     OW31690   3.048   7.472   4.761  0.0245  0.3112 -0.2029
10371SOL    HW131691   2.994   7.419   4.703 -3.5094  0.2811  2.7740
10371SOL    HW231692   3.096   7.408   4.814 -0.6199  0.2003  0.2506
10372SOL     OW31693   3.103   9.625   7.721 -0.4638  0.2950  0.1791
10372SOL    HW131694   3.118   9.644   7.629 -0.0766 -0.2595  0.1228
10372SOL    HW231695   3.191   9.613   7.758 -0.4927  2.2120  1.0048
10373SOL     OW31696   4.664   3.393   0.655  0.5451 -0.1654  0.3218
10373SOL    HW131697   4.610   3.345   0.718 -0.1383 -1.6739 -1.3383
10373SOL    HW231698   4.752   3.361   0.670  1.0803  2.0458  2.7998
10374SOL     OW31699   9.305   3.375   8.159  0.0821  0.1040 -0.5526
10374SOL    HW131700   9.330   3.339   8.244 -0.5666 -2.4560 -1.3273
10374SOL    HW231701   9.263   3.458   8.179  0.5387 -0.1089  1.5641
10375SOL     OW31702   0.451   3.067   1.965 -0.4820 -0.6673 -0.2657
10375SOL    HW131703   0.486   2.988   2.004  0.6923 -0.8833 -1.6790
10375SOL    HW231704   0.408   3.113   2.037  2.5300 -0.4940  1.5409
10376SOL     OW31705   5.777   7.675   4.545  0.0880  0.0472 -0.0130
10376SOL    HW131706   5.722   7.663   4.623  0.4748 -0.0286  0.2488
10376SOL    HW231707   5.747   7.606   4.485 -2.1129  1.7803 -1.0427
10377SOL     OW31708   3.363   6.076   8.171 -0.1078 -0.0314 -0.3749
10377SOL    HW131709   3.425   6.003   8.169  0.8670  0.7944 -2.0482
10377SOL    HW231710   3.298   6.055   8.104  0.2322  0.6402 -0.9383
10378SOL     OW31711   5.673   8.948   7.051 -0.6981  0.2232 -0.0550
10378SOL    HW131712   5.578   8.949   7.041 -0.7134 -1.0740 -0.2094
10378SOL    HW231713   5.702   9.030   7.011 -1.5856 -0.3930 -2.1023
10379SOL     OW31714   8.712   7.251   4.428 -0.0083 -0.1953 -0.2865
10379SOL    HW131715   8.677   7.244   4.339 -0.6269  0.2259 -0.0758
10379SOL    HW231716   8.658   7.317   4.471  0.5175 -0.1335  0.2968
10380SOL     OW31717   6.232   4.962   8.391  0.1565 -0.1777 -0.0139
10380SOL    HW131718   6.201   4.903   8.323 -0.9431  0.4369 -0.0684
10380SOL    HW231719   6.314   4.922   8.422 -0.5788 -1.7695  0.0101
10381SOL     OW31720   6.818   3.384   2.294 -0.7023 -0.1513 -0.3087
10381SOL    HW131721   6.833   3.472   2.328 -1.1021 -0.4848  0.7674
10381SOL    HW231722   6.904   3.356   2.261 -0.6474  0.7611 -0.9729
10382SOL     OW31723   3.313   2.545   3.882 -0.3485  0.6107 -0.2929
10382SOL    HW131724   3.330   2.531   3.976 -0.9574 -0.7744 -0.3620
10382SOL    HW231725   3.374   2.485   3.838 -1.1231  0.1228 -0.7207
10383SOL     OW31726   9.594   7.505   4.485 -0.0907  0.3938  0.4797
10383SOL    HW131727   9.682   7.466   4.483  0.1604  0.8909  1.2648
10383SOL    HW231728   9.609   7.597   4.467 -0.3401  0.6420  1.4651
10384SOL     OW31729   5.111   5.257   7.709 -0.7029  0.4226 -0.3103
10384SOL    HW131730   5.074   5.177   7.748 -0.1193 -0.6464 -1.8737
10384SOL    HW231731   5.205   5.239   7.703 -0.2839  1.9698  0.9542
10385SOL     OW31732   5.708   7.901   1.290 -0.0687  0.5764  0.7810
10385SOL    HW131733   5.783   7.932   1.341 -0.4796 -0.4621  2.0534
10385SOL    HW231734   5.730   7.925   1.199  1.0948  1.6349  1.3117
10386SOL     OW31735   7.755   8.717   1.036 -0.2583  0.4742 -0.6200
10386SOL    HW131736   7.749   8.667   1.117 -1.3002  0.8181 -0.4751
10386SOL    HW231737   7.794   8.801   1.063  3.2161 -0.8083 -1.1432
10387SOL     OW31738   1.944   2.991   8.503  0.4066  0.0895 -0.0598
10387SOL    HW131739   1.954   3.086   8.500  0.9232  0.0349 -0.0625
10387SOL    HW231740   2.033   2.957   8.511  0.1038 -0.2945  2.7041
10388SOL     OW31741   3.238   7.634   4.245 -0.1853  0.1767 -0.5437
10388SOL    HW131742   3.307   7.647   4.180  0.5707 -1.0774 -0.0300
10388SOL    HW231743   3.254   7.699   4.312  1.3322 -0.9258  0.2241
10389SOL     OW31744   3.447   0.325   8.703  0.3939  0.1891 -0.0025
10389SOL    HW131745   3.534   0.285   8.706 -0.3555 -1.5087  2.3153
10389SOL    HW231746   3.392   0.266   8.755 -2.4358  0.6166 -2.2529
10390SOL     OW31747   8.736   8.561   2.607  0.5842  0.1313 -0.0524
10390SOL    HW131748   8.643   8.582   2.604  0.0436 -2.0870 -0.8808
10390SOL    HW231749   8.758   8.563   2.701 -0.7456 -0.9414  0.3160
10391SOL     OW31750   6.144   7.065   0.804 -0.2429  0.0783 -0.1631
10391SOL    HW131751   6.196   6.998   0.849 -0.6351  0.3286  0.6812
10391SOL    HW231752   6.115   7.022   0.723  0.3391 -0.4294 -0.1114
10392SOL     OW31753   7.841   5.716   1.713  0.2167 -0.4177  0.9928
10392SOL    HW131754   7.790   5.689   1.790 -0.7679 -2.1086 -0.1633
10392SOL    HW231755   7.923   5.748   1.748 -1.2092  1.4111  2.8918
10393SOL     OW31756   1.085   4.607   2.002  0.1989 -0.4452 -0.5781
10393SOL    HW131757   1.145   4.674   1.971  1.1809 -0.3176  1.4385
10393SOL    HW231758   1.043   4.646   2.079 -1.9711 -0.8069 -1.5024
10394SOL     OW31759   4.399   9.813   8.659  0.2198 -0.2263  0.3477
10394SOL    HW131760   4.393   9.772   8.573 -0.7633 -1.5147  0.9762
10394SOL    HW231761   4.327   9.875   8.662  0.8280  0.5200 -0.0788
10395SOL     OW31762   8.421   4.551   3.798  0.4625 -0.1107  0.0423
10395SOL    HW131763   8.473   4.516   3.870 -1.9391 -1.1251  1.4243
10395SOL    HW231764   8.353   4.604   3.840 -2.5374 -2.6923 -1.0858
10396SOL     OW31765   1.557   4.524   5.924  0.1422 -0.3270  0.1187
10396SOL    HW131766   1.596   4.473   5.995  0.4378  0.9438  0.8887
10396SOL    HW231767   1.613   4.508   5.849  1.5431  0.6242  0.9304
10397SOL     OW31768   8.857   3.777   1.832 -0.1341  0.4791  0.3304
10397SOL    HW131769   8.769   3.813   1.848 -0.2073  0.2974  0.3355
10397SOL    HW231770   8.860   3.761   1.738 -0.4832 -0.4904  0.4740
10398SOL     OW31771   7.217   5.632   7.521  0.4266  0.3297  0.3357
10398SOL    HW131772   7.281   5.602   7.585 -0.2505 -3.2148 -0.4769
10398SOL    HW231773   7.269   5.652   7.443  0.7034 -1.3939  0.0490
10399SOL     OW31774   1.073   4.800   7.047 -0.1288  0.5421  0.1862
10399SOL    HW131775   0.985   4.765   7.042 -0.1331  0.2770  1.6521
10399SOL    HW231776   1.115   4.773   6.965 -0.9900 -0.4616  0.0608
10400SOL     OW31777   5.508   9.314   2.790  1.0028 -0.2979  0.4488
10400SOL    HW131778   5.535   9.309   2.698  1.0452  1.4110  0.3350
10400SOL    HW231779   5.587   9.341   2.836  0.5307  0.6690  0.7091
10401SOL     OW31780   0.412   8.433   6.975 -0.0462 -0.5533 -0.0005
10401SOL    HW131781   0.439   8.522   6.997 -0.3645 -0.2599 -0.7612
10401SOL    HW231782   0.359   8.405   7.049 -0.4894  0.1439 -0.0458
10402SOL     OW31783   5.831   7.800   3.916 -0.8930  0.0063  0.1905
10402SOL    HW131784   5.745   7.823   3.952 -1.4563  0.6600 -1.4561
10402SOL    HW231785   5.820   7.810   3.821  0.0607 -3.1074 -0.3414
10403SOL     OW31786   3.627   1.140   9.499 -0.3332 -0.0314 -0.3453
10403SOL    HW131787   3.564   1.190   9.552 -0.3207  0.8683 -1.1463
10403SOL    HW231788   3.631   1.054   9.542 -0.3283  0.6477  1.0909
10404SOL     OW31789   7.533   9.833   3.841  0.7661  0.2031  0.1050
10404SOL    HW131790   7.494   9.905   3.791  0.7555 -0.1240 -0.3680
10404SOL    HW231791   7.593   9.791   3.780  1.9122  0.7314  0.8440
10405SOL     OW31792   4.721   7.313   8.546  0.0996 -0.4154  0.1946
10405SOL    HW131793   4.774   7.299   8.467 -1.0758 -4.1167 -0.1216
10405SOL    HW231794   4.632   7.321   8.513 -0.1738  0.2625  1.0642
10406SOL     OW31795   7.609   8.229   6.556 -0.3330  0.0088  0.8712
10406SOL    HW131796   7.629   8.245   6.464  1.4650 -1.8238  0.8847
10406SOL    HW231797   7.692   8.246   6.602 -0.2453 -2.3180  1.6873
10407SOL     OW31798   0.447   9.861   9.803 -0.5094  0.1169  0.0222
10407SOL    HW131799   0.501   9.832   9.729 -1.3699  1.3783 -1.1640
10407SOL    HW231800   0.458   9.793   9.869 -0.0473 -1.3011 -1.4443
10408SOL     OW31801   8.199   4.725   8.523 -0.1446 -0.6090  0.2018
10408SOL    HW131802   8.152   4.804   8.497 -0.1544 -1.0988 -1.3681
10408SOL    HW231803   8.284   4.757   8.553 -0.3956  0.0431  0.2425
10409SOL     OW31804   2.607   2.410   7.154  0.0219  0.1303  0.0007
10409SOL    HW131805   2.681   2.350   7.144  0.0623  0.2435 -0.4081
10409SOL    HW231806   2.552   2.369   7.220  0.1211 -0.2862 -0.1704
10410SOL     OW31807   5.729   8.631   5.930  0.1540  0.1642  0.6479
10410SOL    HW131808   5.782   8.585   5.995  1.2196  1.8021  0.9941
10410SOL    HW231809   5.758   8.722   5.934 -1.9920  0.9478  0.1169
10411SOL     OW31810   9.388   8.202   4.408  0.0555 -0.0034  0.2838
10411SOL    HW131811   9.360   8.270   4.347  0.8436  1.2712  1.2911
10411SOL    HW231812   9.314   8.142   4.412 -0.4350  0.4698 -1.0680
10412SOL     OW31813   3.261   4.662   2.870  0.5139 -0.7877  0.6086
10412SOL    HW131814   3.271   4.696   2.781  1.2334 -0.1074  0.9412
10412SOL    HW231815   3.198   4.721   2.910  1.0604 -0.3997  0.9017
10413SOL     OW31816   1.803   8.956   3.463  0.2439 -0.5658 -0.2142
10413SOL    HW131817   1.873   9.020   3.478 -0.4642  0.2594 -0.3635
10413SOL    HW231818   1.835   8.876   3.504  0.1141  0.5328  2.1902
10414SOL     OW31819   4.873   0.954   1.483  0.1007  0.3045  0.4827
10414SOL    HW131820   4.793   1.006   1.489 -0.0762  0.1527 -0.4251
10414SOL    HW231821   4.843   0.865   1.463  0.5447  0.5784 -1.5801
10415SOL     OW31822   2.037   2.697   2.974 -0.2369  0.2537  0.3836
10415SOL    HW131823   2.000   2.784   2.957 -0.3262  0.9260  3.4469
10415SOL    HW231824   2.129   2.714   2.993  0.1488 -0.5839 -0.6620
10416SOL     OW31825   4.581   8.062   9.547 -0.3671  0.0823  0.1478
10416SOL    HW131826   4.540   8.010   9.616 -0.3248  0.1766  0.2446
10416SOL    HW231827   4.672   8.071   9.574 -0.2956 -0.0836 -0.0432
10417SOL     OW31828   4.163   1.760   4.634  0.2460  0.4874  0.1774
10417SOL    HW131829   4.111   1.747   4.555  0.8999  0.5510 -0.2789
10417SOL    HW231830   4.105   1.806   4.694 -0.5944 -0.4472  0.1161
10418SOL     OW31831   4.543   4.074   2.749  0.2552  0.6591  0.0694
10418SOL    HW131832   4.566   3.981   2.744  0.1631  0.6513 -0.2754
10418SOL    HW231833   4.607   4.117   2.693 -0.2515  0.6927 -0.5011
10419SOL     OW31834   0.688   1.521   8.060  0.0617 -0.0730  0.2006
10419SOL    HW131835   0.680   1.509   8.154 -0.4581 -1.3218  0.0160
10419SOL    HW231836   0.762   1.581   8.050 -0.3410  0.6602  1.4133
10420SOL     OW31837   1.285   3.745   9.721  0.3289 -0.1643  0.0991
10420SOL    HW131838   1.204   3.783   9.687  0.9365 -0.2538 -1.5435
10420SOL    HW231839   1.297   3.785   9.807 -0.6455  1.0166 -0.2984
10421SOL     OW31840   6.861   7.869   6.653 -0.7212  0.0554 -0.4312
10421SOL    HW131841   6.899   7.785   6.626 -1.2422 -0.3747  0.1303
10421SOL    HW231842   6.914   7.935   6.609  0.4695 -0.5334  0.0717
10422SOL     OW31843   1.246   5.941   6.245  0.0810 -0.1449  0.4082
10422SOL    HW131844   1.291   5.878   6.301  1.0876 -0.7681 -1.0423
10422SOL    HW231845   1.174   5.891   6.205  1.5127 -0.7606 -1.5662
10423SOL     OW31846   2.068   0.616   6.231  0.4705  0.0422  0.0680
10423SOL    HW131847   2.100   0.588   6.317  1.9268 -0.1376 -0.5021
10423SOL    HW231848   2.143   0.604   6.173 -0.4570  0.2765 -1.2119
10424SOL     OW31849   5.888   5.357   6.041  0.9326 -0.1362 -0.3488
10424SOL    HW131850   5.853   5.293   5.979  0.0150  0.1138 -0.0986
10424SOL    HW231851   5.950   5.307   6.094  0.2359 -0.8178 -0.1597
10425SOL     OW31852   2.970   4.548   7.342 -0.0078 -0.0001 -0.1181
10425SOL    HW131853   2.921   4.495   7.279  0.0436 -0.1887  0.0025
10425SOL    HW231854   3.056   4.560   7.301 -0.1157  0.2419 -0.2811
10426SOL     OW31855   7.660   6.992   4.275 -0.4070 -0.1931 -0.2109
10426SOL    HW131856   7.646   7.077   4.232 -1.8524 -0.8554 -1.1358
10426SOL    HW231857   7.684   7.014   4.365  0.6847  1.2119 -0.8198
10427SOL     OW31858   8.763   5.243   8.570  0.0957  0.8976 -0.7540
10427SOL    HW131859   8.695   5.215   8.510 -1.3317  0.1459  1.1034
10427SOL    HW231860   8.823   5.296   8.517 -0.4572 -0.6294 -3.0264
10428SOL     OW31861   7.608   9.825   6.408  0.5687 -0.2669  0.8144
10428SOL    HW131862   7.551   9.891   6.368 -0.3242 -1.0512  0.7560
10428SOL    HW231863   7.566   9.806   6.492 -1.8972 -4.0815 -1.0158
10429SOL     OW31864   5.825   3.063   4.113 -0.0717 -0.0653  0.6200
10429SOL    HW131865   5.883   3.106   4.175 -0.5708  1.2660  0.1920
10429SOL    HW231866   5.836   3.111   4.031 -0.4286 -0.9354  0.0391
10430SOL     OW31867   4.016   2.553   4.803 -0.0473 -0.6626 -0.2850
10430SOL    HW131868   4.076   2.627   4.817 -0.8640 -0.2858  1.7124
10430SOL    HW231869   4.069   2.475   4.822  0.7911 -0.6350 -2.3018
10431SOL     OW31870   8.378   4.162   0.178 -0.1232  0.1622  0.5790
10431SOL    HW131871   8.347   4.237   0.229  0.4623 -0.2278  1.5329
10431SOL    HW231872   8.373   4.191   0.087 -0.4739  1.1437  0.9003
10432SOL     OW31873   7.395   3.944   1.882  0.1319 -0.0192 -0.4797
10432SOL    HW131874   7.320   3.914   1.831 -0.0017  2.8707 -2.2502
10432SOL    HW231875   7.374   3.920   1.972 -1.3676 -2.0900 -1.2916
10433SOL     OW31876   2.074   8.016   9.815 -0.4441  0.4387  0.6164
10433SOL    HW131877   2.056   8.086   9.877 -0.2376  0.2896  0.8448
10433SOL    HW231878   2.016   8.034   9.741  0.0066  1.1693  0.4328
10434SOL     OW31879   5.852   5.624   1.840  0.0260  0.5243 -0.1542
10434SOL    HW131880   5.903   5.544   1.853  0.5947  0.6486 -1.4675
10434SOL    HW231881   5.762   5.595   1.829  0.1622  0.1045 -0.1607
10435SOL     OW31882   0.306   2.470   9.603  0.4574 -0.4257 -0.0096
10435SOL    HW131883   0.261   2.385   9.604 -0.5959  0.0564  2.8139
10435SOL    HW231884   0.397   2.449   9.623  0.0464 -0.8772  1.5304
10436SOL     OW31885   3.619   9.279   2.741  0.2074  0.0319 -0.0195
10436SOL    HW131886   3.689   9.302   2.802 -0.0071  2.3623 -0.5567
10436SOL    HW231887   3.558   9.227   2.793  1.5710 -0.7535  0.8537
10437SOL     OW31888   4.284   0.062   6.359  0.1937 -0.3530  0.0164
10437SOL    HW131889   4.368   0.018   6.353  0.3485 -0.0531 -0.0362
10437SOL    HW231890   4.221  -0.008   6.372  0.5424 -0.5215  0.8434
10438SOL     OW31891   6.972   6.278   1.982  0.6990  0.0841 -0.3949
10438SOL    HW131892   6.923   6.359   1.997  0.4176  0.0768 -1.2203
10438SOL    HW231893   7.060   6.307   1.958  1.5621  0.0853  2.4281
10439SOL     OW31894   0.337   2.979   8.178  0.0491 -0.2016 -0.0396
10439SOL    HW131895   0.308   3.024   8.099  1.0710 -0.2076 -0.4369
10439SOL    HW231896   0.262   2.983   8.237 -0.5579  0.2416 -0.8194
10440SOL     OW31897   1.483   9.128   0.240 -0.2458 -0.0127 -0.4137
10440SOL    HW131898   1.564   9.137   0.191 -0.7199 -1.1762 -1.4571
10440SOL    HW231899   1.414   9.125   0.173 -0.9936 -0.6871  0.3558
10441SOL     OW31900   6.916   2.386   4.659  0.1387 -0.5774  0.4470
10441SOL    HW131901   6.862   2.382   4.737  0.3731 -1.9499  0.5632
10441SOL    HW231902   6.854   2.403   4.588 -0.0672  0.7213  0.9153
10442SOL     OW31903   4.942   4.489   4.326  0.0287  0.3997  0.1462
10442SOL    HW131904   5.027   4.497   4.370  0.0445 -0.7678  0.3477
10442SOL    HW231905   4.890   4.561   4.362  0.7851  0.8602  0.3503
10443SOL     OW31906   1.318   7.852   9.778 -0.3525 -0.3931  0.1659
10443SOL    HW131907   1.237   7.803   9.790 -1.1084  0.0073 -2.4953
10443SOL    HW231908   1.289   7.940   9.753  0.9306  0.2450  0.8599
10444SOL     OW31909   2.563   2.596   6.546 -0.7234 -0.1466  0.1464
10444SOL    HW131910   2.586   2.671   6.491  1.3043  0.2082  1.3745
10444SOL    HW231911   2.643   2.545   6.552 -0.9860 -0.3982  2.3904
10445SOL     OW31912   0.433   7.275   0.211 -0.0674 -0.5531 -0.2393
10445SOL    HW131913   0.338   7.272   0.220 -0.2276  0.6044 -1.2539
10445SOL    HW231914   0.467   7.252   0.297 -1.2856  0.6095  0.5736
10446SOL     OW31915   0.104   7.113   0.683  0.5172  0.1283  0.0481
10446SOL    HW131916   0.184   7.164   0.671  0.5887  0.6600  2.2980
10446SOL    HW231917   0.059   7.156   0.756 -0.7090 -1.4834  0.2978
10447SOL     OW31918   6.017   2.634   9.146 -0.0252 -0.5495  0.6684
10447SOL    HW131919   6.077   2.592   9.208 -2.1310  0.4572  3.6570
10447SOL    HW231920   5.987   2.563   9.090  1.3638 -1.7024  1.2996
10448SOL     OW31921   2.434   5.280   7.082  0.4592  0.3187 -0.0246
10448SOL    HW131922   2.522   5.243   7.097  0.9959  1.1567 -0.9489
10448SOL    HW231923   2.387   5.211   7.034  1.5191  0.8302 -1.9229
10449SOL     OW31924   4.430   6.255   9.323 -0.2859  0.5277  0.2723
10449SOL    HW131925   4.360   6.190   9.316 -1.2218  1.6787 -2.0576
10449SOL    HW231926   4.486   6.239   9.247 -1.3173  3.2305 -1.1932
10450SOL     OW31927   1.700   2.644   2.383  0.1001 -0.2383  0.1999
10450SOL    HW131928   1.709   2.565   2.436 -0.8202 -0.2283  0.3851
10450SOL    HW231929   1.612   2.677   2.402  0.4399  0.7987  0.0774
10451SOL     OW31930   5.788   0.130   0.769 -0.0061  0.3425 -0.2034
10451SOL    HW131931   5.841   0.136   0.848  0.2869  1.8516 -0.4984
10451SOL    HW231932   5.700   0.156   0.797 -0.2190 -0.4689 -0.0909
10452SOL     OW31933   7.907   9.117   5.898  0.3488  0.1822  0.7760
10452SOL    HW131934   7.976   9.069   5.852 -0.1803  0.9209 -0.8768
10452SOL    HW231935   7.950   9.196   5.930  0.4805  0.1741  0.6184
10453SOL     OW31936   0.835   0.409   2.309  0.3657 -0.1382 -0.1189
10453SOL    HW131937   0.762   0.366   2.263  0.5979 -1.5140  0.7192
10453SOL    HW231938   0.910   0.396   2.251  0.3493 -0.5063 -0.0600
10454SOL     OW31939   6.568   5.613   8.429 -0.0842  0.3448 -0.1911
10454SOL    HW131940   6.534   5.700   8.405 -1.2792 -0.1046 -0.1936
10454SOL    HW231941   6.579   5.568   8.345 -0.8913 -0.0055 -0.1211
10455SOL     OW31942   6.499   4.198   7.959  0.2940 -0.4708 -0.7323
10455SOL    HW131943   6.434   4.140   7.999  1.4425 -1.6614 -0.5333
10455SOL    HW231944   6.450   4.247   7.894 -0.7346 -1.6591 -0.8929
10456SOL     OW31945   1.642   6.415   6.411  0.1007 -0.0402 -0.3425
10456SOL    HW131946   1.643   6.480   6.341 -0.6579 -2.2240 -2.5419
10456SOL    HW231947   1.730   6.377   6.411  1.2486  2.2693  2.3965
10457SOL     OW31948   5.351   9.662   1.178 -0.4564  0.3004  0.8422
10457SOL    HW131949   5.290   9.730   1.207 -0.2226  0.8893  0.0058
10457SOL    HW231950   5.371   9.686   1.087  0.4698 -0.2834  0.8837
10458SOL     OW31951   3.234   1.533   4.310  0.0655  0.2576 -0.2790
10458SOL    HW131952   3.139   1.534   4.312  0.0683  1.5224 -0.3044
10458SOL    HW231953   3.261   1.582   4.388  0.7516 -2.2488  1.1956
10459SOL     OW31954   2.928   4.557   4.837 -0.3710 -0.5573 -0.5045
10459SOL    HW131955   2.919   4.556   4.932 -0.0479 -0.3270 -0.4683
10459SOL    HW231956   3.017   4.588   4.822  0.3826 -2.7430 -0.8494
10460SOL     OW31957   1.722   0.723   5.347  0.1199 -0.0527  0.3230
10460SOL    HW131958   1.797   0.767   5.306  1.9404 -2.2531  1.0569
10460SOL    HW231959   1.696   0.656   5.284 -2.6361  1.8898 -0.7948
10461SOL     OW31960   5.424   1.396   1.765 -0.2941 -0.2326 -0.4001
10461SOL    HW131961   5.395   1.305   1.763  0.0974 -0.3498 -1.7947
10461SOL    HW231962   5.345   1.448   1.749 -0.5808 -0.2852  0.7400
10462SOL     OW31963   3.902   1.269   0.043  0.3431 -0.4826  0.2723
10462SOL    HW131964   3.985   1.302   0.010  1.0529 -1.8996  0.5611
10462SOL    HW231965   3.837   1.299  -0.021  1.3120 -0.7985 -0.9023
10463SOL     OW31966   0.276   3.024   6.983 -0.6709 -0.1048  0.2231
10463SOL    HW131967   0.321   3.109   6.990  1.9717 -1.3223 -0.7474
10463SOL    HW231968   0.195   3.044   6.935 -0.6008  1.9969  0.8808
10464SOL     OW31969   5.936   6.650   4.013  0.0303  0.5395 -0.2499
10464SOL    HW131970   5.879   6.643   4.089  1.9861  0.7078  1.3361
10464SOL    HW231971   5.878   6.645   3.938 -1.9595  0.0428  1.2479
10465SOL     OW31972   4.426   0.697   5.045  0.4585  0.5747 -0.4348
10465SOL    HW131973   4.416   0.752   4.967 -0.7667 -0.2942 -0.9197
10465SOL    HW231974   4.474   0.620   5.013  0.7757  0.6355 -0.1110
10466SOL     OW31975   3.566   1.090   0.540  0.2181  0.0527  0.0804
10466SOL    HW131976   3.657   1.112   0.560 -0.1179 -0.4689  2.4481
10466SOL    HW231977   3.569   0.999   0.510  0.6075  0.4995 -1.3172
10467SOL     OW31978   7.091   5.860   8.592 -0.0750 -0.3292  0.1497
10467SOL    HW131979   7.005   5.846   8.553 -1.0031 -0.8078  2.2137
10467SOL    HW231980   7.079   5.935   8.650  1.7381  1.5638 -1.7319
10468SOL     OW31981   3.335   4.439   7.922  0.0940 -0.5944  0.3979
10468SOL    HW131982   3.431   4.438   7.925  0.1017  0.4179  1.0008
10468SOL    HW231983   3.308   4.435   8.014 -0.3629  1.5156  0.4120
10469SOL     OW31984   7.159   7.955   9.357 -0.0281  0.4112  0.0453
10469SOL    HW131985   7.195   7.905   9.430 -0.5975 -1.5158 -0.9234
10469SOL    HW231986   7.206   7.922   9.280 -0.3505  1.4648 -0.6296
10470SOL     OW31987   3.872   8.851   7.001 -0.2402 -0.7538  0.2413
10470SOL    HW131988   3.828   8.915   7.057  0.7784 -0.3963  0.6587
10470SOL    HW231989   3.881   8.895   6.917 -0.8324 -0.8986  0.0976
10471SOL     OW31990   6.551   1.998   8.622  0.4596 -0.0818  1.0346
10471SOL    HW131991   6.620   1.961   8.678  0.8108 -0.0749  0.6069
10471SOL    HW231992   6.593   2.011   8.537 -0.0415  0.0209  0.7995
10472SOL     OW31993   3.856   3.069   9.656  0.2047  0.5384  0.1026
10472SOL    HW131994   3.817   3.117   9.729  1.9529  2.2289 -0.0079
10472SOL    HW231995   3.921   3.012   9.696 -1.3623 -1.3239  0.1563
10473SOL     OW31996   0.131   1.651   6.647 -0.2364  0.1298 -0.5155
10473SOL    HW131997   0.080   1.723   6.609  1.0286  1.8093  0.7712
10473SOL    HW231998   0.215   1.654   6.601  0.9557  1.5642  1.5371
10474SOL     OW31999   9.949   1.958   9.266 -0.4129  0.4393  0.4115
10474SOL    HW132000   9.888   1.979   9.196 -1.3452 -0.1626  1.0228
10474SOL    HW232001   9.933   1.866   9.285  0.7962  0.2322  0.4862
10475SOL     OW32002   9.000   5.938   5.673 -0.3320  0.1278 -0.0068
10475SOL    HW132003   9.030   5.869   5.732  0.6100 -1.4045 -2.1508
10475SOL    HW232004   9.076   5.994   5.658 -0.1450 -0.3288 -0.8460
10476SOL     OW32005   6.554   8.595   4.003  0.0578  0.4328  0.1340
10476SOL    HW132006   6.517   8.632   3.924  0.8514  0.5831 -0.1827
10476SOL    HW232007   6.490   8.614   4.072 -0.6653  0.2320 -0.4859
10477SOL     OW32008   7.578   1.708   4.390  0.0770  0.1690 -0.3137
10477SOL    HW132009   7.578   1.774   4.460 -1.1635  0.6081 -0.6939
10477SOL    HW232010   7.553   1.627   4.433  1.3645 -0.0212  0.1132
10478SOL     OW32011   6.368   0.380   5.364  0.4358  0.0525  0.3954
10478SOL    HW132012   6.417   0.368   5.283 -0.3975 -0.2491 -0.0792
10478SOL    HW232013   6.299   0.442   5.341  0.9362  0.9508  1.2124
10479SOL     OW32014   3.096   8.293   8.870 -0.2523 -0.8059  0.0597
10479SOL    HW132015   3.016   8.302   8.819  0.3091  3.0470 -0.4525
10479SOL    HW232016   3.073   8.324   8.957  0.5776  0.1395 -0.0366
10480SOL     OW32017   9.082   8.583   2.035 -0.0534 -0.0214  0.3940
10480SOL    HW132018   9.124   8.611   1.954  0.4740  0.5371  0.8570
10480SOL    HW232019   9.005   8.640   2.043  0.2100  0.3123  0.5766
10481SOL     OW32020   4.930   8.715   2.009  0.3814  0.1439  0.1193
10481SOL    HW132021   4.951   8.622   2.022  0.7665  0.2399  0.2027
10481SOL    HW232022   4.927   8.751   2.098  1.4662  0.4699  0.0468
10482SOL     OW32023   7.714   5.709   4.441  0.6351  0.2646  0.0436
10482SOL    HW132024   7.633   5.705   4.492  0.3425  1.2066 -0.3363
10482SOL    HW232025   7.766   5.777   4.485  0.7218  0.5021 -0.4247
10483SOL     OW32026   8.543   9.764   1.937 -0.4620 -0.0462  0.9586
10483SOL    HW132027   8.558   9.770   1.843  1.8594 -2.0802  1.0947
10483SOL    HW232028   8.449   9.779   1.947 -0.7190  0.5994 -1.6143
10484SOL     OW32029   0.521   8.773   4.756  0.1241  0.1902 -0.1096
10484SOL    HW132030   0.512   8.678   4.760 -1.6222  0.3535  0.6362
10484SOL    HW232031   0.553   8.797   4.843 -0.0567  0.3470 -0.0879
10485SOL     OW32032   7.124   5.607   2.204  0.1967  0.3578  0.1767
10485SOL    HW132033   7.039   5.567   2.188  0.4601  0.3157 -1.2830
10485SOL    HW232034   7.182   5.534   2.223 -0.2616  0.4609  2.1526
10486SOL     OW32035   8.061   4.280   7.034 -0.2130 -0.2452  0.0111
10486SOL    HW132036   8.039   4.318   6.949 -0.3512  0.5367  0.3860
10486SOL    HW232037   7.999   4.209   7.047 -1.8833  1.2515  0.5828
10487SOL     OW32038   2.718   7.598   1.156  0.4474 -0.2139 -0.5854
10487SOL    HW132039   2.750   7.558   1.236 -2.3635  1.3181  1.4852
10487SOL    HW232040   2.741   7.690   1.163  1.2211 -0.2452 -2.1757
10488SOL     OW32041   5.933   1.199   2.887 -0.4885  0.0885 -0.3853
10488SOL    HW132042   6.021   1.179   2.853 -0.7189 -1.1957 -0.2588
10488SOL    HW232043   5.890   1.114   2.893 -1.6592  0.6832 -0.1908
10489SOL     OW32044   4.249   4.123   2.694  0.0295  0.6061 -0.2348
10489SOL    HW132045   4.340   4.151   2.685  0.0108  0.4048 -1.1661
10489SOL    HW232046   4.237   4.056   2.626 -0.5048 -0.1774  0.5940
10490SOL     OW32047   7.698   4.541   4.813  0.5464  0.1968 -0.2300
10490SOL    HW132048   7.708   4.552   4.718  1.0403  1.6238 -0.0326
10490SOL    HW232049   7.784   4.561   4.849  0.7166 -1.6144  0.4456
10491SOL     OW32050   0.816   0.333   6.345  0.3305  0.0882  0.0448
10491SOL    HW132051   0.794   0.261   6.404  1.4856  0.9007  1.5535
10491SOL    HW232052   0.748   0.331   6.278 -1.7528 -0.1722  2.0418
10492SOL     OW32053   5.479   6.554   8.692 -0.2166 -0.1083 -0.0743
10492SOL    HW132054   5.518   6.531   8.608  0.5456  1.2049 -0.0996
10492SOL    HW232055   5.493   6.476   8.746  1.2754 -0.1589 -0.4893
10493SOL     OW32056   5.424   5.775   8.225  0.3561  0.2367 -0.4939
10493SOL    HW132057   5.412   5.835   8.152  0.1929  1.2963  0.3856
10493SOL    HW232058   5.517   5.783   8.248 -0.1362  1.9323  1.0992
10494SOL     OW32059   5.568   4.091   1.637 -0.1432 -0.8041 -0.7989
10494SOL    HW132060   5.500   4.031   1.607  0.6924 -1.1855 -1.9942
10494SOL    HW232061   5.524   4.176   1.644 -1.0560 -1.3119 -0.2133
10495SOL     OW32062   1.442   5.324   3.839  0.0675  0.1135  0.0745
10495SOL    HW132063   1.449   5.237   3.878 -0.3244 -0.4150 -1.0182
10495SOL    HW232064   1.533   5.349   3.820  0.0774 -0.8933 -1.3762
10496SOL     OW32065   5.993   5.382   1.759 -0.8062  0.1182  0.3210
10496SOL    HW132066   6.088   5.399   1.758 -0.2536 -1.7182 -4.0661
10496SOL    HW232067   5.985   5.291   1.787 -1.2375  0.1977  0.4587
10497SOL     OW32068   2.830   8.932   9.927 -0.1087 -0.2295 -0.2743
10497SOL    HW132069   2.844   9.014   9.974 -0.2128  0.6171 -1.6462
10497SOL    HW232070   2.901   8.874   9.957  1.4661  1.2037 -1.0634
10498SOL     OW32071   4.382   1.490   6.313  0.3836 -0.1454 -0.0766
10498SOL    HW132072   4.423   1.405   6.330  0.1883 -0.4680 -1.1745
10498SOL    HW232073   4.292   1.470   6.291  0.7365  0.1898 -1.9579
10499SOL     OW32074   0.700   4.025   8.455  0.2610 -0.5676 -0.1785
10499SOL    HW132075   0.692   4.065   8.542 -0.0620 -1.8300  0.3920
10499SOL    HW232076   0.610   4.004   8.430  0.5641 -2.7421  0.4214
10500SOL     OW32077   1.369   6.645   2.764 -0.3771 -0.6638  0.1597
10500SOL    HW132078   1.301   6.660   2.699  0.5720  0.5462 -0.5911
10500SOL    HW232079   1.322   6.610   2.840 -1.9048  0.6502 -0.1313
10501SOL     OW32080   7.121   5.604   8.281 -0.6872 -0.4053  0.3484
10501SOL    HW132081   7.095   5.574   8.194  0.8651 -0.3647 -0.1547
10501SOL    HW232082   7.105   5.699   8.279 -1.3479 -0.5098  0.3771
10502SOL     OW32083   1.493   6.513   8.138 -0.2725 -0.5837 -0.0308
10502SOL    HW132084   1.447   6.587   8.178  0.5744 -0.3672  0.5756
10502SOL    HW232085   1.436   6.485   8.067 -1.1006 -0.0122  0.3900
10503SOL     OW32086   0.074   8.302   0.258 -0.0921  0.5791  0.2214
10503SOL    HW132087   0.068   8.328   0.166 -1.2885  0.7108  0.3209
10503SOL    HW232088   0.091   8.384   0.305  0.4107  0.5269  0.1408
10504SOL     OW32089   1.210   7.209   5.776 -0.0117 -1.1626  0.2548
10504SOL    HW132090   1.147   7.269   5.816 -0.3753 -3.2233  3.0660
10504SOL    HW232091   1.293   7.230   5.819  0.4405 -0.9499 -0.6962
10505SOL     OW32092   3.174   1.194   4.223  0.4433 -0.0548 -0.0928
10505SOL    HW132093   3.198   1.105   4.251 -0.1400 -0.2807 -0.2865
10505SOL    HW232094   3.170   1.244   4.305 -0.9957 -0.6488  0.2450
10506SOL     OW32095   4.272   2.178   6.427  0.2754  0.8206 -0.2878
10506SOL    HW132096   4.328   2.170   6.505  2.1624 -2.9244 -1.8120
10506SOL    HW232097   4.189   2.138   6.453 -0.0205  1.8582  0.4634
10507SOL     OW32098   0.646   0.121   0.243 -0.7853  0.3296 -0.0235
10507SOL    HW132099   0.706   0.184   0.283 -2.1925  0.9746  1.1517
10507SOL    HW232100   0.568   0.172   0.223 -1.6030 -0.8617  0.0770
10508SOL     OW32101   1.536   4.757   2.906  0.1244 -0.4965  0.1709
10508SOL    HW132102   1.491   4.813   2.969  0.9148 -1.5295  1.7135
10508SOL    HW232103   1.500   4.783   2.821  1.2024  3.0481  0.6508
10509SOL     OW32104   7.911   0.950   8.839 -0.4983 -0.6965 -0.0007
10509SOL    HW132105   7.823   0.985   8.854  0.0006  0.7988 -0.4248
10509SOL    HW232106   7.903   0.856   8.860 -1.8147 -0.3041  1.4835
10510SOL     OW32107   6.356   4.680   9.563 -0.8492 -0.0496  0.2604
10510SOL    HW132108   6.434   4.725   9.532  0.4971 -0.8417  2.2951
10510SOL    HW232109   6.375   4.587   9.552 -0.6732 -0.3338  2.4307
10511SOL     OW32110   2.791   0.673   4.889 -0.0038  0.5775  0.1268
10511SOL    HW132111   2.880   0.706   4.876  0.4356 -0.6436 -0.1561
10511SOL    HW232112   2.803   0.587   4.928 -0.9251 -0.7210 -2.2485
10512SOL     OW32113   8.945   9.596   5.733  0.1949  0.2535  0.4679
10512SOL    HW132114   8.849   9.595   5.730  0.1619 -1.9489  0.5344
10512SOL    HW232115   8.971   9.652   5.660 -1.1267  1.5870  0.9692
10513SOL     OW32116   4.351   7.035   3.717  0.4143 -0.0749 -0.5048
10513SOL    HW132117   4.352   7.060   3.809  0.6255  1.4204 -0.8828
10513SOL    HW232118   4.319   6.945   3.717  0.4874 -0.1311  1.0277
10514SOL     OW32119   0.675   8.480   9.651  0.3504  0.4846 -0.0331
10514SOL    HW132120   0.715   8.533   9.582 -2.1184  0.0502 -1.9265
10514SOL    HW232121   0.638   8.543   9.713  2.3039  0.8742  0.8153
10515SOL     OW32122   1.024   1.100   3.398 -0.1239  0.1762 -0.2403
10515SOL    HW132123   0.968   1.144   3.334 -0.6755 -0.5028 -0.2274
10515SOL    HW232124   0.989   1.129   3.483  1.4046  2.1046 -0.2031
10516SOL     OW32125   9.197   7.273   3.083  0.0168 -0.0796 -1.1549
10516SOL    HW132126   9.250   7.196   3.102 -0.3037 -0.0219  0.0771
10516SOL    HW232127   9.120   7.263   3.139 -0.3390  0.8206 -1.4683
10517SOL     OW32128   3.962   3.592   9.726 -0.0986  0.0078 -0.2153
10517SOL    HW132129   3.939   3.529   9.795  0.6902 -0.5959 -0.4921
10517SOL    HW232130   3.889   3.654   9.725 -0.8498 -0.8500  0.1285
10518SOL     OW32131   4.131   4.420   6.698 -0.6799 -0.0834 -0.6545
10518SOL    HW132132   4.035   4.427   6.700 -0.6016  4.2009 -2.2207
10518SOL    HW232133   4.154   4.428   6.605  1.2435  0.1078 -0.2037
10519SOL     OW32134   4.512   8.260   0.751 -0.2750 -0.0538 -0.3268
10519SOL    HW132135   4.575   8.211   0.697 -1.1465 -1.4384 -0.1210
10519SOL    HW232136   4.523   8.225   0.839 -2.6541 -1.7382 -0.6260
10520SOL     OW32137   8.762   5.929   0.869  0.4302  0.8965  0.3520
10520SOL    HW132138   8.761   5.851   0.924 -0.7144 -0.0410 -0.9463
10520SOL    HW232139   8.853   5.937   0.840  0.2321 -0.9910 -0.8978
10521SOL     OW32140   2.762   9.496   0.583  0.0362 -0.6999 -0.1989
10521SOL    HW132141   2.696   9.565   0.577  0.0071 -0.5897  1.0567
10521SOL    HW232142   2.719   9.426   0.632  1.2363 -0.0669  1.9059
10522SOL     OW32143   7.751   1.182   9.187 -0.4296 -0.0638 -0.0424
10522SOL    HW132144   7.665   1.204   9.223 -0.8342 -1.5402 -0.0331
10522SOL    HW232145   7.733   1.151   9.098  0.1898  0.3937 -0.3317
10523SOL     OW32146   1.374   3.881   3.568 -0.4943  0.0585 -0.4346
10523SOL    HW132147   1.378   3.801   3.516  2.9940  1.0371 -1.9042
10523SOL    HW232148   1.462   3.891   3.605 -0.0965  4.2323 -2.0276
10524SOL     OW32149   3.025   5.316   2.354  0.1784  0.0582  0.3298
10524SOL    HW132150   2.965   5.347   2.422  2.3008  1.1336  1.8420
10524SOL    HW232151   3.003   5.224   2.343 -2.6063  0.6875 -0.2126
10525SOL     OW32152   2.332   1.042   7.908  0.0114 -0.4295  0.2746
10525SOL    HW132153   2.263   1.108   7.898 -1.5980 -1.5665  2.8716
10525SOL    HW232154   2.291   0.960   7.880  1.1283 -0.7586 -0.4444
10526SOL     OW32155   3.704   8.334   2.858  0.2172  0.3566 -0.3615
10526SOL    HW132156   3.725   8.297   2.944 -1.5621 -2.7457 -1.0819
10526SOL    HW232157   3.695   8.428   2.873 -0.6039 -0.1431  2.9876
10527SOL     OW32158   2.679   3.470   5.891  0.4432 -0.0129 -0.3593
10527SOL    HW132159   2.678   3.432   5.803  0.4557  0.4343 -0.5561
10527SOL    HW232160   2.620   3.414   5.941 -2.3756  1.6662 -1.5102
10528SOL     OW32161   2.178   2.023   7.923 -0.3510  0.6846 -0.1635
10528SOL    HW132162   2.126   2.063   7.853  1.5178 -0.4635 -2.3413
10528SOL    HW232163   2.245   2.088   7.943  0.8895 -0.1027 -1.5945
10529SOL     OW32164   1.714   2.477   1.986 -0.8609  0.2619 -0.0721
10529SOL    HW132165   1.727   2.385   2.008  0.5454  0.3790 -0.3615
10529SOL    HW232166   1.767   2.525   2.048 -2.1269  0.9457  0.5236
10530SOL     OW32167   7.116   6.530   6.090 -0.0521  0.3556 -0.3988
10530SOL    HW132168   7.029   6.497   6.114  0.5950 -0.2277  1.3330
10530SOL    HW232169   7.138   6.483   6.010 -1.2701  0.4340 -0.8110
10531SOL     OW32170   6.383   8.372   7.156 -0.2382 -0.5138 -0.4757
10531SOL    HW132171   6.292   8.397   7.173 -0.2801 -0.8080 -0.2495
10531SOL    HW232172   6.385   8.278   7.174  0.4486 -0.2455  0.9360
10532SOL     OW32173   1.736   8.335   4.374  0.0190 -0.4139  0.0909
10532SOL    HW132174   1.801   8.270   4.348  0.7944  0.0193  0.8883
10532SOL    HW232175   1.743   8.339   4.470 -2.2687 -1.4853  0.3756
10533SOL     OW32176   8.230   9.143   0.585 -0.0421  0.2424 -0.2905
10533SOL    HW132177   8.204   9.097   0.664  1.3358  0.5152  0.3475
10533SOL    HW232178   8.290   9.083   0.540 -0.3915  0.3077 -0.8503
10534SOL     OW32179   7.329   2.758   7.215 -0.2433  0.0267  0.2825
10534SOL    HW132180   7.392   2.752   7.287 -0.7950 -1.2370  0.6709
10534SOL    HW232181   7.272   2.831   7.239  0.6118  0.7125  0.2817
10535SOL     OW32182   7.366   5.865   8.515 -0.1497  0.2604 -0.0596
10535SOL    HW132183   7.353   5.782   8.469 -1.6190  0.7562 -0.5869
10535SOL    HW232184   7.278   5.894   8.539  0.4404  0.9776  1.3901
10536SOL     OW32185   0.313   1.033   7.329  0.0719 -0.6684  0.3229
10536SOL    HW132186   0.286   0.948   7.363  0.4321 -1.2620 -0.8178
10536SOL    HW232187   0.338   1.016   7.238 -0.9407  0.8564 -0.2867
10537SOL     OW32188   1.279   8.392   6.220  0.6811  0.3335 -0.1871
10537SOL    HW132189   1.244   8.475   6.188 -0.4383 -0.2993 -0.6546
10537SOL    HW232190   1.231   8.376   6.302 -0.8137 -0.9481 -1.2561
10538SOL     OW32191   1.660   5.009   9.454 -0.5441 -0.4877  0.1402
10538SOL    HW132192   1.753   5.010   9.433 -0.3607 -1.5950  0.8080
10538SOL    HW232193   1.625   5.088   9.413  0.3434 -0.9785 -1.6283
10539SOL     OW32194   3.150   5.044   3.046  0.0678 -0.2155 -0.1797
10539SOL    HW132195   3.110   4.989   3.113 -1.2652 -0.2399 -0.9450
10539SOL    HW232196   3.179   4.982   2.979 -1.9011 -0.0267 -1.2844
10540SOL     OW32197   1.266   9.043   3.921  0.1827  0.0649  0.1139
10540SOL    HW132198   1.292   9.112   3.860  0.4076  0.4571  0.6331
10540SOL    HW232199   1.344   9.031   3.977 -0.2363  0.1965  0.7416
10541SOL     OW32200   7.627   4.257   7.782 -0.2412  0.4592  0.6654
10541SOL    HW132201   7.554   4.196   7.777  0.0279  0.2270 -1.1959
10541SOL    HW232202   7.588   4.344   7.774 -0.3408  0.3361 -0.2913
10542SOL     OW32203   9.868   3.326   4.309  0.0718  0.0659 -0.1510
10542SOL    HW132204   9.864   3.238   4.272  1.9485  0.5472 -1.6716
10542SOL    HW232205   9.896   3.311   4.400  2.0303 -0.9104 -0.8378
10543SOL     OW32206   7.854   9.880   6.560 -0.3551 -0.3167  0.4833
10543SOL    HW132207   7.775   9.864   6.508 -1.8054  0.2742  2.3662
10543SOL    HW232208   7.923   9.833   6.515 -1.6864 -0.4758 -1.4995
10544SOL     OW32209   5.551   9.912   0.748 -0.5881  0.4046  0.2003
10544SOL    HW132210   5.611   9.969   0.700 -0.0025  1.1930  1.7813
10544SOL    HW232211   5.603   9.879   0.821 -0.4513 -3.3644 -1.3415
10545SOL     OW32212   0.883   1.796   2.192  0.4428  0.6853  0.1537
10545SOL    HW132213   0.804   1.797   2.245 -1.5477  1.3648 -2.6185
10545SOL    HW232214   0.954   1.778   2.254 -1.9758 -1.2583  2.5513
10546SOL     OW32215   1.216   8.115   6.109  0.0299  0.8528 -0.1225
10546SOL    HW132216   1.125   8.096   6.087 -0.4974  2.9799  0.0058
10546SOL    HW232217   1.214   8.140   6.201  1.2514 -1.8404  0.7357
10547SOL     OW32218   6.823   6.868   5.070 -0.2353  0.1841 -0.5650
10547SOL    HW132219   6.769   6.813   5.014  1.0917  0.5584 -2.3022
10547SOL    HW232220   6.771   6.880   5.150 -1.3019 -2.0984 -0.8403
10548SOL     OW32221   5.372   9.046   8.464  0.4827 -0.3269  0.1503
10548SOL    HW132222   5.366   9.136   8.432  1.4476 -0.0711  0.6340
10548SOL    HW232223   5.449   9.010   8.419  2.2553  0.2370  2.5094
10549SOL     OW32224   9.183   8.939   7.995 -0.0874 -0.0430 -0.3221
10549SOL    HW132225   9.133   8.962   8.073  0.1252  1.1474 -0.5310
10549SOL    HW232226   9.232   8.861   8.021  0.2066  0.5070  0.8376
10550SOL     OW32227   8.152   9.495   3.664 -0.2251 -0.3844 -0.4244
10550SOL    HW132228   8.068   9.453   3.684  0.2987 -1.8810 -1.2133
10550SOL    HW232229   8.217   9.432   3.695  0.6331  0.8202  0.2986
10551SOL     OW32230   7.926   7.740   5.824 -0.7346 -0.3405  0.2964
10551SOL    HW132231   7.922   7.821   5.773  2.4582  0.5312  1.1732
10551SOL    HW232232   7.904   7.768   5.913  4.4186  0.7714  1.5368
10552SOL     OW32233   4.816   9.267   6.025 -0.4781 -0.3236  0.0225
10552SOL    HW132234   4.750   9.329   6.056 -0.1672 -0.2687  0.5991
10552SOL    HW232235   4.864   9.241   6.104 -1.3658 -2.2230  0.0035
10553SOL     OW32236   9.950   6.921   1.890  0.7017  0.4330 -0.1183
10553SOL    HW132237   9.901   6.839   1.896  2.8631 -0.8152  3.0663
10553SOL    HW232238   9.885   6.990   1.905 -0.6435 -0.8936  0.2946
10554SOL     OW32239   8.105   2.435   3.488  0.2126 -0.0602  0.1625
10554SOL    HW132240   8.090   2.361   3.547 -1.2331  0.4788  0.5036
10554SOL    HW232241   8.048   2.504   3.521  1.4106  1.1707 -0.2495
10555SOL     OW32242   7.348   9.674   0.207 -0.0340 -0.0059 -0.2608
10555SOL    HW132243   7.394   9.649   0.127  0.9692  0.1696  0.2466
10555SOL    HW232244   7.406   9.737   0.250 -0.5689 -0.0732  0.5908
10556SOL     OW32245   8.244   5.291   5.927  0.0411  0.1201  0.4611
10556SOL    HW132246   8.186   5.224   5.892 -0.3924  0.8479 -0.2529
10556SOL    HW232247   8.237   5.283   6.022  2.0776 -2.6242  0.4930
10557SOL     OW32248   7.423   3.055   9.009 -0.0333 -0.1860 -0.4276
10557SOL    HW132249   7.438   3.149   9.015  2.4624 -0.5808  1.1927
10557SOL    HW232250   7.345   3.046   8.954 -0.8430  2.8217  0.0647
10558SOL     OW32251   7.015   7.907   1.297 -0.0393 -0.1047  0.5649
10558SOL    HW132252   7.036   7.818   1.267 -0.0813  0.9467 -3.1015
10558SOL    HW232253   6.926   7.900   1.333  0.1709 -1.6320  0.8462
10559SOL     OW32254   8.721   3.802   4.661 -0.2452 -0.3022  0.2590
10559SOL    HW132255   8.651   3.848   4.614 -0.3810  0.6765  1.3744
10559SOL    HW232256   8.797   3.861   4.654  0.2502 -0.9797 -0.2388
10560SOL     OW32257   4.988   8.933   4.180 -0.0861 -0.4536 -0.2416
10560SOL    HW132258   5.007   8.999   4.113 -0.0937  1.7671  1.8027
10560SOL    HW232259   4.892   8.929   4.183 -0.0880 -1.1208 -0.8324
10561SOL     OW32260   4.787   8.056   6.507  0.5459 -0.1127 -0.1678
10561SOL    HW132261   4.880   8.034   6.498  0.1660 -1.2886 -1.4665
10561SOL    HW232262   4.787   8.147   6.538  2.1151  0.0576 -0.5839
10562SOL     OW32263   7.679   9.260   6.144 -0.4570  0.0877 -0.1248
10562SOL    HW132264   7.740   9.334   6.145 -0.9112  0.4611  0.0484
10562SOL    HW232265   7.679   9.231   6.053  0.1772 -0.0818 -0.0749
10563SOL     OW32266   8.350   5.112   8.262  0.1112  0.1346 -0.2845
10563SOL    HW132267   8.381   5.181   8.204 -1.6884 -0.2097 -1.7512
10563SOL    HW232268   8.258   5.133   8.278  0.1586 -0.6567  1.1791
10564SOL     OW32269   9.694   2.379   5.281  0.3958  0.0558  0.8165
10564SOL    HW132270   9.659   2.428   5.206  0.9005  1.4780  1.4677
10564SOL    HW232271   9.755   2.316   5.242  0.6614  0.7838  0.0172
10565SOL     OW32272   1.297   7.837   5.842 -0.4743  0.1004  0.3513
10565SOL    HW132273   1.326   7.916   5.797  1.2293 -0.6223  0.0727
10565SOL    HW232274   1.310   7.857   5.935 -0.6613  0.3738  0.3191
10566SOL     OW32275   7.514  -0.008   4.660 -0.8438 -0.1567 -0.4734
10566SOL    HW132276   7.503   0.087   4.656  1.5185  0.1141 -1.9392
10566SOL    HW232277   7.484  -0.039   4.575  2.1665 -0.1883 -1.6273
10567SOL     OW32278   9.400   3.983   6.037  0.5666 -0.0996  0.9522
10567SOL    HW132279   9.420   3.971   5.944  1.1850 -1.7560  1.2747
10567SOL    HW232280   9.316   3.938   6.049  0.0531  0.8591  1.0332
10568SOL     OW32281   8.720   5.137   1.358  0.6282 -0.2404 -0.1209
10568SOL    HW132282   8.705   5.226   1.326  1.7615 -0.0770 -0.2182
10568SOL    HW232283   8.717   5.083   1.280  1.2337 -0.1148 -0.2372
10569SOL     OW32284   4.958   6.636   4.157  0.6208  0.2237 -0.2540
10569SOL    HW132285   4.959   6.615   4.250 -1.6070 -0.9032 -0.4293
10569SOL    HW232286   4.879   6.687   4.144  0.2007 -0.7332 -1.7292
10570SOL     OW32287   7.548   7.327   5.474  0.3837  0.4222  0.2432
10570SOL    HW132288   7.537   7.232   5.468 -2.0901  0.6796 -0.7585
10570SOL    HW232289   7.499   7.352   5.553 -0.7091  1.0140 -0.5885
10571SOL     OW32290   0.825   7.433   0.434 -0.6435  0.6844 -0.4778
10571SOL    HW132291   0.846   7.464   0.346  2.5901  0.4837  0.0927
10571SOL    HW232292   0.811   7.339   0.424  2.9438 -0.0062 -0.5286
10572SOL     OW32293   5.033   4.297   3.511 -0.0938 -0.6875  0.4529
10572SOL    HW132294   4.964   4.357   3.540  0.2359  1.8575 -3.2948
10572SOL    HW232295   4.987   4.232   3.458 -0.0261 -1.5032  1.3791
10573SOL     OW32296   4.288   5.176   4.831 -0.6420 -0.4270  0.0302
10573SOL    HW132297   4.326   5.097   4.792 -1.7493 -0.4802 -1.0137
10573SOL    HW232298   4.205   5.146   4.869 -2.7075  0.6714 -3.1715
10574SOL     OW32299   9.800   6.062   5.273  0.0888 -0.3580  0.2237
10574SOL    HW132300   9.806   6.087   5.181 -0.6123 -3.4239 -0.7904
10574SOL    HW232301   9.709   6.079   5.296  0.6480  2.0386  0.9979
10575SOL     OW32302   2.839   7.163   5.926  0.1332  0.2323  0.2610
10575SOL    HW132303   2.932   7.155   5.949  0.2736  0.7747 -0.0770
10575SOL    HW232304   2.824   7.092   5.864  0.3827  0.2712  0.1521
10576SOL     OW32305   6.131   5.326   7.855 -0.4215 -0.1028 -0.5673
10576SOL    HW132306   6.122   5.316   7.949 -0.6078  1.7997 -0.3443
10576SOL    HW232307   6.189   5.401   7.844 -1.3263  0.4379 -1.9518
10577SOL     OW32308   3.072   5.327   1.578 -0.4204  0.0090 -0.0621
10577SOL    HW132309   3.124   5.261   1.533  0.4137  0.5094  0.1344
10577SOL    HW232310   3.105   5.411   1.545  0.1504  0.3884  1.3737
10578SOL     OW32311   5.943   2.911   6.407  0.6120  0.3020  0.9707
10578SOL    HW132312   5.886   2.837   6.383  2.2973 -0.8647  0.3932
10578SOL    HW232313   6.016   2.871   6.453  1.2986  1.6992  1.1362
10579SOL     OW32314   6.246   0.498   1.273  0.4603 -0.0195 -0.6416
10579SOL    HW132315   6.265   0.572   1.331 -1.1102  1.0622 -1.4403
10579SOL    HW232316   6.213   0.430   1.332  0.3129  0.5178 -0.0933
10580SOL     OW32317   2.816   8.539   6.219 -0.0725  0.0274  0.1224
10580SOL    HW132318   2.847   8.551   6.129  0.3534  0.3928  0.3091
10580SOL    HW232319   2.728   8.502   6.210 -0.2507  0.5723 -0.4554
10581SOL     OW32320   2.595   8.804   3.192 -0.7604 -0.2413 -0.5882
10581SOL    HW132321   2.540   8.838   3.121 -2.5933 -0.7228  0.5464
10581SOL    HW232322   2.684   8.811   3.158 -1.5781 -0.6269 -3.0191
10582SOL     OW32323   8.587   1.930   2.519  0.0674  0.2532 -0.1410
10582SOL    HW132324   8.668   1.883   2.539 -1.5151 -2.4717  0.3524
10582SOL    HW232325   8.553   1.958   2.604 -0.3507 -0.1190 -0.1819
10583SOL     OW32326   1.190   1.008   2.908 -0.6104 -0.1244  0.0774
10583SOL    HW132327   1.263   1.067   2.891 -0.8959 -0.1521 -1.2986
10583SOL    HW232328   1.231   0.924   2.929 -0.2440  0.0137 -0.0791
10584SOL     OW32329   7.096   6.616   4.421 -0.4203  0.0710 -0.0533
10584SOL    HW132330   7.170   6.617   4.482 -1.1350 -1.4241  0.9008
10584SOL    HW232331   7.110   6.692   4.365  0.9432  0.7766  1.1720
10585SOL     OW32332   8.087   6.705   8.989  0.0394  0.2119 -0.6485
10585SOL    HW132333   8.088   6.759   8.911  1.4607  1.7883  0.3956
10585SOL    HW232334   8.040   6.626   8.963  1.5200  0.1383 -3.4602
10586SOL     OW32335   3.723   6.130   8.358  0.0958 -0.4639 -0.0442
10586SOL    HW132336   3.790   6.136   8.290  0.5030 -0.0322  0.3815
10586SOL    HW232337   3.738   6.207   8.413 -1.0208 -0.1325 -0.1749
10587SOL     OW32338   0.745   5.737   2.622  0.3714 -0.9310 -0.5142
10587SOL    HW132339   0.731   5.719   2.715 -1.1510 -1.9891 -0.8944
10587SOL    HW232340   0.829   5.695   2.602  2.2185  1.7649  0.9425
10588SOL     OW32341   6.828   2.759   7.024 -0.9252 -0.2894  0.0193
10588SOL    HW132342   6.745   2.786   6.985 -1.2009 -1.4736 -0.2332
10588SOL    HW232343   6.851   2.831   7.084 -2.0885  0.0772  0.0417
10589SOL     OW32344   8.345   0.225   3.653 -0.2770 -0.5415 -0.0306
10589SOL    HW132345   8.265   0.204   3.605  0.4621 -0.6173 -1.2841
10589SOL    HW232346   8.331   0.188   3.740 -1.6857 -0.3564 -0.1484
10590SOL     OW32347   7.356   7.300   7.290 -0.0603 -0.0319  0.3166
10590SOL    HW132348   7.405   7.323   7.211  0.9110 -0.2002  0.8514
10590SOL    HW232349   7.377   7.370   7.352 -0.0147 -0.4265  0.7497
10591SOL     OW32350   5.937   6.407   4.795 -0.1971 -0.7230 -0.2250
10591SOL    HW132351   5.871   6.470   4.768 -0.9644 -0.6773  1.6273
10591SOL    HW232352   6.020   6.445   4.765 -0.5183  1.7232  1.6700
10592SOL     OW32353   8.797   4.456   3.569 -0.2555 -0.3427  0.3059
10592SOL    HW132354   8.817   4.420   3.655  0.7769 -0.2873  0.0991
10592SOL    HW232355   8.703   4.440   3.558 -0.7056  0.8891  2.0133
10593SOL     OW32356   4.728   3.644   0.820  0.3760 -0.1957 -0.4837
10593SOL    HW132357   4.658   3.656   0.884  2.0695 -0.4864  1.5466
10593SOL    HW232358   4.683   3.625   0.738 -1.8973 -1.1292  0.8945
10594SOL     OW32359   7.819   3.655   1.470  0.2269  0.1215  0.5046
10594SOL    HW132360   7.744   3.596   1.483 -1.1359  1.4645 -0.8935
10594SOL    HW232361   7.869   3.615   1.399  0.0439 -0.0463  0.4675
10595SOL     OW32362   3.083   6.327   8.906  0.2046  0.1728  0.1523
10595SOL    HW132363   3.168   6.302   8.870  1.2801  1.2807  1.7369
10595SOL    HW232364   3.056   6.251   8.958  0.9317  0.3221  0.7734
10596SOL     OW32365   5.047   7.820   8.045  0.4703  0.1088 -0.2374
10596SOL    HW132366   5.003   7.736   8.036  0.0882  0.2877 -0.0912
10596SOL    HW232367   5.068   7.826   8.138  2.1815 -0.6444 -0.5364
10597SOL     OW32368   8.628   5.300   6.051  0.5682 -0.3642  0.4682
10597SOL    HW132369   8.583   5.335   5.974  0.5394  0.0123  0.6559
10597SOL    HW232370   8.590   5.212   6.063  0.3487 -0.3007  0.2393
10598SOL     OW32371   1.747   0.418   0.899  0.5663 -0.1612 -0.1906
10598SOL    HW132372   1.734   0.511   0.882 -0.7045 -0.3262 -0.2091
10598SOL    HW232373   1.680   0.396   0.964  0.2279 -1.2626 -0.8822
10599SOL     OW32374   4.471   3.297   9.329  0.9403  0.0089 -0.7941
10599SOL    HW132375   4.446   3.297   9.237 -2.9678 -3.1508 -0.0022
10599SOL    HW232376   4.536   3.227   9.336  0.9419 -0.0193 -1.0922
10600SOL     OW32377   3.726   9.511   2.115 -0.2461 -0.1908 -0.0891
10600SOL    HW132378   3.796   9.446   2.123 -0.1213  0.0199  0.6365
10600SOL    HW232379   3.769   9.591   2.086 -0.1718 -0.0464  0.4095
10601SOL     OW32380   0.167   1.867   5.119  0.2534  0.3902  0.1510
10601SOL    HW132381   0.207   1.881   5.033 -0.9347 -1.1156 -0.7000
10601SOL    HW232382   0.210   1.930   5.176  2.1658  0.3955 -1.2050
10602SOL     OW32383   3.083   4.021   8.538  0.2834 -0.4989  0.4055
10602SOL    HW132384   2.990   4.003   8.529  0.1043  1.0117 -1.2588
10602SOL    HW232385   3.097   4.102   8.489  2.7823 -1.6352 -0.9439
10603SOL     OW32386   0.647   2.210   8.582  0.3758 -0.2162  0.4064
10603SOL    HW132387   0.622   2.150   8.512  0.6929 -1.3396  1.2377
10603SOL    HW232388   0.650   2.156   8.661  1.9157  0.6094  0.9640
10604SOL     OW32389   2.990   0.120   3.609 -0.3597  0.5315  0.1432
10604SOL    HW132390   3.084   0.111   3.594 -0.6336 -0.6485 -1.0295
10604SOL    HW232391   2.981   0.202   3.658  0.9851  2.8406 -3.0856
10605SOL     OW32392   1.686   5.308   9.661  0.0977  0.5856 -0.0295
10605SOL    HW132393   1.779   5.305   9.685  0.8472 -0.7913 -2.6272
10605SOL    HW232394   1.682   5.260   9.578 -2.7350  1.8038 -0.7023
10606SOL     OW32395   1.794   5.539   2.156  0.3373 -0.1144 -0.1166
10606SOL    HW132396   1.845   5.476   2.106 -0.0696 -0.0236 -0.6515
10606SOL    HW232397   1.766   5.604   2.092 -0.9779 -0.4979  0.0329
10607SOL     OW32398   6.019   1.216   6.923  0.0956  0.1095  0.2349
10607SOL    HW132399   6.112   1.221   6.946  0.3333  0.7559 -0.8082
10607SOL    HW232400   5.985   1.144   6.976  0.7125  1.1956  2.1936
10608SOL     OW32401   0.803   5.044   2.088  0.4229  0.4365 -0.3474
10608SOL    HW132402   0.787   5.135   2.115 -1.5789 -0.0127  0.1648
10608SOL    HW232403   0.726   4.997   2.119  2.1665 -1.7746  0.9124
10609SOL     OW32404   3.393   9.810   3.031 -0.3465 -0.3253  0.5145
10609SOL    HW132405   3.452   9.735   3.022 -0.9242 -0.5872 -1.5307
10609SOL    HW232406   3.306   9.772   3.037 -0.5454  0.1451  0.6613
10610SOL     OW32407   7.956   9.039   8.353 -0.1308  0.0746 -0.0077
10610SOL    HW132408   8.024   9.090   8.308  0.4348  1.1733  1.9870
10610SOL    HW232409   7.972   8.948   8.325  0.7693  0.5958 -1.2588
10611SOL     OW32410   7.248   3.375   5.682  0.0581  0.2934 -0.1001
10611SOL    HW132411   7.196   3.426   5.743  0.7842  0.9257  0.0026
10611SOL    HW232412   7.333   3.418   5.680  0.8029 -1.0930  0.2305
10612SOL     OW32413   1.812   1.923   4.793 -0.0588  0.1812 -0.4920
10612SOL    HW132414   1.806   1.872   4.713  1.1769 -0.4213 -0.2226
10612SOL    HW232415   1.746   1.886   4.851  2.0420 -2.4935  0.4070
10613SOL     OW32416   3.638   9.296   8.561 -0.5440  0.4082  0.4743
10613SOL    HW132417   3.683   9.219   8.527 -1.4808  0.0336  0.0581
10613SOL    HW232418   3.557   9.262   8.599 -0.8111  1.1463  0.5850
10614SOL     OW32419   8.007   6.908   5.102 -0.4186 -0.4122 -0.2459
10614SOL    HW132420   8.019   6.820   5.067 -2.6385 -1.8902  2.3864
10614SOL    HW232421   8.090   6.928   5.146  0.3605 -0.8129 -1.4607
10615SOL     OW32422   3.459   1.538   9.090 -0.1514 -0.3823 -0.3967
10615SOL    HW132423   3.427   1.593   9.161  0.9055 -1.1847  0.7452
10615SOL    HW232424   3.380   1.499   9.052 -0.7548  0.3124  0.1251
10616SOL     OW32425   1.989   9.539   3.979  0.0884  0.2219  0.1459
10616SOL    HW132426   1.948   9.622   4.002  0.4655 -0.0078  1.7402
10616SOL    HW232427   1.958   9.477   4.046  1.9988 -0.2543  0.6375
10617SOL     OW32428   7.129   6.158   5.700 -0.3301  0.4546  0.5031
10617SOL    HW132429   7.046   6.193   5.667  0.0620  0.4448 -0.5387
10617SOL    HW232430   7.111   6.066   5.716 -0.5078  0.4376  0.2223
10618SOL     OW32431   6.709   6.820   0.947  0.7147  0.8039 -0.1462
10618SOL    HW132432   6.634   6.821   1.006 -0.3308 -1.5794 -1.3069
10618SOL    HW232433   6.785   6.812   1.004 -0.1353  0.4355  0.9621
10619SOL     OW32434   4.957   8.107   3.806  0.2703 -0.9119  1.2495
10619SOL    HW132435   4.883   8.168   3.806  1.1846  0.2514  0.4123
10619SOL    HW232436   4.918   8.022   3.828 -1.0874 -0.0998  2.1667
10620SOL     OW32437   4.881   1.740   4.370 -0.1175  0.1936 -0.2610
10620SOL    HW132438   4.922   1.687   4.438 -0.5302 -0.1411 -0.2649
10620SOL    HW232439   4.826   1.678   4.321 -1.4214  0.7952  0.3776
10621SOL     OW32440   6.845   6.565   4.320  0.1030  0.0778  0.4454
10621SOL    HW132441   6.839   6.582   4.226 -0.7783 -2.1555  0.0363
10621SOL    HW232442   6.937   6.581   4.341  0.1627  1.3104 -0.6193
10622SOL     OW32443   0.738   2.171   2.960 -0.2625  0.0143 -0.2766
10622SOL    HW132444   0.712   2.210   3.044  0.1969  0.7363 -0.4550
10622SOL    HW232445   0.766   2.246   2.907 -0.7501 -0.4131 -1.1534
10623SOL     OW32446   3.726   1.915   2.135 -0.5009  0.3105  0.0086
10623SOL    HW132447   3.651   1.889   2.189  0.2491 -1.1622  0.3876
10623SOL    HW232448   3.803   1.899   2.190  0.2373 -0.4760 -1.1881
10624SOL     OW32449   0.642   6.151   7.148 -0.4135  0.1643 -0.4860
10624SOL    HW132450   0.698   6.194   7.083 -0.0708  1.9245  0.8737
10624SOL    HW232451   0.561   6.202   7.147 -0.6665 -0.2238 -0.0236
10625SOL     OW32452   1.860   1.800   9.583 -0.1119  0.2538 -0.4190
10625SOL    HW132453   1.890   1.746   9.510 -0.0726 -0.2985 -0.0001
10625SOL    HW232454   1.906   1.883   9.571  0.9081 -0.2741 -0.2881
10626SOL     OW32455   6.153   5.675   6.826 -0.0438  0.1090  0.1309
10626SOL    HW132456   6.162   5.622   6.747  0.3341 -2.1005  1.5786
10626SOL    HW232457   6.234   5.725   6.830 -0.3122  0.7041 -1.1512
10627SOL     OW32458   8.378   5.994   0.957 -0.3850 -0.2972  0.5213
10627SOL    HW132459   8.416   5.979   0.871 -1.6793 -0.3215 -0.0704
10627SOL    HW232460   8.441   6.051   1.002  0.5962 -0.7841 -0.2068
10628SOL     OW32461   9.079   1.171   8.167 -0.8221 -0.2325 -0.1469
10628SOL    HW132462   9.167   1.157   8.203  0.1621  2.1501 -1.3621
10628SOL    HW232463   9.053   1.257   8.200 -1.9775 -0.1627 -1.1519
10629SOL     OW32464   2.627   0.998   5.281 -0.4831 -0.2238  0.3375
10629SOL    HW132465   2.608   1.091   5.294  1.5640  0.3130 -0.1890
10629SOL    HW232466   2.656   0.992   5.190  0.7111 -1.1382  0.7628
10630SOL     OW32467   0.985   7.997   6.011 -0.2239  0.1671 -0.0283
10630SOL    HW132468   0.902   7.981   5.967 -0.9215  3.1315  0.0457
10630SOL    HW232469   0.989   7.931   6.081 -1.1073 -1.8370 -1.7458
10631SOL     OW32470   5.399   8.526   1.433 -0.0976 -0.5192  0.8925
10631SOL    HW132471   5.371   8.438   1.409  0.5778 -0.5112  0.0505
10631SOL    HW232472   5.394   8.527   1.529 -2.0108 -0.8140  0.8243
10632SOL     OW32473   0.806   9.068   7.715  0.1233 -0.3086  0.1300
10632SOL    HW132474   0.829   8.996   7.773 -2.2538 -0.6592  0.7515
10632SOL    HW232475   0.860   9.055   7.637 -1.0125 -3.4574 -0.2570
10633SOL     OW32476   2.926   2.266   2.340  0.0382 -0.7218 -0.3450
10633SOL    HW132477   2.994   2.302   2.397 -0.9716  0.2786  0.2486
10633SOL    HW232478   2.878   2.205   2.396 -0.2709 -0.5550 -0.4277
10634SOL     OW32479   5.576   1.516   5.293 -0.4966 -0.2167 -0.3362
10634SOL    HW132480   5.566   1.452   5.363  1.4846 -1.3548 -1.0257
10634SOL    HW232481   5.486   1.540   5.270 -1.2206 -1.0683  1.4255
10635SOL     OW32482   0.083   0.640   7.174 -0.2270  0.1317  0.4972
10635SOL    HW132483   0.125   0.696   7.108 -0.8436 -1.4626 -1.3504
10635SOL    HW232484  -0.010   0.651   7.159 -0.3603 -1.3833  0.0572
10636SOL     OW32485   7.055   5.206   6.049  0.0468 -0.4555  0.4042
10636SOL    HW132486   7.124   5.218   5.984 -0.4218  0.8479  0.1117
10636SOL    HW232487   6.986   5.158   6.003  0.4169 -1.0667  0.4687
10637SOL     OW32488   8.565   3.349   4.873 -0.7762  0.2306 -0.0464
10637SOL    HW132489   8.546   3.361   4.966  1.1048  0.5917  0.3309
10637SOL    HW232490   8.577   3.254   4.863 -1.2337  0.1630  0.0088
10638SOL     OW32491   3.886   1.897   8.869  0.2791  0.2056  0.4657
10638SOL    HW132492   3.976   1.925   8.854  0.3994  0.6142  1.8725
10638SOL    HW232493   3.889   1.802   8.861  0.6720  0.2688 -0.2428
10639SOL     OW32494   8.362   0.019   8.473 -0.1349 -0.0819  0.1626
10639SOL    HW132495   8.351   0.097   8.527 -2.1876  0.9932 -1.6306
10639SOL    HW232496   8.457   0.003   8.474  0.2442  1.8366  1.3976
10640SOL     OW32497   8.458   3.759   7.019  0.3392  0.3166  0.6874
10640SOL    HW132498   8.397   3.812   7.070 -0.4918 -0.9373  1.0596
10640SOL    HW232499   8.434   3.669   7.040  2.5152 -0.2256  1.0530
10641SOL     OW32500   5.210   9.190   5.819  0.1949  0.5364  0.1993
10641SOL    HW132501   5.184   9.117   5.875 -0.1133  0.0911 -0.5201
10641SOL    HW232502   5.169   9.267   5.860  0.5113  0.3144  0.9486
10642SOL     OW32503   1.065   7.412   7.953  0.5256  0.6257  0.5662
10642SOL    HW132504   0.981   7.376   7.982  0.5912  0.8575  1.0654
10642SOL    HW232505   1.044   7.459   7.872  0.0383  1.2566  1.0467
10643SOL     OW32506   9.574   2.481   5.786  0.2204  0.2144  0.1407
10643SOL    HW132507   9.564   2.556   5.845  1.3322 -1.6775  2.9486
10643SOL    HW232508   9.669   2.474   5.772  0.3595 -1.7906  1.6525
10644SOL     OW32509   1.808   2.208   1.958 -0.1099  0.0974  0.3050
10644SOL    HW132510   1.862   2.179   2.032 -1.0204 -1.0156  0.5590
10644SOL    HW232511   1.789   2.127   1.909 -0.5534  0.6425 -0.4411
10645SOL     OW32512   2.012   3.558   6.679  0.0880  0.2435 -0.3542
10645SOL    HW132513   2.015   3.591   6.589  0.3051  1.4008  0.0622
10645SOL    HW232514   1.920   3.535   6.693  0.1450 -0.4045 -1.0291
10646SOL     OW32515   7.402   1.943   3.673  0.2246 -0.2144  0.6265
10646SOL    HW132516   7.436   2.018   3.723  0.7364 -1.1176  1.6827
10646SOL    HW232517   7.319   1.973   3.638  1.3547  1.5659 -0.7403
10647SOL     OW32518   6.495   8.406   5.399  0.1022  0.1617  0.1553
10647SOL    HW132519   6.507   8.498   5.423 -1.5594  0.2540  0.7581
10647SOL    HW232520   6.526   8.401   5.309  0.5651  1.2286  0.2307
10648SOL     OW32521   7.529   6.241   6.378  0.5987 -0.0016  0.1524
10648SOL    HW132522   7.497   6.271   6.293 -0.4305  2.0971  1.1917
10648SOL    HW232523   7.580   6.315   6.413  3.4052 -1.8271  0.2504
10649SOL     OW32524   5.493   8.414   9.747  0.5322  0.0964  0.6377
10649SOL    HW132525   5.496   8.414   9.843 -0.9995  0.0947  0.7011
10649SOL    HW232526   5.450   8.332   9.724  0.4143  0.3415 -0.0326
10650SOL     OW32527   9.298   9.718   0.439 -0.5555  0.4001  0.1939
10650SOL    HW132528   9.208   9.722   0.473 -1.2265 -0.6323 -1.3576
10650SOL    HW232529   9.291   9.669   0.357  1.5405 -0.2571  0.3513
10651SOL     OW32530   9.137   1.643   3.411 -0.4906 -0.1922  0.2745
10651SOL    HW132531   9.188   1.711   3.365 -2.0538  0.4109 -0.6586
10651SOL    HW232532   9.154   1.563   3.362  0.0515 -0.1299  0.3574
10652SOL     OW32533   0.182   1.786   9.480 -0.3590  0.4203 -0.3947
10652SOL    HW132534   0.089   1.772   9.499  0.1251 -1.6434  0.7644
10652SOL    HW232535   0.219   1.820   9.562  0.1330 -0.0712 -0.4034
10653SOL     OW32536   5.990   1.010   1.090  0.7323  0.2861  0.0652
10653SOL    HW132537   6.006   0.932   1.144 -0.8086  0.5263  0.9279
10653SOL    HW232538   5.902   0.997   1.056  0.8486  1.1977 -0.5895
10654SOL     OW32539   7.829   8.977   0.559  0.1973  0.1516 -0.3803
10654SOL    HW132540   7.851   9.050   0.616 -0.2475  0.1209 -0.1636
10654SOL    HW232541   7.910   8.926   0.552  1.1106  1.7000 -2.1209
10655SOL     OW32542   3.652   1.834   3.313 -0.0168 -0.0624  0.4698
10655SOL    HW132543   3.593   1.894   3.359  0.2132 -0.6872  1.6253
10655SOL    HW232544   3.704   1.891   3.256 -0.8336  0.6457  0.4168
10656SOL     OW32545   0.242   0.173   7.545 -0.0758 -0.2434  0.3477
10656SOL    HW132546   0.193   0.114   7.488 -0.1037 -0.8025  0.9314
10656SOL    HW232547   0.245   0.256   7.498 -0.7652 -0.4736 -0.1123
10657SOL     OW32548   8.218   0.512   2.332 -0.6156 -0.0795 -0.1253
10657SOL    HW132549   8.309   0.488   2.348 -0.7574 -0.9317 -0.5765
10657SOL    HW232550   8.207   0.507   2.237 -0.7647  1.4016 -0.2212
10658SOL     OW32551   8.281   6.469   8.686  0.0564 -0.3041 -0.9601
10658SOL    HW132552   8.268   6.534   8.754 -0.7952 -1.3324 -0.1040
10658SOL    HW232553   8.332   6.514   8.619  0.0230  1.0383 -0.1161
10659SOL     OW32554   2.717   0.647   3.675 -0.3060 -0.4877 -0.2034
10659SOL    HW132555   2.803   0.690   3.676 -0.2748 -0.5479 -0.3088
10659SOL    HW232556   2.662   0.702   3.732 -0.2212 -0.4023 -0.2040
10660SOL     OW32557   3.606   3.805   1.154 -0.3670 -0.2891 -0.0983
10660SOL    HW132558   3.546   3.786   1.227 -1.4147  0.4338 -0.7438
10660SOL    HW232559   3.655   3.883   1.184  1.5483 -1.8616  1.1474
10661SOL     OW32560   1.319   6.807   0.347 -0.4485  0.2106  0.2240
10661SOL    HW132561   1.301   6.719   0.382  0.8159  0.1856  0.8675
10661SOL    HW232562   1.235   6.852   0.351 -0.6764 -0.3072  1.8393
10662SOL     OW32563   2.426   6.795   2.711  0.3377  0.4331  0.1667
10662SOL    HW132564   2.477   6.871   2.682  0.5661 -0.0481 -0.7355
10662SOL    HW232565   2.420   6.740   2.633 -2.1823  0.8064  0.0052
10663SOL     OW32566   1.720   4.889   2.695  0.1318 -0.1445  0.6392
10663SOL    HW132567   1.702   4.873   2.603  1.3931  1.6958  0.0278
10663SOL    HW232568   1.812   4.867   2.707  0.8663  2.5702  0.6501
10664SOL     OW32569   0.076   2.911   0.819 -0.2060  0.0466 -0.4025
10664SOL    HW132570   0.127   2.854   0.762  0.5594 -1.9296  2.1048
10664SOL    HW232571   0.099   2.884   0.908 -2.8589  1.6071  0.8862
10665SOL     OW32572   7.702   5.492   9.355 -0.4063  0.2103  0.3093
10665SOL    HW132573   7.689   5.535   9.270 -1.0130  1.2840  0.9321
10665SOL    HW232574   7.656   5.408   9.346  1.1897 -0.5742 -1.0811
10666SOL     OW32575   1.703   3.276   7.662 -0.2567 -0.1146 -0.3706
10666SOL    HW132576   1.768   3.208   7.644 -0.8826 -0.7746 -0.1829
10666SOL    HW232577   1.670   3.299   7.575 -0.9983 -1.0248 -0.3515
10667SOL     OW32578   4.903   5.471   2.306 -0.4917 -0.0867  0.0031
10667SOL    HW132579   4.842   5.448   2.236 -0.7268 -1.0508  0.5048
10667SOL    HW232580   4.975   5.408   2.296 -0.2551  0.1387  0.2698
10668SOL     OW32581   2.061   4.833   7.909 -0.3577  0.1856  0.0615
10668SOL    HW132582   2.014   4.891   7.969 -2.4670  0.3437 -1.6195
10668SOL    HW232583   2.153   4.850   7.926 -0.8615  0.6632  2.7851
10669SOL     OW32584   0.070   4.830   1.308  0.5094  0.5832  0.0283
10669SOL    HW132585   0.134   4.900   1.316  0.1071  0.9251  0.3106
10669SOL    HW232586   0.052   4.803   1.399  1.5298 -0.7004 -0.1105
10670SOL     OW32587   8.213   8.921   3.465 -0.2826  0.3715 -0.0754
10670SOL    HW132588   8.296   8.957   3.497 -1.5549  1.3760  2.3745
10670SOL    HW232589   8.204   8.957   3.376  2.4886 -0.9214 -1.0065
10671SOL     OW32590   3.037   3.620   1.778  0.3676  0.0220  0.5796
10671SOL    HW132591   3.060   3.528   1.791  1.5888  0.5062  2.1236
10671SOL    HW232592   2.957   3.631   1.829 -0.1213 -0.3034 -0.0972
10672SOL     OW32593   3.864   8.230   7.383 -0.5389  0.0317  0.4682
10672SOL    HW132594   3.792   8.191   7.434 -0.2549 -0.4136  0.5395
10672SOL    HW232595   3.827   8.244   7.296 -0.4270 -1.1756  0.1984
10673SOL     OW32596   9.615   6.560   2.089 -0.3716 -0.1306 -0.3397
10673SOL    HW132597   9.603   6.564   2.184 -0.0281  0.3890 -0.3158
10673SOL    HW232598   9.531   6.528   2.056 -0.7580  0.4226  0.0806
10674SOL     OW32599   2.364   7.597   5.955 -0.2331 -0.0991 -0.1022
10674SOL    HW132600   2.294   7.547   5.913 -2.2397  1.7312  0.8690
10674SOL    HW232601   2.331   7.687   5.956  2.5226  1.0171 -0.3373
10675SOL     OW32602   0.945   6.311   8.506  0.2921  1.1479 -0.0829
10675SOL    HW132603   1.024   6.293   8.558  0.5776 -0.3095 -0.9577
10675SOL    HW232604   0.908   6.389   8.546 -0.0762 -0.4552  3.0417
10676SOL     OW32605   2.310   6.500   4.762  0.1165 -0.1878 -0.1048
10676SOL    HW132606   2.375   6.569   4.773  1.1937 -0.8384 -1.8574
10676SOL    HW232607   2.335   6.433   4.826  0.0560  0.3350  0.4756
10677SOL     OW32608   7.421   7.338   9.287 -0.1008 -0.2167 -0.3661
10677SOL    HW132609   7.338   7.362   9.327 -0.2171  2.4213 -2.0304
10677SOL    HW232610   7.453   7.418   9.246  1.8823 -1.8318 -2.2282
10678SOL     OW32611   0.109   7.448   2.070 -0.1591  0.1621  0.4417
10678SOL    HW132612   0.181   7.450   2.007 -1.5555  0.0842 -1.2516
10678SOL    HW232613   0.109   7.360   2.106  0.6912  0.2240  0.5996
10679SOL     OW32614   2.113   1.330   3.608 -0.2869  0.5506 -0.3496
10679SOL    HW132615   2.120   1.402   3.545  0.1564  2.4381  1.7557
10679SOL    HW232616   2.027   1.293   3.592 -0.2033  0.9939 -2.0353
10680SOL     OW32617   7.131   5.555   2.773  0.2207 -0.2809 -0.6047
10680SOL    HW132618   7.125   5.614   2.698 -1.4812  1.8353  1.0535
10680SOL    HW232619   7.082   5.477   2.746  1.5100 -0.5256 -2.4219
10681SOL     OW32620   2.846   2.720   7.979 -0.0332 -0.2133  0.1822
10681SOL    HW132621   2.847   2.669   8.059  0.3926 -0.2145  0.1747
10681SOL    HW232622   2.934   2.756   7.971 -0.2724  0.3716  0.0894
10682SOL     OW32623   6.115   7.696   4.324 -0.9720  0.1928  0.6507
10682SOL    HW132624   6.070   7.753   4.386 -2.2938  0.6650 -0.6949
10682SOL    HW232625   6.047   7.666   4.265  0.3905  0.6247 -1.2410
10683SOL     OW32626   5.808   9.418   5.388 -0.0287  0.0586 -0.1046
10683SOL    HW132627   5.819   9.327   5.415 -1.4368  0.2420  1.2312
10683SOL    HW232628   5.778   9.463   5.467 -1.9875  1.1364 -1.3852
10684SOL     OW32629   1.640   6.432   1.395  0.9662 -0.4000  0.3686
10684SOL    HW132630   1.706   6.365   1.413  0.3992 -0.2247  3.5968
10684SOL    HW232631   1.684   6.515   1.412  1.0293  0.0095 -1.5110
10685SOL     OW32632   8.840   6.698   8.279  0.0522  0.5236  0.3612
10685SOL    HW132633   8.830   6.642   8.356 -2.2509 -2.6959 -2.0311
10685SOL    HW232634   8.755   6.740   8.268 -0.2790 -0.5167 -1.3766
10686SOL     OW32635   5.455   5.719   9.082  0.0140 -0.2053 -0.4631
10686SOL    HW132636   5.430   5.659   9.151  2.1914 -0.6019  0.0525
10686SOL    HW232637   5.432   5.806   9.116 -3.9624 -0.6231 -1.5669
10687SOL     OW32638   6.631   1.562   7.417 -0.3949 -0.0485 -0.5023
10687SOL    HW132639   6.655   1.648   7.382  0.3256 -0.1602 -0.2942
10687SOL    HW232640   6.604   1.580   7.507  0.2484 -0.1048 -0.2955
10688SOL     OW32641   3.070   6.332   9.747 -0.0548 -0.1869 -0.0230
10688SOL    HW132642   3.116   6.365   9.824 -0.5088 -0.6321  0.4441
10688SOL    HW232643   3.137   6.284   9.698  0.6635  1.5234 -0.8049
10689SOL     OW32644   5.578   6.091   8.221 -0.1860  0.0377  0.1601
10689SOL    HW132645   5.577   6.042   8.303  0.2131 -1.0475 -0.4695
10689SOL    HW232646   5.510   6.158   8.232  0.3918  0.4206  1.6675
10690SOL     OW32647   6.463   0.926   9.107 -0.1675 -0.0312  0.2025
10690SOL    HW132648   6.503   1.010   9.131  0.1525  0.0929 -0.7165
10690SOL    HW232649   6.533   0.862   9.118 -0.5706 -0.2927  1.4656
10691SOL     OW32650   4.167   9.489   7.887  0.6654  0.2006  0.3191
10691SOL    HW132651   4.189   9.400   7.860  1.8101  0.4959  0.1885
10691SOL    HW232652   4.072   9.494   7.881  0.6990 -0.4805 -1.4171
10692SOL     OW32653   1.265   2.588   8.294  0.9826  0.5429  0.5310
10692SOL    HW132654   1.272   2.673   8.337  0.7471  1.1752 -0.6442
10692SOL    HW232655   1.355   2.564   8.274  0.9476  1.3815 -0.7396
10693SOL     OW32656   6.340   1.511   0.582  0.3430 -0.3360  0.4213
10693SOL    HW132657   6.279   1.450   0.541 -1.1569 -0.0298  2.0745
10693SOL    HW232658   6.329   1.497   0.676  2.2292  0.3422  0.7968
10694SOL     OW32659   9.586   2.634   1.907  0.4885  0.2906 -0.4197
10694SOL    HW132660   9.619   2.653   1.819 -0.5630  1.5669 -0.5617
10694SOL    HW232661   9.632   2.696   1.964 -1.0327  1.5712 -0.5196
10695SOL     OW32662   5.046   3.734   7.201  0.6673 -0.5128  0.3567
10695SOL    HW132663   5.088   3.801   7.256  1.1512 -0.7238  0.2505
10695SOL    HW232664   4.952   3.745   7.218  0.5227  1.8402 -1.5152
10696SOL     OW32665   4.640   1.220   0.904 -0.0206  0.2149  0.4662
10696SOL    HW132666   4.709   1.170   0.860 -1.6355 -2.0737  0.3320
10696SOL    HW232667   4.643   1.191   0.995 -0.7833  0.1017  0.4605
10697SOL     OW32668   6.006   6.428   0.454 -0.1234 -0.2529  0.5304
10697SOL    HW132669   5.956   6.360   0.500 -1.4145  0.3700  0.0744
10697SOL    HW232670   6.094   6.392   0.448 -0.2935 -1.0194  2.1085
10698SOL     OW32671   6.104   1.767   8.887 -0.5137 -0.7753  0.2467
10698SOL    HW132672   6.015   1.800   8.901 -0.0802  1.7811 -2.2871
10698SOL    HW232673   6.160   1.844   8.896  1.5532 -2.3587  1.9566
10699SOL     OW32674   2.372   1.114   9.657  0.8989  0.3595 -0.1191
10699SOL    HW132675   2.283   1.140   9.636  1.1344  0.6600 -0.7612
10699SOL    HW232676   2.362   1.030   9.701  0.4303 -0.9357 -2.5145
10700SOL     OW32677   1.871   2.304   8.236  0.1793 -0.1543  0.0095
10700SOL    HW132678   1.963   2.281   8.239  0.1808 -0.4090 -1.2638
10700SOL    HW232679   1.836   2.255   8.161 -1.1300 -0.5677  0.8525
10701SOL     OW32680   0.434   9.794   8.575  0.3428 -0.3411 -0.0528
10701SOL    HW132681   0.526   9.799   8.548  0.3478  0.5016  0.1138
10701SOL    HW232682   0.389   9.860   8.522 -0.2951 -1.1982 -0.6134
10702SOL     OW32683   6.733   0.667   2.703 -0.1614  0.1323  0.3041
10702SOL    HW132684   6.776   0.634   2.782  0.4388 -1.2506 -0.5651
10702SOL    HW232685   6.734   0.762   2.713  3.0159  0.2002  0.4007
10703SOL     OW32686   5.899   0.142   7.599 -0.6460 -0.1502  0.3695
10703SOL    HW132687   5.836   0.179   7.660 -0.7580  1.3621 -0.6099
10703SOL    HW232688   5.850   0.131   7.518  0.2115  0.6308 -0.2744
10704SOL     OW32689   2.451   9.542   2.183 -0.3302 -0.1741 -0.1803
10704SOL    HW132690   2.461   9.598   2.106 -0.0087  0.9858  0.6627
10704SOL    HW232691   2.533   9.494   2.189 -1.2315 -2.0917 -1.8769
10705SOL     OW32692   9.843   6.848   4.379 -0.5367 -0.4422  0.3954
10705SOL    HW132693   9.797   6.911   4.434 -0.0807  1.5136 -1.3627
10705SOL    HW232694   9.791   6.768   4.386 -3.1024  1.0830  0.0872
10706SOL     OW32695   5.258   7.946   6.018  0.4562 -0.2333 -0.2987
10706SOL    HW132696   5.345   7.961   5.980  0.3802 -0.8357 -0.7325
10706SOL    HW232697   5.275   7.902   6.101  0.6157  0.9292  0.3157
10707SOL     OW32698   0.860   1.171   4.446  0.6310 -0.0065  0.1230
10707SOL    HW132699   0.841   1.263   4.425 -1.5487 -0.3607  0.2768
10707SOL    HW232700   0.937   1.175   4.502 -0.5607  1.9332  1.7820
10708SOL     OW32701   1.730   5.031   2.924  0.0773  0.0821 -0.0727
10708SOL    HW132702   1.814   5.075   2.915 -1.1797  2.3407 -2.2297
10708SOL    HW232703   1.710   4.998   2.836 -1.7589  0.6752  0.0596
10709SOL     OW32704   6.636   6.258   0.484  0.5608  0.1302  0.3199
10709SOL    HW132705   6.706   6.321   0.471  1.4138 -0.3650  2.1075
10709SOL    HW232706   6.646   6.230   0.575 -2.5839  0.8092  0.9995
10710SOL     OW32707   4.493   2.779   9.236 -0.8443  0.3585 -0.1755
10710SOL    HW132708   4.473   2.736   9.153 -2.3797 -0.8509  0.7622
10710SOL    HW232709   4.589   2.775   9.243 -0.7251  0.1249 -1.6813
10711SOL     OW32710   0.096   5.301   3.155  0.8457 -0.2987  0.1203
10711SOL    HW132711   0.073   5.221   3.107 -1.0121  2.2914 -3.9214
10711SOL    HW232712   0.181   5.327   3.120  1.2154 -0.2251  1.0502
10712SOL     OW32713   3.704   7.724   9.562 -0.1497  0.5047 -0.3315
10712SOL    HW132714   3.656   7.697   9.639 -0.9402 -0.1830 -1.0439
10712SOL    HW232715   3.740   7.810   9.584 -1.9121  1.1560  0.1492
10713SOL     OW32716   1.481   9.597   1.874  0.2458 -0.2883 -0.1643
10713SOL    HW132717   1.451   9.527   1.932  1.6091 -0.5396  0.2681
10713SOL    HW232718   1.572   9.612   1.900  0.2282  1.0678 -0.8179
10714SOL     OW32719   3.100   2.721   8.479  0.7729  0.4752 -0.1926
10714SOL    HW132720   3.090   2.671   8.560  0.5403  0.0979 -0.4550
10714SOL    HW232721   3.098   2.812   8.507 -2.1201  0.4440 -0.0569
10715SOL     OW32722   3.029   5.335   4.634 -0.1035  0.1882  0.5270
10715SOL    HW132723   3.044   5.243   4.655 -0.9400 -0.3276 -1.0270
10715SOL    HW232724   3.081   5.351   4.555  0.1717  1.1111  0.8795
10716SOL     OW32725   9.915   2.157   9.559  0.1750 -0.3547  0.0963
10716SOL    HW132726   9.894   2.248   9.579  1.7184  0.3218 -1.1297
10716SOL    HW232727   9.851   2.132   9.492  1.1646  0.6355 -1.2836
10717SOL     OW32728   7.193   7.447   8.660  0.2441 -0.5258  0.2502
10717SOL    HW132729   7.177   7.356   8.686 -0.9065 -0.5660 -0.5110
10717SOL    HW232730   7.187   7.446   8.565  3.9083 -0.3123 -0.1393
10718SOL     OW32731   8.786   0.031   9.834 -0.1438 -0.2943 -0.2165
10718SOL    HW132732   8.820   0.028   9.745 -0.0830  1.3956 -0.2780
10718SOL    HW232733   8.713  -0.031   9.833 -0.3653 -0.0562 -1.5502
10719SOL     OW32734   8.718   5.818   9.812  0.0272 -0.2587  0.7334
10719SOL    HW132735   8.660   5.865   9.871 -0.3085  0.6952 -0.3158
10719SOL    HW232736   8.798   5.871   9.808  0.3452 -0.7083  0.8982
10720SOL     OW32737   7.106   0.044   0.881 -0.2259  0.0893  0.2662
10720SOL    HW132738   7.109  -0.048   0.854 -1.3257 -0.4586  1.8603
10720SOL    HW232739   7.150   0.045   0.966 -1.0448  0.8649  0.6938
10721SOL     OW32740   4.126   5.486   4.597  0.8045 -0.0367  0.0864
10721SOL    HW132741   4.076   5.541   4.536 -1.0896 -2.3192 -0.5510
10721SOL    HW232742   4.089   5.507   4.683  2.0113  1.6379  0.2354
10722SOL     OW32743   7.131   1.390   6.800  0.2556  0.3887 -0.3183
10722SOL    HW132744   7.097   1.410   6.887 -1.4964  0.1657 -0.9062
10722SOL    HW232745   7.091   1.456   6.743  0.3770 -0.2253 -1.1389
10723SOL     OW32746   3.596   7.617   7.653 -0.1827  0.2553 -0.0961
10723SOL    HW132747   3.622   7.544   7.709 -1.2424 -0.0873 -0.0281
10723SOL    HW232748   3.504   7.600   7.633 -0.1255  0.9559 -1.0376
10724SOL     OW32749   6.280   1.137   1.698 -0.1267  0.5470  0.2065
10724SOL    HW132750   6.212   1.112   1.760  0.8517 -0.5764  0.8499
10724SOL    HW232751   6.301   1.057   1.651 -0.5632  1.2928 -1.3401
10725SOL     OW32752   7.116   8.236   3.244  0.4429  0.3401  0.1260
10725SOL    HW132753   7.068   8.155   3.261  1.6659 -0.2816  0.6888
10725SOL    HW232754   7.194   8.209   3.197 -0.9741  1.6251 -3.3448
10726SOL     OW32755   0.407   8.997   3.173  0.3645 -0.3986 -0.2577
10726SOL    HW132756   0.336   9.043   3.219  2.2194  0.7223  1.7359
10726SOL    HW232757   0.447   9.065   3.118  1.8799 -0.0530  1.1780
10727SOL     OW32758   1.403   2.513   2.666  0.0284 -0.0081  1.3359
10727SOL    HW132759   1.391   2.533   2.759 -0.5228  0.1355  1.2323
10727SOL    HW232760   1.422   2.419   2.664 -1.1392 -0.2591  1.4957
10728SOL     OW32761   0.800   0.291   8.787 -0.2070 -0.5201 -0.3809
10728SOL    HW132762   0.717   0.320   8.826 -0.6285  0.1748 -1.7289
10728SOL    HW232763   0.849   0.254   8.861 -0.9641  0.7139  0.8037
10729SOL     OW32764   5.307   8.985   1.043  0.1762 -0.8823  0.2148
10729SOL    HW132765   5.277   8.916   0.983 -1.1651 -1.2710  1.2627
10729SOL    HW232766   5.388   9.018   1.004 -0.8734 -0.7787 -2.0508
10730SOL     OW32767   8.370   1.024   8.289 -0.9183  0.2329  0.4504
10730SOL    HW132768   8.325   1.064   8.364  0.6884  0.1370  1.5002
10730SOL    HW232769   8.363   0.930   8.305  1.3277  0.2078  1.7334
10731SOL     OW32770   7.104   7.341   2.639  0.2713  0.0648 -0.2414
10731SOL    HW132771   7.117   7.436   2.638 -1.6089  0.3465 -1.0333
10731SOL    HW232772   7.178   7.306   2.590  1.7466  0.9724  1.2149
10732SOL     OW32773   2.430   3.746   9.589  0.4534 -0.4184  0.0628
10732SOL    HW132774   2.342   3.767   9.621  0.2468  0.7023 -1.1880
10732SOL    HW232775   2.423   3.750   9.494  1.7582 -0.7460 -0.0640
10733SOL     OW32776   8.375   6.135   4.395  0.1437 -0.2979 -0.2882
10733SOL    HW132777   8.409   6.051   4.427 -0.1494  0.5137  2.3978
10733SOL    HW232778   8.284   6.117   4.373  0.2847 -0.8469 -0.4420
10734SOL     OW32779   2.426   6.173   1.762 -0.0237  0.1965  0.0702
10734SOL    HW132780   2.473   6.097   1.726 -0.9732 -0.2249 -0.3101
10734SOL    HW232781   2.336   6.143   1.772 -0.4282  1.3022 -0.1449
10735SOL     OW32782   9.765   8.356   3.561  0.6910 -0.0717 -0.2883
10735SOL    HW132783   9.803   8.335   3.646 -0.3002 -0.2423  0.1251
10735SOL    HW232784   9.804   8.440   3.537 -2.1531  2.1896  2.3380
10736SOL     OW32785   0.768   2.790   5.269 -0.5342  0.0627 -0.2579
10736SOL    HW132786   0.703   2.739   5.220  0.6178 -0.4536 -1.3255
10736SOL    HW232787   0.813   2.841   5.202  0.2542  0.2859  0.4344
10737SOL     OW32788   8.852   9.546   0.269  0.0460  0.2509  0.1059
10737SOL    HW132789   8.942   9.512   0.270 -0.7401 -2.3171 -2.5601
10737SOL    HW232790   8.804   9.489   0.329 -0.6457 -1.5582 -2.0277
10738SOL     OW32791   4.118   6.651   1.192  0.5691 -0.4816  0.6491
10738SOL    HW132792   4.178   6.602   1.137 -0.1190  0.5364 -1.0965
10738SOL    HW232793   4.046   6.590   1.210  0.8910 -0.8817  0.5732
10739SOL     OW32794   4.957   9.051   0.718  0.0534 -0.2360  0.2713
10739SOL    HW132795   4.965   9.136   0.675 -0.6547  0.4590  1.4725
10739SOL    HW232796   5.000   8.990   0.658 -0.5143  0.7566 -1.2065
10740SOL     OW32797   0.443   5.418   2.733  0.2059 -0.0270 -0.5867
10740SOL    HW132798   0.527   5.393   2.771  0.7363  1.4102 -0.7454
10740SOL    HW232799   0.410   5.486   2.791  0.0289  0.7051 -1.5258
10741SOL     OW32800   6.678   2.125   1.339  0.5769  0.3411 -0.1913
10741SOL    HW132801   6.593   2.161   1.363  0.3670  0.4424 -1.0501
10741SOL    HW232802   6.710   2.182   1.270  1.2546  0.1803 -0.0222
10742SOL     OW32803   3.839   2.905   5.765 -1.2770 -0.1140 -0.0735
10742SOL    HW132804   3.820   2.989   5.723  1.4737  0.5172 -0.2988
10742SOL    HW232805   3.935   2.902   5.770 -1.2618 -0.7398  4.9476
10743SOL     OW32806   8.163   4.076   1.302  0.2120 -0.3761 -0.5590
10743SOL    HW132807   8.153   4.012   1.232  0.9465 -0.7745 -0.3047
10743SOL    HW232808   8.142   4.160   1.261 -1.5004 -0.8415 -0.7119
10744SOL     OW32809   3.686   6.079   7.271 -0.5986  0.2751  0.4403
10744SOL    HW132810   3.712   6.131   7.347 -1.1571  0.5095  0.4748
10744SOL    HW232811   3.591   6.088   7.268 -0.8160 -1.5256  1.0137
10745SOL     OW32812   8.210   4.585   8.802  0.3881 -0.6089 -0.6273
10745SOL    HW132813   8.260   4.580   8.721  1.6474  1.4851 -0.0501
10745SOL    HW232814   8.275   4.576   8.872 -0.4534 -0.8099  0.1581
10746SOL     OW32815   5.814   3.515   4.482 -0.2643 -0.1203  0.4032
10746SOL    HW132816   5.872   3.472   4.420 -1.9210 -0.3649 -1.0732
10746SOL    HW232817   5.754   3.446   4.511  0.1940  0.0996  1.9558
10747SOL     OW32818   9.824   0.747   8.857  1.0175 -0.0780  0.0298
10747SOL    HW132819   9.778   0.702   8.928  1.1547  0.4861  0.4864
10747SOL    HW232820   9.858   0.827   8.898  0.2564  0.7528 -0.9033
10748SOL     OW32821   8.360   8.764   6.545  0.5051 -0.5573  0.0757
10748SOL    HW132822   8.387   8.673   6.552  0.0807 -1.0076 -2.6893
10748SOL    HW232823   8.429   8.814   6.589 -0.0757 -2.2224  3.1026
10749SOL     OW32824   6.025   9.226   4.193 -0.1755  0.1409  0.1533
10749SOL    HW132825   5.984   9.277   4.263 -0.2849  0.5067 -0.1756
10749SOL    HW232826   5.960   9.161   4.170  0.2502 -0.6530  1.0987
10750SOL     OW32827   7.485   0.903   0.460 -0.4158 -0.3853 -0.3044
10750SOL    HW132828   7.495   0.998   0.450 -0.3727 -0.3450  0.1115
10750SOL    HW232829   7.553   0.866   0.402  0.7083 -0.1366  0.8141
10751SOL     OW32830   6.990   5.347   8.327 -0.0030  0.3776 -0.3826
10751SOL    HW132831   6.960   5.426   8.373  0.1930  0.1990  0.0611
10751SOL    HW232832   6.915   5.288   8.329  0.6421 -0.4349  1.5599
10752SOL     OW32833   3.026   4.310   6.420 -0.3049 -0.3756 -0.5846
10752SOL    HW132834   3.096   4.364   6.454  1.0213 -0.5883 -2.8008
10752SOL    HW232835   3.008   4.345   6.332 -2.1775 -1.0418 -0.5160
10753SOL     OW32836   9.661   3.897   4.704 -0.2453 -0.5200  0.1832
10753SOL    HW132837   9.598   3.923   4.772 -1.0805 -2.2978  0.1589
10753SOL    HW232838   9.734   3.859   4.753  0.1639  0.2338  0.1600
10754SOL     OW32839   3.869   0.814   7.829 -0.3389 -0.3348 -0.1639
10754SOL    HW132840   3.828   0.730   7.810 -0.9525  0.4248 -2.5307
10754SOL    HW232841   3.961   0.802   7.806 -0.2199 -0.5982  0.4145
10755SOL     OW32842   6.377   9.911   6.282  0.3426  0.2404  0.1899
10755SOL    HW132843   6.425   9.860   6.217 -1.1906 -1.1301  0.0671
10755SOL    HW232844   6.435   9.912   6.359  1.8103  1.1860 -0.8760
10756SOL     OW32845   2.094   6.635   0.266  0.1535 -0.0045  0.3752
10756SOL    HW132846   2.029   6.596   0.324  0.2418 -0.0112  0.4704
10756SOL    HW232847   2.085   6.729   0.280  0.5874 -0.0281  0.8520
10757SOL     OW32848   3.145   9.292   2.007 -0.2954  0.5479 -0.1412
10757SOL    HW132849   3.049   9.299   2.000 -0.4567 -1.8446 -1.2001
10757SOL    HW232850   3.167   9.348   2.082 -2.4413  1.5855 -0.1879
10758SOL     OW32851   1.581   5.496   1.753  0.1736  0.0766 -0.0169
10758SOL    HW132852   1.493   5.531   1.768  0.1265  0.1461 -0.4355
10758SOL    HW232853   1.602   5.523   1.664  1.4413  1.8147  0.7441
10759SOL     OW32854   5.376   8.191   9.183  0.4178 -0.3482 -0.5582
10759SOL    HW132855   5.289   8.193   9.142  0.6104 -1.2363 -1.0473
10759SOL    HW232856   5.411   8.105   9.159  1.6146  0.1795 -0.7350
10760SOL     OW32857   7.293   3.231   8.624 -0.4780  0.4243  0.0582
10760SOL    HW132858   7.381   3.244   8.659 -0.5171  0.4691  0.1408
10760SOL    HW232859   7.297   3.263   8.534 -0.3061  0.0574 -0.0661
10761SOL     OW32860   6.096   7.494   6.498  0.0243 -0.8270  0.4346
10761SOL    HW132861   6.008   7.532   6.501  0.5735  0.5866 -0.4332
10761SOL    HW232862   6.089   7.424   6.433 -0.0995  0.3641 -0.8903
10762SOL     OW32863   0.468   2.270   0.781  0.0645  0.7060 -0.5506
10762SOL    HW132864   0.563   2.262   0.783  0.0504 -0.4199 -2.1712
10762SOL    HW232865   0.436   2.191   0.825 -0.0936  0.4298 -1.1390
10763SOL     OW32866   9.321   5.260   5.336  0.6421  0.0604  0.2402
10763SOL    HW132867   9.301   5.219   5.420 -1.1558  1.7272  0.7248
10763SOL    HW232868   9.409   5.295   5.346  0.5869 -0.0765  1.3060
10764SOL     OW32869   2.921   8.675   7.149  0.0533  0.5619  0.0587
10764SOL    HW132870   2.927   8.582   7.171 -2.7726  0.1495 -0.4683
10764SOL    HW232871   2.960   8.682   7.062  0.9921  0.0324  0.4306
10765SOL     OW32872   2.468   0.087   2.024  0.1867 -0.7327 -0.0425
10765SOL    HW132873   2.561   0.105   2.034  0.0097  0.0833  0.2557
10765SOL    HW232874   2.449   0.021   2.091  0.6576 -1.3180 -0.4799
10766SOL     OW32875   6.090   9.517   5.846 -0.2790  0.6734 -0.1705
10766SOL    HW132876   6.031   9.451   5.810 -1.5644  1.0661  1.1450
10766SOL    HW232877   6.163   9.467   5.882 -1.0157 -0.0044  0.4009
10767SOL     OW32878   0.593   1.392   6.834 -0.3217  0.0288 -0.1123
10767SOL    HW132879   0.548   1.356   6.758  1.1479  1.4621 -1.7358
10767SOL    HW232880   0.526   1.444   6.878 -1.4568 -1.6040  0.2134
10768SOL     OW32881   3.090   7.381   5.996 -0.1656  0.3237 -0.2937
10768SOL    HW132882   3.185   7.390   6.001 -0.1712  0.2586  0.0023
10768SOL    HW232883   3.071   7.364   5.904  0.3171 -1.7268 -0.0770
10769SOL     OW32884   6.713   4.415  -0.019 -0.0820 -0.4381 -0.3682
10769SOL    HW132885   6.688   4.407   0.073  2.0442 -2.8671  0.0784
10769SOL    HW232886   6.808   4.417  -0.018 -0.0260  1.0482 -2.4675
10770SOL     OW32887   3.470   7.780   6.947 -0.1636  0.3915 -0.0970
10770SOL    HW132888   3.418   7.859   6.938 -1.1124 -0.2330 -0.2682
10770SOL    HW232889   3.510   7.767   6.861 -1.2043 -0.1170 -0.5179
10771SOL     OW32890   3.963   0.636   5.647 -0.3070 -0.0922 -0.0009
10771SOL    HW132891   3.869   0.645   5.660 -0.3881 -3.2680  3.2762
10771SOL    HW232892   4.002   0.685   5.719  0.5323  0.2451 -0.6648
10772SOL     OW32893   7.519   3.929   3.263 -0.4152 -0.1498 -0.0639
10772SOL    HW132894   7.440   3.971   3.231  0.2953  1.9035  0.7112
10772SOL    HW232895   7.591   3.976   3.220  0.4072 -0.9801  0.3578
10773SOL     OW32896   9.417   4.807   0.359 -0.0764  0.0595 -0.5340
10773SOL    HW132897   9.330   4.828   0.394  0.1838  1.6015 -0.7418
10773SOL    HW232898   9.402   4.793   0.265  0.2527  3.2210 -1.1609
10774SOL     OW32899   1.945   2.261   2.548  0.0340 -0.1342  0.0763
10774SOL    HW132900   2.038   2.245   2.563  0.6398  1.3244 -1.6858
10774SOL    HW232901   1.900   2.209   2.614  2.1109 -0.4827  1.2951
10775SOL     OW32902   6.071   5.962   2.340  0.3194  0.1544  0.0469
10775SOL    HW132903   6.141   6.019   2.371 -0.4684  0.9649  0.3670
10775SOL    HW232904   5.996   5.983   2.396 -0.7753  0.7592 -1.5578
10776SOL     OW32905   2.889   4.371   5.558 -0.3668  0.1258 -0.1454
10776SOL    HW132906   2.873   4.295   5.501  0.5915  0.5784 -1.0433
10776SOL    HW232907   2.960   4.344   5.616  0.4696  0.5664 -0.9454
10777SOL     OW32908   5.417   6.355   6.755  0.3416 -0.1443 -0.1835
10777SOL    HW132909   5.378   6.403   6.828 -0.3755  1.0328 -1.2957
10777SOL    HW232910   5.507   6.339   6.782 -0.1554 -0.5584  1.3337
10778SOL     OW32911   0.588   7.221   1.485 -0.3030  0.3459 -0.3620
10778SOL    HW132912   0.618   7.145   1.535 -1.5254 -0.6107 -1.0362
10778SOL    HW232913   0.664   7.246   1.432  0.1363 -0.3554 -0.0750
10779SOL     OW32914   1.839   9.893   3.284 -0.0768  0.1403  0.1942
10779SOL    HW132915   1.767   9.914   3.225 -1.4130  0.3955  1.8398
10779SOL    HW232916   1.800   9.833   3.348  1.5985 -0.9784  0.2248
10780SOL     OW32917   8.400   1.441   3.118  0.1240 -0.0076 -0.1699
10780SOL    HW132918   8.457   1.500   3.167  1.7757 -1.5090 -0.1908
10780SOL    HW232919   8.319   1.438   3.168  0.4850  1.2283  0.5261
10781SOL     OW32920   5.799   7.736   0.622 -0.6394  0.3290  0.3704
10781SOL    HW132921   5.747   7.810   0.654 -1.5118 -0.9786  2.1435
10781SOL    HW232922   5.748   7.702   0.548 -0.7035  0.9232  0.1327
10782SOL     OW32923   3.905   4.166   5.950 -0.2931  0.0378 -0.5263
10782SOL    HW132924   3.874   4.080   5.922  0.0458 -1.7594  3.7694
10782SOL    HW232925   3.986   4.148   5.996 -0.1166  2.6990  0.3506
10783SOL     OW32926   4.706   5.340   9.430 -0.6355 -0.0683 -0.3625
10783SOL    HW132927   4.630   5.294   9.394 -0.3690 -0.7456 -0.0802
10783SOL    HW232928   4.727   5.405   9.364 -0.1485 -1.2899 -1.4675
10784SOL     OW32929   0.592   9.169   9.681 -0.4351 -0.0034  0.1275
10784SOL    HW132930   0.674   9.148   9.727 -0.5425 -0.3079  0.1796
10784SOL    HW232931   0.530   9.191   9.751  0.4727  3.5045  0.0053
10785SOL     OW32932   4.615   9.452   2.394 -0.1104  0.2166 -0.4139
10785SOL    HW132933   4.637   9.358   2.393 -1.6274 -0.1581 -0.7653
10785SOL    HW232934   4.595   9.471   2.486  0.1171  0.1873 -0.3565
10786SOL     OW32935   3.777   4.443   2.162  0.2982 -0.0697 -0.4949
10786SOL    HW132936   3.723   4.377   2.205  1.8566 -1.2441 -0.2345
10786SOL    HW232937   3.803   4.503   2.232 -2.0987  1.6126 -0.9336
10787SOL     OW32938   9.607   8.212   7.773  0.1667  0.2961  0.0009
10787SOL    HW132939   9.620   8.157   7.851 -1.7270  2.1044  1.7262
10787SOL    HW232940   9.689   8.204   7.724  1.2974 -1.2116  1.9798
10788SOL     OW32941   6.492   7.497   6.207  0.8517 -0.3229  0.1569
10788SOL    HW132942   6.481   7.538   6.121 -0.9658 -0.9763  0.0296
10788SOL    HW232943   6.461   7.564   6.269 -2.8850 -1.5492 -0.0976
10789SOL     OW32944   9.910   1.900   2.428  0.5170  0.5578  0.2503
10789SOL    HW132945   9.981   1.905   2.492  0.4090  1.9625  0.2737
10789SOL    HW232946   9.831   1.923   2.478 -0.3206 -2.6900  0.6816
10790SOL     OW32947   6.910   3.902   9.644  0.9013 -0.8063  0.3394
10790SOL    HW132948   6.982   3.881   9.585  1.2233 -2.3078  1.2003
10790SOL    HW232949   6.951   3.950   9.716  0.2527  2.5290 -1.3509
10791SOL     OW32950   0.955   4.583   3.362  0.0592 -0.1744 -0.3204
10791SOL    HW132951   0.922   4.516   3.423 -0.7414  0.0631 -0.4741
10791SOL    HW232952   0.908   4.662   3.387  0.9000  0.2983 -0.2354
10792SOL     OW32953   5.010   5.570   7.525 -0.9372  0.3936  0.4794
10792SOL    HW132954   5.070   5.563   7.599  0.2718  0.3524 -0.4654
10792SOL    HW232955   4.965   5.653   7.539 -0.3045  0.6668  0.9678
10793SOL     OW32956   0.308   4.793   2.628  0.3185  0.0465 -0.6639
10793SOL    HW132957   0.387   4.805   2.575  0.3014 -0.6558 -0.8597
10793SOL    HW232958   0.290   4.699   2.624 -0.1523  0.1012 -0.0791
10794SOL     OW32959   4.949   6.614   4.432  0.3279  0.4747  0.1287
10794SOL    HW132960   5.023   6.555   4.422 -0.3879 -0.3600 -0.3810
10794SOL    HW232961   4.897   6.576   4.503 -0.7192 -0.1667 -0.9470
10795SOL     OW32962   5.748   3.351   6.874  0.3699 -0.3838  0.2374
10795SOL    HW132963   5.811   3.298   6.826  0.1910 -1.2406  0.9309
10795SOL    HW232964   5.756   3.322   6.965 -1.2937 -0.7923  0.2860
10796SOL     OW32965   7.359   4.353   7.637 -0.0584 -0.0464  0.0279
10796SOL    HW132966   7.390   4.305   7.560 -0.7081  0.0185 -0.2801
10796SOL    HW232967   7.371   4.291   7.710 -1.6221 -1.0086 -0.4811
10797SOL     OW32968   9.301   2.245   0.267 -0.3392  0.1149 -0.9913
10797SOL    HW132969   9.377   2.204   0.309 -0.0949  0.6722 -0.8814
10797SOL    HW232970   9.318   2.236   0.173 -0.2148  0.0884 -0.9672
10798SOL     OW32971   8.769   5.307   3.939 -0.5842  0.2731  0.0445
10798SOL    HW132972   8.691   5.308   3.883 -0.2598 -0.3804 -0.4293
10798SOL    HW232973   8.747   5.366   4.011 -1.5879 -0.0317  0.0056
10799SOL     OW32974   6.130   7.579   0.060 -0.2424  0.2458 -0.1546
10799SOL    HW132975   6.198   7.525   0.020  0.0353  0.6253 -0.1952
10799SOL    HW232976   6.053   7.523   0.061  0.2933 -0.5006  0.6946
10800SOL     OW32977   4.921   9.606   6.290 -0.1860 -0.3692  0.1069
10800SOL    HW132978   4.941   9.648   6.373 -1.3233 -0.2411  0.3404
10800SOL    HW232979   4.986   9.537   6.281 -1.6518 -2.2214  2.4704
10801SOL     OW32980   7.489   9.804   3.305 -0.0016 -0.1756 -0.4927
10801SOL    HW132981   7.441   9.855   3.240 -0.2421 -0.1256 -0.2784
10801SOL    HW232982   7.555   9.756   3.255  1.0076  1.2324 -0.5853
10802SOL     OW32983   4.536   0.944   0.935 -0.3428 -0.5718 -0.0220
10802SOL    HW132984   4.573   0.980   1.015 -1.2710 -0.2445  0.2694
10802SOL    HW232985   4.536   0.850   0.948  0.1623 -0.5639  0.0628
10803SOL     OW32986   2.706   3.834   5.026  0.2382  0.0564  0.4530
10803SOL    HW132987   2.715   3.808   4.934 -0.7071  1.4908 -0.0766
10803SOL    HW232988   2.781   3.792   5.070  3.1158  2.4952 -1.6607
10804SOL     OW32989   9.844   0.447   5.653 -0.3383 -0.1182 -0.4914
10804SOL    HW132990   9.787   0.475   5.581 -0.5572  0.0301 -0.2613
10804SOL    HW232991   9.840   0.351   5.651 -2.2837 -0.1245  0.8341
10805SOL     OW32992   8.069   3.193   5.535  0.6282 -0.3006  0.4365
10805SOL    HW132993   8.019   3.122   5.577  1.0779 -0.9928 -0.1812
10805SOL    HW232994   8.017   3.218   5.459 -0.2236  1.0072  1.3893
10806SOL     OW32995   5.941   7.024   8.460  0.5398  0.2183 -0.1708
10806SOL    HW132996   5.888   7.019   8.380  0.8341 -1.2313 -0.3023
10806SOL    HW232997   6.023   7.064   8.430  0.6586 -0.3364 -0.6150
10807SOL     OW32998   2.945   2.578   4.649 -0.2617  0.0454 -0.2725
10807SOL    HW132999   2.956   2.486   4.672 -0.5247 -0.2427 -1.2573
10807SOL    HW233000   2.987   2.626   4.721 -0.7731 -0.8146  0.6284
10808SOL     OW33001   2.543   3.686   8.531  0.1872  0.1757  0.2125
10808SOL    HW133002   2.465   3.657   8.485  0.2793 -0.2215  0.2998
10808SOL    HW233003   2.542   3.637   8.614 -0.6893  1.8663  1.2592
10809SOL     OW33004   6.737   5.706   7.401  0.0487  0.0457 -0.0679
10809SOL    HW133005   6.820   5.669   7.431 -1.4811 -3.1711  0.6201
10809SOL    HW233006   6.691   5.730   7.481 -0.0694  0.9334 -0.3947
10810SOL     OW33007   3.460   5.427   9.315  0.0758  0.4646 -0.2638
10810SOL    HW133008   3.406   5.349   9.310  0.0740  0.3623  1.0135
10810SOL    HW233009   3.461   5.450   9.408  0.8609  1.4286 -0.4883
10811SOL     OW33010   9.464   3.258   2.899  0.0888  0.0200  0.3075
10811SOL    HW133011   9.558   3.244   2.887  0.1446 -0.2937  1.0516
10811SOL    HW233012   9.457   3.343   2.942  0.0427 -0.0382  0.4151
10812SOL     OW33013   2.582   7.042   1.949  0.3561  0.8055  0.1666
10812SOL    HW133014   2.649   6.988   1.906 -0.7124  0.2014 -0.7935
10812SOL    HW233015   2.607   7.042   2.041  0.0594 -1.9489  0.3512
10813SOL     OW33016   3.454   6.344   2.168 -0.3220 -0.0699 -0.5022
10813SOL    HW133017   3.523   6.388   2.217  0.6047 -1.3811 -0.5700
10813SOL    HW233018   3.499   6.275   2.119 -1.6764 -0.9395 -0.5869
10814SOL     OW33019   7.536   1.761   1.355 -0.3410  0.8577  0.1552
10814SOL    HW133020   7.574   1.765   1.443 -1.2657 -1.4099  0.7205
10814SOL    HW233021   7.610   1.743   1.298 -0.0754 -0.5194  0.8765
10815SOL     OW33022   6.717   6.926   5.330 -0.2651 -0.2982  0.4328
10815SOL    HW133023   6.684   6.902   5.417  1.5334  0.2677  1.3170
10815SOL    HW233024   6.667   7.004   5.306 -3.8426 -2.7733 -1.0328
10816SOL     OW33025   4.652   9.277   5.003 -0.0842 -0.0052  0.2014
10816SOL    HW133026   4.737   9.263   5.046 -1.1412 -0.4673  2.2858
10816SOL    HW233027   4.629   9.191   4.967 -0.7507 -0.5288  1.8011
10817SOL     OW33028   8.672   2.686   0.772 -0.0290  0.2442 -0.0844
10817SOL    HW133029   8.732   2.716   0.840 -1.2377  0.4538  0.9154
10817SOL    HW233030   8.609   2.757   0.763  0.1443  0.2606 -1.5081
10818SOL     OW33031   5.739   2.945   7.727 -0.1498 -0.0944 -0.1189
10818SOL    HW133032   5.663   2.941   7.669 -0.1247  1.0160 -0.2448
10818SOL    HW233033   5.702   2.948   7.815 -0.2405  0.1093 -0.1643
10819SOL     OW33034   0.169   3.712   0.503  0.6390  0.3357 -0.0404
10819SOL    HW133035   0.095   3.666   0.543  1.3463 -1.6548 -0.8883
10819SOL    HW233036   0.239   3.707   0.568  0.9120 -0.3980 -0.3762
10820SOL     OW33037   6.851   4.083   2.130  0.2430  0.1282  0.0664
10820SOL    HW133038   6.809   4.047   2.208 -0.1863 -0.1681 -0.2928
10820SOL    HW233039   6.816   4.171   2.123  0.6583  0.3268  0.4835
10821SOL     OW33040   0.196   7.128   7.344 -0.0288 -0.2374  0.6358
10821SOL    HW133041   0.101   7.116   7.335  0.2256 -1.0999 -1.5979
10821SOL    HW233042   0.231   7.040   7.355  0.7169 -0.3080 -1.7378
10822SOL     OW33043   5.940   0.205   4.676 -0.5159  0.1243 -0.0305
10822SOL    HW133044   6.017   0.149   4.667 -0.4085  0.3030 -0.2463
10822SOL    HW233045   5.937   0.254   4.594 -0.1845  0.9637  0.4399
10823SOL     OW33046   3.769   6.453   0.561 -0.5803 -0.0249 -0.0220
10823SOL    HW133047   3.697   6.404   0.601 -2.1708  2.1526  0.0060
10823SOL    HW233048   3.752   6.448   0.467 -0.6607  0.2767 -0.0274
10824SOL     OW33049   0.814   9.848   7.165 -0.2619  0.3874  0.2845
10824SOL    HW133050   0.846   9.905   7.096 -0.3101 -0.7363 -0.7097
10824SOL    HW233051   0.721   9.869   7.172  0.2008  2.1799  1.7149
10825SOL     OW33052   7.026   0.836   2.481  0.1666  0.6485  0.4455
10825SOL    HW133053   6.951   0.778   2.470  0.8054 -0.3301  1.1138
10825SOL    HW233054   7.003   0.915   2.433 -1.2985  0.3670  0.6551
10826SOL     OW33055   8.424   5.267   0.684  0.5724  0.2887  0.1425
10826SOL    HW133056   8.511   5.305   0.697  1.7801 -2.0552 -0.5684
10826SOL    HW233057   8.409   5.273   0.590 -1.1616  2.8022  0.4779
10827SOL     OW33058   0.579   8.219   0.082  0.4851  0.0827  0.5950
10827SOL    HW133059   0.530   8.295   0.054 -1.0347 -1.3462 -0.8411
10827SOL    HW233060   0.658   8.254   0.124 -0.7237  2.4116  1.0329
10828SOL     OW33061   9.427   0.427   8.928 -0.1576  0.0878 -0.2626
10828SOL    HW133062   9.502   0.415   8.870 -0.2074 -1.5698 -0.0411
10828SOL    HW233063   9.384   0.341   8.930 -0.4102  0.2123  1.8699
10829SOL     OW33064   6.014   7.694   3.530  0.0749 -0.2778  0.6122
10829SOL    HW133065   5.948   7.688   3.461  1.7169 -0.3324 -1.0138
10829SOL    HW233066   6.009   7.610   3.575 -0.6246 -0.4603  0.2121
10830SOL     OW33067   4.366   7.915   2.856  0.0642 -0.2245  0.3901
10830SOL    HW133068   4.370   7.956   2.943  1.9480 -0.2868  0.3832
10830SOL    HW233069   4.311   7.838   2.869  0.5944 -0.4308  1.6407
10831SOL     OW33070   1.830   7.018   7.661  0.5352  0.3020 -0.0734
10831SOL    HW133071   1.867   6.930   7.665 -0.3607 -0.0780  0.2374
10831SOL    HW233072   1.747   7.011   7.709  1.0560  1.6352  1.0828
10832SOL     OW33073   0.451   9.093   7.477  0.0367  0.5973 -0.3200
10832SOL    HW133074   0.542   9.087   7.447  0.5290  2.3670  0.6801
10832SOL    HW233075   0.455   9.147   7.556 -1.3814 -2.5446  2.1392
10833SOL     OW33076   1.842   0.906   4.024 -0.4875  0.2664  0.3528
10833SOL    HW133077   1.828   0.862   3.940  0.2916 -0.1197  0.4171
10833SOL    HW233078   1.842   1.000   4.002 -0.4443  0.1728 -0.0513
10834SOL     OW33079   9.198   7.830   1.228  0.4015  0.2126 -0.5438
10834SOL    HW133080   9.186   7.924   1.218 -0.5571  0.0233 -1.4001
10834SOL    HW233081   9.167   7.810   1.316 -1.8063  0.3614 -1.2391
10835SOL     OW33082   0.734   2.222   0.793 -0.2216  0.2165  0.2116
10835SOL    HW133083   0.757   2.157   0.726  0.1748  0.1153  0.4396
10835SOL    HW233084   0.784   2.195   0.870 -1.2661 -0.1221  0.7881
10836SOL     OW33085   7.688   3.157   1.523 -0.4316  0.0674  0.3723
10836SOL    HW133086   7.691   3.150   1.428 -1.1829  0.8870  0.2691
10836SOL    HW233087   7.766   3.208   1.546  1.0467 -2.0946  0.4556
10837SOL     OW33088   6.268   8.986   4.639 -0.4783  0.0936  0.7883
10837SOL    HW133089   6.205   9.058   4.641 -1.1349 -0.4914  1.2479
10837SOL    HW233090   6.244   8.935   4.562 -0.2056  0.1768  0.6427
10838SOL     OW33091   9.726   8.674   4.115  0.2873  0.2813  0.1618
10838SOL    HW133092   9.810   8.655   4.074  0.3324 -0.9951  0.8162
10838SOL    HW233093   9.708   8.598   4.170 -2.6575 -0.8960 -2.1531
10839SOL     OW33094   8.961   8.652   0.206  0.3022 -0.1103  0.2689
10839SOL    HW133095   8.927   8.608   0.129 -0.1115 -1.5704  1.2331
10839SOL    HW233096   8.884   8.690   0.248  0.0648 -1.7970  1.4518
10840SOL     OW33097   4.353   3.210   6.818  0.1215 -0.6058 -0.3271
10840SOL    HW133098   4.338   3.235   6.727  1.4393 -1.6200 -0.8435
10840SOL    HW233099   4.265   3.210   6.857 -0.3389  1.0950 -1.2330
10841SOL     OW33100   8.716   1.208   8.819  0.2821  0.0507  0.7389
10841SOL    HW133101   8.643   1.201   8.881 -0.4756 -0.3448 -0.1763
10841SOL    HW233102   8.720   1.301   8.796 -0.1406  0.0192  0.5425
10842SOL     OW33103   4.979   0.068   0.050  0.4726  0.1934  0.1979
10842SOL    HW133104   4.928  -0.010   0.074  0.7852 -0.4427 -1.0905
10842SOL    HW233105   5.070   0.041   0.059  0.6003  0.0452 -1.2244
10843SOL     OW33106   5.430   8.745   2.211 -0.2058  0.3950  0.1942
10843SOL    HW133107   5.504   8.787   2.167 -1.1673  2.9156  0.7948
10843SOL    HW233108   5.356   8.760   2.152 -0.5138 -0.9150  0.2266
10844SOL     OW33109   2.095   3.616   3.385  0.4234  0.1229 -0.6929
10844SOL    HW133110   2.095   3.706   3.352  1.5868  1.2390  2.0947
10844SOL    HW233111   2.186   3.598   3.406 -0.2835  0.0636  3.0050
10845SOL     OW33112   7.700   4.626   4.554 -0.4260  0.0930  0.3106
10845SOL    HW133113   7.712   4.548   4.500 -0.5777  0.6026 -0.4671
10845SOL    HW233114   7.743   4.696   4.506 -2.0402  0.9090 -0.0420
10846SOL     OW33115   6.048   5.591   4.117  0.3452 -0.0514 -0.9284
10846SOL    HW133116   6.108   5.518   4.103  1.2763  0.7994 -1.5111
10846SOL    HW233117   6.071   5.625   4.203 -0.1288 -0.4588 -0.6311
10847SOL     OW33118   0.845   1.287   0.522 -0.7642 -0.2965 -0.4321
10847SOL    HW133119   0.866   1.300   0.615 -0.5736 -1.0065 -0.3747
10847SOL    HW233120   0.883   1.364   0.479 -2.0717  0.7701  0.2279
10848SOL     OW33121   6.165   0.555   5.269  0.0262  0.3917 -0.0463
10848SOL    HW133122   6.181   0.644   5.303  1.0056  0.8531 -1.6342
10848SOL    HW233123   6.088   0.564   5.214  0.4245  0.3864 -0.6161
10849SOL     OW33124   9.970   2.741   7.642  0.4339 -0.1000  0.4617
10849SOL    HW133125   9.914   2.665   7.660 -0.6425  0.1682 -1.4371
10849SOL    HW233126   9.977   2.786   7.726 -0.0968 -1.5309  1.3033
10850SOL     OW33127   0.645   1.616   7.097  0.4850 -0.0842 -0.5614
10850SOL    HW133128   0.612   1.699   7.131  0.0922 -0.0525 -0.9955
10850SOL    HW233129   0.668   1.635   7.006  2.5904  0.1169 -0.0298
10851SOL     OW33130   9.608   5.447   2.243 -0.5208  0.3052  0.3011
10851SOL    HW133131   9.571   5.481   2.324 -1.1753 -0.6505  0.4294
10851SOL    HW233132   9.654   5.521   2.204 -1.7928  1.2884  0.6065
10852SOL     OW33133   5.958   4.617   9.268 -0.3802  0.4672  0.0334
10852SOL    HW133134   5.997   4.703   9.279  1.2535  0.1372 -2.3408
10852SOL    HW233135   6.025   4.556   9.301 -0.4927  0.0391 -0.5056
10853SOL     OW33136   6.031   3.922   0.806  0.2272  0.1516  0.1397
10853SOL    HW133137   6.039   3.830   0.782 -1.3103 -0.5061  1.8706
10853SOL    HW233138   5.938   3.935   0.822  0.6183  1.5282  1.6252
10854SOL     OW33139   1.526   6.193   4.589  0.1066 -0.6547  0.1347
10854SOL    HW133140   1.498   6.151   4.508 -0.2429  1.1061 -0.6784
10854SOL    HW233141   1.620   6.175   4.594  0.2357 -0.3005 -0.9414
10855SOL     OW33142   7.653   9.669   3.122 -0.0449  1.3137  0.3712
10855SOL    HW133143   7.705   9.606   3.171  0.0475  1.3615  0.3340
10855SOL    HW233144   7.652   9.635   3.033  1.0177  1.9938  0.0834
10856SOL     OW33145   3.447   6.524   1.212  0.2837 -0.1812 -0.3812
10856SOL    HW133146   3.389   6.485   1.277 -0.0786 -1.0000 -1.1791
10856SOL    HW233147   3.389   6.550   1.140  0.7130  0.4536 -0.5026
10857SOL     OW33148   0.672   3.257   0.098  0.0377  0.8493  0.1805
10857SOL    HW133149   0.676   3.350   0.116 -0.3470  1.0379 -0.6229
10857SOL    HW233150   0.600   3.248   0.035  1.8750  0.3983 -2.0001
10858SOL     OW33151   8.251   2.540   8.048  0.0729 -0.9195  0.4345
10858SOL    HW133152   8.165   2.498   8.041  0.4303 -1.4809 -1.1692
10858SOL    HW233153   8.242   2.621   7.998 -0.0922  0.0745  2.0163
10859SOL     OW33154   3.358   2.134   6.990 -0.5769 -0.4617 -0.0673
10859SOL    HW133155   3.402   2.106   7.070 -1.0663 -1.1567 -0.0304
10859SOL    HW233156   3.335   2.225   7.005 -1.4966 -0.8484  0.9580
10860SOL     OW33157   6.416   7.640   2.995 -0.9702 -0.0660 -0.5508
10860SOL    HW133158   6.368   7.723   2.998  1.0685  1.1764  0.7949
10860SOL    HW233159   6.400   7.600   3.081 -2.7211 -1.6166 -1.5360
10861SOL     OW33160   1.735   0.500   9.836  1.1863 -0.0219  0.3829
10861SOL    HW133161   1.651   0.545   9.844 -0.1499 -2.3926  0.5708
10861SOL    HW233162   1.770   0.500   9.925 -0.4413 -2.1863  1.1193
10862SOL     OW33163   7.712   6.378   5.657 -0.1118 -0.2683 -0.2701
10862SOL    HW133164   7.683   6.311   5.596  1.5658  1.8205 -3.6155
10862SOL    HW233165   7.655   6.453   5.640  0.7975  0.5737  0.2607
10863SOL     OW33166   9.278   5.424   7.732  0.4671  0.0031 -0.2187
10863SOL    HW133167   9.246   5.334   7.727 -1.2151  0.4610  1.1406
10863SOL    HW233168   9.297   5.448   7.642 -0.1678 -1.3423 -0.7364
10864SOL     OW33169   4.568   4.778   6.384  0.4268 -0.0305 -0.2064
10864SOL    HW133170   4.630   4.823   6.441  0.3165  1.9148 -1.5435
10864SOL    HW233171   4.569   4.828   6.303 -0.7247 -1.6906 -1.3048
10865SOL     OW33172   9.615   9.454   4.880  0.5588 -0.0080  0.1135
10865SOL    HW133173   9.613   9.529   4.821  0.2051 -1.7040 -2.1880
10865SOL    HW233174   9.705   9.422   4.876  0.4045 -0.4398  0.0900
10866SOL     OW33175   5.472   8.590   9.004  0.5605  0.3610  0.0904
10866SOL    HW133176   5.416   8.619   9.076 -0.1827  0.8820 -0.6852
10866SOL    HW233177   5.534   8.662   8.993  0.6608  0.2899  0.1852
10867SOL     OW33178   2.434   0.761   7.820  0.2693  0.0878 -0.1435
10867SOL    HW133179   2.493   0.789   7.890 -0.1941  0.1748  0.2166
10867SOL    HW233180   2.451   0.667   7.811  0.6931  0.1718 -0.2700
10868SOL     OW33181   9.312   7.156   6.586 -0.2554  0.5044 -0.1561
10868SOL    HW133182   9.262   7.195   6.515 -1.6462  1.2246  1.1592
10868SOL    HW233183   9.328   7.229   6.646  1.7753  0.1274 -0.1810
10869SOL     OW33184   8.483   6.427   4.411 -0.2181  0.5171  0.7711
10869SOL    HW133185   8.497   6.333   4.399  0.7722  0.9024 -1.9856
10869SOL    HW233186   8.487   6.463   4.322 -0.5254  3.1850  1.7423
10870SOL     OW33187   1.434   1.476   5.608 -0.5513  0.4339 -0.0018
10870SOL    HW133188   1.420   1.514   5.695 -2.6343  0.6774 -0.3931
10870SOL    HW233189   1.519   1.511   5.580  0.2070  0.3016  1.9224
10871SOL     OW33190   3.258   0.518   6.967 -0.2269 -0.1634  0.0486
10871SOL    HW133191   3.236   0.586   7.030  1.2722 -0.6377  1.1445
10871SOL    HW233192   3.174   0.476   6.946 -0.6930 -0.6264  2.4982
10872SOL     OW33193   4.292   0.124   2.409 -0.3953 -0.0433  0.0223
10872SOL    HW133194   4.213   0.071   2.399  0.1110 -0.5883 -1.2553
10872SOL    HW233195   4.352   0.068   2.460 -0.9747  0.5511  1.3977
10873SOL     OW33196   4.698   5.624   7.370  0.2265 -0.4420  0.0615
10873SOL    HW133197   4.676   5.587   7.456  0.3844  0.0947  0.3417
10873SOL    HW233198   4.642   5.577   7.308 -0.7914  0.0097  0.6032
10874SOL     OW33199   1.804   1.198   4.603  0.4479  0.4260  0.2520
10874SOL    HW133200   1.775   1.269   4.661  0.8936  1.6894 -1.0091
10874SOL    HW233201   1.887   1.229   4.567 -0.4234  0.2783 -2.0194
10875SOL     OW33202   8.316   5.436   7.550  0.0187 -0.1424 -0.3416
10875SOL    HW133203   8.361   5.495   7.490  0.2405 -1.5352 -1.6114
10875SOL    HW233204   8.223   5.459   7.541 -0.0061 -0.6319 -1.6321
10876SOL     OW33205  -0.005   5.583   8.274  0.8838 -0.4281  0.1591
10876SOL    HW133206  -0.022   5.671   8.307 -0.0694 -1.3056  2.1636
10876SOL    HW233207   0.083   5.589   8.236  0.8107  1.3856  0.1801
10877SOL     OW33208   1.224   9.607   1.519 -0.1919  0.1902  0.3722
10877SOL    HW133209   1.293   9.553   1.480 -1.1071 -0.6026 -0.1640
10877SOL    HW233210   1.266   9.692   1.533  1.4394 -0.7617  1.7124
10878SOL     OW33211   0.340   6.730   1.240 -0.1849 -0.1344  0.1072
10878SOL    HW133212   0.289   6.662   1.283 -0.2021 -0.4888 -0.4559
10878SOL    HW233213   0.336   6.708   1.147  0.7024  0.0270  0.0206
10879SOL     OW33214   0.972   2.118   3.777 -0.2358 -0.2393 -0.6483
10879SOL    HW133215   0.966   2.027   3.747  0.5516 -0.7370  0.6326
10879SOL    HW233216   1.051   2.121   3.830  0.0252  1.3299 -1.0579
10880SOL     OW33217   3.270   2.397   9.190 -0.3604  0.1472  0.2143
10880SOL    HW133218   3.325   2.373   9.264 -1.2400  0.8589  1.1404
10880SOL    HW233219   3.295   2.337   9.120 -0.8130 -1.8026  1.6609
10881SOL     OW33220   2.705   3.608   0.172  0.0507 -0.3150 -0.2892
10881SOL    HW133221   2.792   3.609   0.211 -1.1056 -0.2221  2.5081
10881SOL    HW233222   2.706   3.534   0.111  2.4225  0.4604 -1.2830
10882SOL     OW33223   0.931   6.605   6.343  0.2542 -0.0820  0.1041
10882SOL    HW133224   0.907   6.539   6.278 -0.2145  0.2645 -0.0807
10882SOL    HW233225   0.968   6.677   6.292 -1.2558  0.7125  0.0910
10883SOL     OW33226   3.452   1.446   8.357  0.3644  0.3979  0.0706
10883SOL    HW133227   3.402   1.365   8.346 -0.0924  0.5243  1.0716
10883SOL    HW233228   3.530   1.434   8.303 -0.6479  0.1135 -1.3957
10884SOL     OW33229   5.143   0.609   3.135  0.2716 -0.1415 -0.1858
10884SOL    HW133230   5.170   0.521   3.107 -1.1499 -0.8282  0.5026
10884SOL    HW233231   5.193   0.624   3.215  1.7235  0.3775 -1.1513
10885SOL     OW33232   6.311   1.398   6.857 -0.1302  0.2198  0.9938
10885SOL    HW133233   6.354   1.369   6.776  1.5797  1.9824  1.1956
10885SOL    HW233234   6.238   1.453   6.827  0.7027  1.1495  0.6047
10886SOL     OW33235   4.401   8.729   2.061 -0.6741  0.1711  0.6638
10886SOL    HW133236   4.473   8.699   2.005  0.3002 -0.0382  1.9811
10886SOL    HW233237   4.422   8.694   2.148 -1.8966  0.8718  1.2619
10887SOL     OW33238   2.678   0.930   8.747 -0.2599  0.3880  0.4217
10887SOL    HW133239   2.755   0.948   8.801  0.4730 -0.5563 -0.2842
10887SOL    HW233240   2.712   0.917   8.659 -1.1416 -0.7192  0.2148
10888SOL     OW33241   5.066   1.978   4.187 -0.5039 -0.5319  0.3176
10888SOL    HW133242   5.034   1.991   4.098 -0.7733 -1.3454  0.2912
10888SOL    HW233243   4.990   1.994   4.243  0.3318  3.1529  0.6820
10889SOL     OW33244   5.359   2.130   0.034  0.1290 -0.0076 -0.3283
10889SOL    HW133245   5.379   2.223   0.048  0.7061 -0.3628  1.5469
10889SOL    HW233246   5.289   2.111   0.097  0.1064 -0.8705 -0.6090
10890SOL     OW33247   5.725   6.304   2.825 -0.0276  0.6215 -0.3255
10890SOL    HW133248   5.689   6.377   2.876  1.6589  1.6411 -0.4800
10890SOL    HW233249   5.676   6.305   2.743 -1.1558  0.5039  0.3406
10891SOL     OW33250   6.319   9.960   2.956 -0.1595  0.8802  0.0198
10891SOL    HW133251   6.299   9.868   2.974 -0.0750  0.9299  0.3814
10891SOL    HW233252   6.267  10.008   3.021 -0.6753  1.1203 -0.5592
10892SOL     OW33253   4.207   6.246   3.949  0.0589  0.1600 -0.1605
10892SOL    HW133254   4.117   6.235   3.917 -0.4019  0.4356  0.9690
10892SOL    HW233255   4.244   6.157   3.947 -0.2709  0.0281 -0.5368
10893SOL     OW33256   2.281   5.664   6.953 -0.1930  0.0901  0.2196
10893SOL    HW133257   2.276   5.759   6.958  2.2472  0.3215 -0.6126
10893SOL    HW233258   2.300   5.636   7.043  1.1719  0.6167  0.1254
10894SOL     OW33259   4.286   3.613   2.978  0.7799  0.4237  0.1758
10894SOL    HW133260   4.284   3.659   3.062  1.0459  0.2663  0.2682
10894SOL    HW233261   4.379   3.601   2.959  0.7199  0.4135 -0.1169
10895SOL     OW33262   1.423   6.594   4.272 -0.1946 -0.1089 -0.0511
10895SOL    HW133263   1.485   6.569   4.341 -1.0581 -0.5375  0.5871
10895SOL    HW233264   1.470   6.577   4.190  0.5849 -0.2755  0.4266
10896SOL     OW33265   2.970   6.120   4.001 -0.1755  0.2968  0.2416
10896SOL    HW133266   3.066   6.125   4.002 -0.0280 -1.6639 -0.3575
10896SOL    HW233267   2.950   6.030   4.028 -1.6879 -0.3820 -2.7281
10897SOL     OW33268   0.712   0.150   9.713  0.1055 -0.1056 -0.5381
10897SOL    HW133269   0.805   0.165   9.730  0.4563 -0.2075 -2.1686
10897SOL    HW233270   0.684   0.091   9.783  1.8027 -1.7777 -1.1705
10898SOL     OW33271   3.097   3.125   2.299  0.1702 -0.1791  0.2279
10898SOL    HW133272   3.096   3.072   2.219 -1.7413 -1.4875  1.0315
10898SOL    HW233273   3.148   3.073   2.361 -1.7730 -1.2226  1.0416
10899SOL     OW33274   1.625   3.913   3.722  0.3280  0.3391 -0.1760
10899SOL    HW133275   1.712   3.880   3.702  1.0705  1.2101  1.4487
10899SOL    HW233276   1.636   4.007   3.736 -0.7543  0.3761  0.6106
10900SOL     OW33277   6.486   5.759   3.942  0.3801  0.4720 -0.5795
10900SOL    HW133278   6.487   5.846   3.981  0.0803 -0.1889  0.9782
10900SOL    HW233279   6.549   5.764   3.870  0.7839  1.8061 -0.1616
10901SOL     OW33280   0.739   2.696   2.672 -0.5779 -0.1269  0.2845
10901SOL    HW133281   0.790   2.716   2.750 -0.7603 -0.0956  0.3975
10901SOL    HW233282   0.751   2.772   2.615  1.7035 -1.2560 -0.8691
10902SOL     OW33283   3.455   9.191   8.758 -0.0827 -0.1899  0.3843
10902SOL    HW133284   3.431   9.178   8.850 -0.3351 -1.5075  0.1578
10902SOL    HW233285   3.493   9.107   8.732  0.6210  0.3986 -0.5280
10903SOL     OW33286   8.271   1.941   1.873 -0.5598  0.6718 -0.3608
10903SOL    HW133287   8.327   1.881   1.824 -1.6930  0.7489 -1.8276
10903SOL    HW233288   8.186   1.936   1.828 -1.6904  0.7136  1.6464
10904SOL     OW33289   1.355   2.493   5.686 -0.2654  0.1204 -0.4690
10904SOL    HW133290   1.277   2.475   5.634 -0.6165  0.8876 -0.2233
10904SOL    HW233291   1.416   2.422   5.664 -1.1178 -0.6254 -0.4740
10905SOL     OW33292   5.807   2.548   3.409  0.2798 -0.3941  0.7436
10905SOL    HW133293   5.737   2.535   3.473  1.2641  0.2285  1.9860
10905SOL    HW233294   5.845   2.633   3.431  0.2967  0.1108 -1.0295
10906SOL     OW33295   4.348   8.462   8.167 -0.3122 -0.2115  0.4263
10906SOL    HW133296   4.337   8.557   8.167 -0.3896 -0.2045 -0.7351
10906SOL    HW233297   4.386   8.442   8.253 -1.9810  0.6519  1.4080
10907SOL     OW33298   4.053   6.429   5.291  0.2690 -0.3791  0.2326
10907SOL    HW133299   3.975   6.484   5.283 -0.2306 -0.9929  0.7885
10907SOL    HW233300   4.119   6.487   5.329  0.6166  0.6207 -1.7701
10908SOL     OW33301   4.303   7.008   1.563 -0.4470 -0.0253 -0.3482
10908SOL    HW133302   4.388   7.051   1.559  0.4956 -1.7093  0.4544
10908SOL    HW233303   4.240   7.076   1.542  0.8890  1.9985  1.7547
10909SOL     OW33304   6.489   2.267   6.910 -0.1361 -0.2831  0.0883
10909SOL    HW133305   6.558   2.251   6.973 -1.1156 -1.3907  0.9347
10909SOL    HW233306   6.412   2.224   6.948 -1.3154  1.0018 -0.7543
10910SOL     OW33307   5.796   5.335   2.501 -0.5355  0.2079 -0.3049
10910SOL    HW133308   5.808   5.271   2.431  0.8199  0.4222 -0.2969
10910SOL    HW233309   5.732   5.295   2.560  0.0838 -1.0398 -0.4394
10911SOL     OW33310   6.413   6.799   2.240  0.0467  0.4051  1.0400
10911SOL    HW133311   6.329   6.778   2.281  0.8833 -1.5509  1.8945
10911SOL    HW233312   6.459   6.715   2.236  1.4410  1.1936 -0.6392
10912SOL     OW33313   2.382   9.852   2.222  0.2227 -0.0190 -0.3768
10912SOL    HW133314   2.423   9.792   2.284 -1.5233 -0.4043  0.4828
10912SOL    HW233315   2.301   9.880   2.266 -2.9031 -2.8898 -3.5925
10913SOL     OW33316   8.521   8.097   0.753 -0.2605 -0.1647  0.2071
10913SOL    HW133317   8.577   8.020   0.758  0.3692  0.3763  3.1448
10913SOL    HW233318   8.576   8.163   0.710 -0.1685 -0.7964 -0.6818
10914SOL     OW33319   4.101   1.346   0.351 -0.0501 -0.1767  0.1286
10914SOL    HW133320   4.187   1.337   0.309 -0.0794 -0.1486  0.0620
10914SOL    HW233321   4.053   1.405   0.293  0.2828  0.7625  0.7693
10915SOL     OW33322   1.448   8.333   8.605  0.4390  0.6774 -0.0668
10915SOL    HW133323   1.425   8.246   8.573 -1.2283  0.6030  1.2215
10915SOL    HW233324   1.463   8.385   8.525 -2.5678  0.2606 -1.0181
10916SOL     OW33325   7.994   7.817   4.351  0.3918 -0.1235  0.2132
10916SOL    HW133326   8.060   7.855   4.410 -0.3989  0.7905  0.5392
10916SOL    HW233327   7.996   7.723   4.370 -0.3468  0.2183  2.2845
10917SOL     OW33328   5.611   7.584   0.483  0.0043  0.1154  0.1688
10917SOL    HW133329   5.520   7.592   0.510 -0.6225 -1.0527 -1.4496
10917SOL    HW233330   5.607   7.546   0.395  2.0267  0.8239 -0.2933
10918SOL     OW33331   8.957   1.990   9.324  0.6907  0.2797  0.1991
10918SOL    HW133332   8.866   1.964   9.312 -0.1352  3.4255 -1.4863
10918SOL    HW233333   9.006   1.939   9.259 -0.1297 -0.1853 -0.0637
10919SOL     OW33334   7.698   8.276   2.942 -0.5053  0.0231  0.4965
10919SOL    HW133335   7.764   8.329   2.987 -1.1182  2.4017 -1.1978
10919SOL    HW233336   7.738   8.190   2.935  1.2230  0.6233  2.0175
10920SOL     OW33337   5.205   1.079   5.927  0.0687  0.0567 -0.1996
10920SOL    HW133338   5.143   1.056   5.858  1.0474 -1.1816 -0.7148
10920SOL    HW233339   5.279   1.118   5.880 -0.5658  2.2047  0.4682
10921SOL     OW33340   2.512   8.595   3.776 -0.3181 -0.3369 -0.0586
10921SOL    HW133341   2.480   8.670   3.727  0.3315  0.7239  1.0561
10921SOL    HW233342   2.445   8.528   3.766 -1.2340  0.6276 -0.5521
10922SOL     OW33343   6.126   2.557   5.737 -0.2806  0.3399 -0.0970
10922SOL    HW133344   6.080   2.608   5.804 -1.1997 -0.0685 -0.4027
10922SOL    HW233345   6.056   2.511   5.691  0.6488 -3.1308  1.6753
10923SOL     OW33346   0.587   0.860   4.930 -0.0778 -0.4435  0.0100
10923SOL    HW133347   0.526   0.900   4.868 -1.1111  0.6270  1.6289
10923SOL    HW233348   0.634   0.794   4.879 -0.6691  0.5816 -1.9487
10924SOL     OW33349   9.788   8.966   6.128  0.4555  0.4491  0.2403
10924SOL    HW133350   9.750   9.050   6.101  1.6361  1.0227  0.3321
10924SOL    HW233351   9.857   8.950   6.064 -0.9464 -1.3894 -0.9053
10925SOL     OW33352   0.505   9.581   8.176  0.1818 -0.4433 -0.4982
10925SOL    HW133353   0.463   9.582   8.262  1.6703 -2.4893  0.3254
10925SOL    HW233354   0.569   9.652   8.179 -0.0262 -0.2687 -0.0646
10926SOL     OW33355   8.409   9.584   7.970  0.0652  0.0545 -0.5686
10926SOL    HW133356   8.493   9.629   7.967 -0.0866  0.4341  0.3285
10926SOL    HW233357   8.410   9.525   7.895  1.3485 -0.3180 -0.2870
10927SOL     OW33358   1.006   7.310   6.854  0.0721  0.0168  0.2117
10927SOL    HW133359   0.962   7.226   6.864  0.9968 -0.4119  0.7579
10927SOL    HW233360   1.062   7.299   6.777 -1.2516  0.7944 -0.9264
10928SOL     OW33361   6.652   3.234   6.474  0.1649  0.3813 -0.2754
10928SOL    HW133362   6.722   3.169   6.469  1.2052  1.4175  0.2909
10928SOL    HW233363   6.609   3.230   6.389  0.3583 -0.8707 -0.3326
10929SOL     OW33364   4.470   2.143   2.415 -0.1760 -0.1243 -0.6607
10929SOL    HW133365   4.381   2.144   2.451 -0.4549  2.2700 -1.2784
10929SOL    HW233366   4.466   2.078   2.345 -0.8360 -1.5339  0.5983
10930SOL     OW33367   8.108   5.982   7.883  0.0890  0.3799  0.0107
10930SOL    HW133368   8.130   5.916   7.949 -0.6212 -0.0146 -0.1353
10930SOL    HW233369   8.184   6.040   7.881 -0.0239  0.6194  1.4491
10931SOL     OW33370   0.215   1.135   6.635 -0.0185 -0.1859 -0.5940
10931SOL    HW133371   0.183   1.214   6.679 -1.3988 -0.3731 -1.1992
10931SOL    HW233372   0.203   1.153   6.541 -0.1652 -1.0270 -0.7470
10932SOL     OW33373   1.651   6.904   7.462  0.7823 -0.2921  0.1299
10932SOL    HW133374   1.638   6.961   7.387  1.4028  1.5728  1.3679
10932SOL    HW233375   1.712   6.952   7.518  0.6737 -1.8091  1.6177
10933SOL     OW33376   8.692   7.072   0.348 -0.4648 -0.1137  0.3181
10933SOL    HW133377   8.607   7.071   0.303 -0.5637 -0.0991  0.5070
10933SOL    HW233378   8.755   7.088   0.278 -0.7669  1.7313  0.4350
10934SOL     OW33379   0.361   7.137   6.601  0.2220 -0.3533 -0.1083
10934SOL    HW133380   0.324   7.141   6.689 -0.0915  1.7122 -0.2691
10934SOL    HW233381   0.447   7.178   6.610  0.3235 -0.4337 -0.6941
10935SOL     OW33382   9.630   9.303   0.886 -0.1667 -0.7662  0.3630
10935SOL    HW133383   9.537   9.304   0.909  0.1156 -3.2174  2.0262
10935SOL    HW233384   9.634   9.343   0.799 -2.8897 -1.2169 -0.0528
10936SOL     OW33385   8.903   8.086   9.427  0.1622  0.6860 -0.6082
10936SOL    HW133386   8.995   8.102   9.408 -0.2964  0.4223 -3.6108
10936SOL    HW233387   8.857   8.162   9.392 -0.8225  0.7782  0.7812
10937SOL     OW33388   3.945   9.047   6.778 -0.3538 -0.2817  0.0285
10937SOL    HW133389   3.974   9.123   6.729  0.2426  0.1789  1.0632
10937SOL    HW233390   3.852   9.039   6.759 -0.5015  0.9340  0.2062
10938SOL     OW33391   0.738   7.525   1.593  0.6938 -0.5494 -0.6872
10938SOL    HW133392   0.758   7.514   1.500  1.9815 -2.0319 -0.2774
10938SOL    HW233393   0.805   7.474   1.639  2.4567  3.1715  1.2778
10939SOL     OW33394   0.117   3.093   4.492 -0.0699 -0.0647  0.6130
10939SOL    HW133395   0.116   3.044   4.574  2.0886 -0.6571  0.3377
10939SOL    HW233396   0.061   3.169   4.509 -1.6073 -1.3871  1.8145
10940SOL     OW33397   2.392   4.376   2.786  0.4783 -0.1161 -0.4590
10940SOL    HW133398   2.334   4.328   2.728 -0.3729 -0.8607  0.9591
10940SOL    HW233399   2.363   4.467   2.779  0.5102 -0.1650 -1.3135
10941SOL     OW33400   0.101   0.631   8.814 -0.2797 -0.2763 -0.1418
10941SOL    HW133401   0.006   0.635   8.828 -0.1793  1.4229  0.3483
10941SOL    HW233402   0.125   0.720   8.787  1.1377 -0.7543 -0.5665
10942SOL     OW33403   2.874   5.669   4.483 -0.0432 -0.0125 -0.6986
10942SOL    HW133404   2.920   5.708   4.558 -0.6337  0.1098 -0.3904
10942SOL    HW233405   2.932   5.599   4.453 -0.0527 -0.4431  0.2454
10943SOL     OW33406   8.107   6.364   0.320  0.2292 -0.2079  0.3853
10943SOL    HW133407   8.178   6.421   0.290  0.3313 -1.0620 -1.0935
10943SOL    HW233408   8.027   6.405   0.287  0.3952 -1.5410 -1.8303
10944SOL     OW33409   3.383   5.040   0.978  0.4540  0.1933 -0.2290
10944SOL    HW133410   3.336   5.031   1.061  2.8875 -0.3873  1.1886
10944SOL    HW233411   3.314   5.053   0.913 -1.7085 -1.3860  1.5673
10945SOL     OW33412   4.067   4.545   6.428  0.1868 -0.3100  0.5156
10945SOL    HW133413   4.153   4.585   6.443  1.3503 -1.6612 -1.8836
10945SOL    HW233414   4.015   4.613   6.386  0.5860  0.0728  0.6372
10946SOL     OW33415   8.812   3.201   8.678  0.0156 -0.5003  0.0364
10946SOL    HW133416   8.783   3.272   8.620  1.6040 -0.5249 -0.8338
10946SOL    HW233417   8.837   3.246   8.759 -0.5389 -0.2716  0.0892
10947SOL     OW33418   8.076   8.290   1.631 -0.9959 -0.0315 -0.5748
10947SOL    HW133419   7.990   8.333   1.624 -1.1206 -0.3644 -1.1144
10947SOL    HW233420   8.114   8.299   1.544 -1.4761 -1.9699 -1.0338
10948SOL     OW33421   9.121   3.696   9.664  0.4374 -0.2802  0.2350
10948SOL    HW133422   9.121   3.787   9.693  1.4352 -0.0002 -0.5444
10948SOL    HW233423   9.205   3.686   9.619  0.7305 -1.8355  1.0500
10949SOL     OW33424   0.146   1.975   4.530  0.4439  0.1184 -0.1339
10949SOL    HW133425   0.138   1.882   4.549  1.8833 -0.1475 -0.6730
10949SOL    HW233426   0.058   2.010   4.543 -0.7492 -1.7677 -2.3916
10950SOL     OW33427   6.914   2.127   7.260  0.3543 -0.0037 -0.0957
10950SOL    HW133428   6.867   2.047   7.236 -0.0476 -0.0968  0.9509
10950SOL    HW233429   6.903   2.134   7.355  0.4903  1.2245 -0.1539
10951SOL     OW33430   1.150   9.054   1.066 -0.1689  0.5693 -0.0176
10951SOL    HW133431   1.176   9.142   1.039  0.2806  0.5058  0.2094
10951SOL    HW233432   1.077   9.068   1.127  0.4005  0.8166  0.6101
10952SOL     OW33433   0.286   5.281   1.022  0.7900  0.4327  0.2429
10952SOL    HW133434   0.216   5.225   0.989  1.5405  0.4087 -1.3828
10952SOL    HW233435   0.249   5.322   1.100 -0.5857 -0.5276  0.1277
10953SOL     OW33436   4.709   1.843   3.646  0.5721  0.3425  0.0141
10953SOL    HW133437   4.803   1.828   3.652  0.7883  1.7173  0.2186
10953SOL    HW233438   4.682   1.860   3.736  0.0731 -0.2834 -0.0098
10954SOL     OW33439   8.625   5.734   0.520 -0.6757  0.4740 -0.0414
10954SOL    HW133440   8.620   5.638   0.523  1.9547  0.2387 -0.5862
10954SOL    HW233441   8.555   5.759   0.460 -0.6053 -1.2356 -0.9168
10955SOL     OW33442   5.471   7.126   6.403  0.5008 -0.4686  0.0227
10955SOL    HW133443   5.404   7.069   6.366  1.4712 -1.3958 -0.3813
10955SOL    HW233444   5.432   7.158   6.484 -1.3364  0.9435 -1.3407
10956SOL     OW33445   0.486   4.340   3.338 -0.2550 -0.0108  0.5092
10956SOL    HW133446   0.489   4.343   3.242  2.9140 -0.2361  0.4713
10956SOL    HW233447   0.415   4.399   3.362 -1.0031  0.2101 -1.9557
10957SOL     OW33448   3.827   1.205   0.546 -0.7511  0.1225 -0.3196
10957SOL    HW133449   3.859   1.260   0.617 -0.0484  0.4492 -0.8730
10957SOL    HW233450   3.826   1.262   0.469 -3.6820  0.4321 -0.1660
10958SOL     OW33451   9.187   4.055   4.845  0.8250 -0.0575  0.1380
10958SOL    HW133452   9.252   4.092   4.785  0.0213  1.0118 -0.0880
10958SOL    HW233453   9.235   4.044   4.927  1.3408  0.5967 -0.0646
10959SOL     OW33454   9.611   2.137   5.911  0.3332  0.0788 -0.0583
10959SOL    HW133455   9.632   2.167   5.822 -1.6865 -0.7309 -0.8555
10959SOL    HW233456   9.647   2.048   5.914  0.6695  0.2163  0.0570
10960SOL     OW33457   4.272   5.794   8.059  0.2879  0.3049  0.9547
10960SOL    HW133458   4.219   5.874   8.065  0.2492  0.2856  0.8679
10960SOL    HW233459   4.347   5.811   8.117 -0.7649 -0.4080  2.6053
10961SOL     OW33460   8.522   7.433   4.468  0.0015  0.3247  0.1630
10961SOL    HW133461   8.450   7.468   4.415 -0.4160  1.7041  1.5510
10961SOL    HW233462   8.496   7.452   4.559  1.2718 -0.8243  0.7943
10962SOL     OW33463   5.662   5.128   9.384 -0.2863 -0.0255  0.4187
10962SOL    HW133464   5.655   5.186   9.308 -0.2155 -2.7720 -1.8393
10962SOL    HW233465   5.601   5.164   9.448 -2.2603  1.0297 -1.9232
10963SOL     OW33466   5.733   9.234   7.283  0.3492  0.1634 -0.0601
10963SOL    HW133467   5.667   9.250   7.216  1.0085  1.9367 -0.3530
10963SOL    HW233468   5.750   9.320   7.321 -0.5111 -0.8489  2.9161
10964SOL     OW33469   4.260   1.523   7.165 -0.9296 -0.5316  0.3314
10964SOL    HW133470   4.264   1.553   7.255  1.6415  1.5659 -0.3388
10964SOL    HW233471   4.334   1.462   7.157 -2.6164 -2.6885  0.1739
10965SOL     OW33472   4.589   1.698   7.870 -0.0769 -0.4057  0.0942
10965SOL    HW133473   4.570   1.767   7.806  0.4491  0.1632  0.5381
10965SOL    HW233474   4.550   1.730   7.951  1.1683 -0.0790  0.5791
10966SOL     OW33475   2.446   2.066   1.738 -0.0836 -0.1549  0.5086
10966SOL    HW133476   2.393   2.083   1.660 -2.0909  1.1266  2.0278
10966SOL    HW233477   2.460   2.152   1.776  4.3617 -0.2373 -0.4199
10967SOL     OW33478   3.384   5.914   5.852  0.2006 -0.1168 -0.7417
10967SOL    HW133479   3.433   5.965   5.916 -0.6158 -2.1935  1.7109
10967SOL    HW233480   3.296   5.952   5.853 -0.0333 -0.6643  0.0253
10968SOL     OW33481   3.714   7.896   4.071 -0.4654  0.2295  0.2756
10968SOL    HW133482   3.663   7.858   4.142 -2.2750  1.0490 -0.5196
10968SOL    HW233483   3.665   7.873   3.991  1.6557 -0.9068 -0.7741
10969SOL     OW33484   2.910   7.764   6.072  0.1946 -0.2719  0.0177
10969SOL    HW133485   2.902   7.810   5.989 -0.8483  0.2788  0.4038
10969SOL    HW233486   2.860   7.684   6.060  0.7391 -0.5904 -0.1529
10970SOL     OW33487   3.061   8.108   2.373  0.2807  0.0059 -0.0021
10970SOL    HW133488   3.113   8.150   2.442 -0.1636 -0.6756  0.7632
10970SOL    HW233489   2.995   8.057   2.420  1.2956 -2.2328 -0.8655
10971SOL     OW33490   7.728   6.375   3.780 -0.2830 -0.3051  0.3591
10971SOL    HW133491   7.773   6.293   3.758 -0.8759 -0.3807 -0.6423
10971SOL    HW233492   7.743   6.386   3.874  3.5310  0.7134 -0.2055
10972SOL     OW33493   6.082   5.844   3.661 -0.0987 -0.5730 -0.2455
10972SOL    HW133494   6.008   5.899   3.684  0.7704 -0.7403  3.6196
10972SOL    HW233495   6.045   5.776   3.604 -2.4207  0.5504 -0.1844
10973SOL     OW33496   0.769   9.120   0.723  0.2687  0.1856  0.3178
10973SOL    HW133497   0.768   9.028   0.694  2.4440 -0.2430  1.3595
10973SOL    HW233498   0.790   9.115   0.817 -2.8743  1.6685  1.2164
10974SOL     OW33499   6.680   9.963   4.243 -1.0142  0.1615 -0.3466
10974SOL    HW133500   6.627   9.951   4.163 -1.5949 -0.3431  0.0997
10974SOL    HW233501   6.663   9.884   4.294 -1.1850  0.7798  0.5776
10975SOL     OW33502   2.475   2.050   5.738 -0.2505  0.1732 -0.2537
10975SOL    HW133503   2.557   2.010   5.709  0.8292  2.0528 -0.0042
10975SOL    HW233504   2.419   2.048   5.661 -0.9304 -3.2800  0.1993
10976SOL     OW33505   5.194   7.207   2.806  0.6288  0.1890 -1.0052
10976SOL    HW133506   5.103   7.207   2.776 -0.0687  0.1521  0.9591
10976SOL    HW233507   5.202   7.128   2.859  1.5807  0.5877 -0.5270
10977SOL     OW33508   7.498   4.073   0.637  0.1414 -0.0125  0.1339
10977SOL    HW133509   7.499   4.038   0.726 -0.1613 -1.1521 -0.3047
10977SOL    HW233510   7.491   3.997   0.580 -0.2458  0.7328 -0.8582
10978SOL     OW33511   4.767   8.491   3.109 -0.5895  0.6661 -0.0456
10978SOL    HW133512   4.719   8.491   3.192  0.1530  1.8337  0.4157
10978SOL    HW233513   4.829   8.419   3.116 -0.5901  0.7069  0.3812
10979SOL     OW33514   7.252   9.216   3.591 -0.3445 -0.9559 -0.0353
10979SOL    HW133515   7.281   9.128   3.617  0.6567 -0.8125 -0.6192
10979SOL    HW233516   7.328   9.272   3.606 -1.9650  0.5695  3.6567
10980SOL     OW33517   4.719   5.998   1.542 -0.5524  0.3355 -0.4405
10980SOL    HW133518   4.646   6.057   1.559  0.1650  1.2578 -0.5221
10980SOL    HW233519   4.731   5.999   1.447  0.9758  1.9518 -0.2797
10981SOL     OW33520   8.673   0.570   2.397  0.3096  0.2483 -0.2258
10981SOL    HW133521   8.754   0.555   2.348  1.6216  0.7650  1.6678
10981SOL    HW233522   8.632   0.645   2.354  0.0845 -0.8801 -2.0573
10982SOL     OW33523   1.252   1.444   5.378 -0.8224 -0.1673  0.3451
10982SOL    HW133524   1.180   1.507   5.386 -1.2418 -0.6461  0.4250
10982SOL    HW233525   1.254   1.400   5.463 -2.4442 -2.2661 -0.6031
10983SOL     OW33526   5.229   6.669   2.749 -0.9304  0.2758 -0.3881
10983SOL    HW133527   5.197   6.583   2.721 -1.3532  0.1993  0.3068
10983SOL    HW233528   5.227   6.723   2.670  1.6490 -0.9986 -1.4214
10984SOL     OW33529   6.127   4.233   8.717 -0.1992 -0.0618  0.1818
10984SOL    HW133530   6.086   4.148   8.729  2.5851 -1.5182  0.2772
10984SOL    HW233531   6.132   4.245   8.622  0.3894 -0.5676  0.1406
10985SOL     OW33532   4.921   5.880   4.768 -0.0138  0.2571 -0.2552
10985SOL    HW133533   4.837   5.837   4.785  1.4117 -2.6401  0.1173
10985SOL    HW233534   4.921   5.896   4.674 -1.1878  0.7708 -0.1795
10986SOL     OW33535   1.125   0.645   1.966  0.2910  0.3609 -0.2816
10986SOL    HW133536   1.160   0.606   1.886 -0.4731  0.3400 -0.6174
10986SOL    HW233537   1.030   0.645   1.953  0.0668 -0.5596  1.0221
10987SOL     OW33538   7.521   9.411   2.130 -0.2701 -0.0483 -0.0160
10987SOL    HW133539   7.547   9.503   2.143 -0.0932 -0.0797 -0.1322
10987SOL    HW233540   7.456   9.394   2.198 -0.3209  0.1712 -0.0075
10988SOL     OW33541   6.528   0.565   5.838  0.1413 -0.5294 -0.4163
10988SOL    HW133542   6.541   0.539   5.747  2.8696  0.5946 -0.4554
10988SOL    HW233543   6.569   0.651   5.844 -0.2849 -0.4216  1.7885
10989SOL     OW33544   4.291   6.780   6.568 -0.7093  0.2903 -0.1338
10989SOL    HW133545   4.368   6.729   6.593  2.4394  4.6869  0.1001
10989SOL    HW233546   4.292   6.780   6.472 -1.2630 -0.6663 -0.1577
10990SOL     OW33547   0.255   7.231   5.744  0.1061 -0.0793  0.5485
10990SOL    HW133548   0.266   7.141   5.775  1.9335  0.4066  1.4450
10990SOL    HW233549   0.285   7.228   5.653 -0.0067 -0.3939  0.5169
10991SOL     OW33550   7.636   0.388   3.769  0.1248  0.1304 -0.0857
10991SOL    HW133551   7.614   0.470   3.813  0.0482 -0.1170  0.3378
10991SOL    HW233552   7.731   0.392   3.756  0.1288  0.2581 -0.0142
10992SOL     OW33553   5.422   0.185   2.810  0.3352 -0.1267  0.6995
10992SOL    HW133554   5.336   0.224   2.828  0.3742  0.5392 -0.4320
10992SOL    HW233555   5.403   0.108   2.757  0.4421  0.2998  0.0205
10993SOL     OW33556   3.886   7.711   6.048 -0.2172 -0.1669  0.0585
10993SOL    HW133557   3.834   7.630   6.047 -2.2510  1.0570 -0.7985
10993SOL    HW233558   3.902   7.730   5.956 -1.2159  1.2382  0.1428
10994SOL     OW33559   3.958   0.580   5.390 -0.2525  0.3801 -0.0098
10994SOL    HW133560   4.018   0.649   5.360 -0.1622  0.5067  0.4536
10994SOL    HW233561   3.975   0.573   5.484 -1.0170  0.4672  0.1380
10995SOL     OW33562   9.805   9.783   9.460 -0.1029  0.3651  0.4456
10995SOL    HW133563   9.820   9.744   9.546 -1.1296 -2.5888 -0.5810
10995SOL    HW233564   9.856   9.730   9.399 -0.2757  1.6820 -0.9307
10996SOL     OW33565   2.659   9.941   2.732  0.3132 -0.0868 -0.2250
10996SOL    HW133566   2.703   9.904   2.808  0.0633  1.7118  0.8573
10996SOL    HW233567   2.578   9.891   2.725  0.5716 -0.6073  0.3748
10997SOL     OW33568   0.872   9.930   9.489  0.8158  0.0950 -0.2850
10997SOL    HW133569   0.798   9.953   9.433 -0.7319 -2.6717  0.4397
10997SOL    HW233570   0.839   9.942   9.578  1.2720 -1.0081  0.0493
10998SOL     OW33571   1.113   1.700   5.592 -0.4258  0.2156  0.5051
10998SOL    HW133572   1.094   1.610   5.566  5.0224 -1.4663  1.0908
10998SOL    HW233573   1.126   1.747   5.509 -0.1483 -0.4700  0.1507
10999SOL     OW33574   3.397   5.011   6.558 -0.1052 -0.1151 -0.5893
10999SOL    HW133575   3.394   4.926   6.601 -1.5639  0.2497  0.0895
10999SOL    HW233576   3.487   5.041   6.570 -0.3673 -0.1728  1.9551
11000SOL     OW33577   8.826   6.064   8.278  0.2965 -0.0073  0.0388
11000SOL    HW133578   8.742   6.046   8.236  1.1665 -0.8856 -1.3933
11000SOL    HW233579   8.851   6.150   8.245 -0.7008  0.9736  1.6605
11001SOL     OW33580   8.276   0.635   1.824  0.1690 -0.3050 -0.2916
11001SOL    HW133581   8.278   0.667   1.915  0.9746 -0.8584 -0.1118
11001SOL    HW233582   8.360   0.591   1.812 -0.4384 -1.3329 -0.9069
11002SOL     OW33583   4.409   2.928   8.849 -0.0845 -1.0621 -0.2397
11002SOL    HW133584   4.358   2.997   8.892  1.2082  0.8852 -1.6752
11002SOL    HW233585   4.345   2.882   8.794 -0.8832 -0.7975  0.4439
11003SOL     OW33586   1.880   4.336   2.321  0.3174  0.5559  0.3906
11003SOL    HW133587   1.972   4.352   2.343  0.7907 -0.2235 -0.8793
11003SOL    HW233588   1.839   4.313   2.404  1.5478 -0.2567  0.8033
11004SOL     OW33589   8.466   6.340   3.320  0.0256  0.7686  0.1007
11004SOL    HW133590   8.532   6.288   3.274 -0.0321  1.0941 -0.3597
11004SOL    HW233591   8.383   6.310   3.283 -0.1259  0.0596  0.9778
11005SOL     OW33592   5.727   3.779   8.097 -0.3849 -0.2262  0.1107
11005SOL    HW133593   5.719   3.841   8.169  1.9645 -0.6089  0.7782
11005SOL    HW233594   5.659   3.713   8.114 -1.0050  0.6145  0.9729
11006SOL     OW33595   1.067   4.472   9.628  0.2708  0.1083 -0.1995
11006SOL    HW133596   1.007   4.416   9.677  0.0694 -1.3719 -2.0031
11006SOL    HW233597   1.010   4.541   9.592  0.1474  0.2939  0.3464
11007SOL     OW33598   8.039   3.097   2.609  0.1307 -0.0918  0.0759
11007SOL    HW133599   8.010   3.118   2.520  0.9582  0.7158 -0.0226
11007SOL    HW233600   8.074   3.180   2.643  0.9014 -0.6660  0.7283
11008SOL     OW33601   6.990   7.635   1.727 -0.3649  0.0113 -0.2683
11008SOL    HW133602   6.911   7.624   1.780 -1.4142 -0.1781 -1.8120
11008SOL    HW233603   7.041   7.702   1.774 -0.9502 -0.5635  1.2653
11009SOL     OW33604   2.947   4.599   5.092 -0.3456  0.3679 -0.3818
11009SOL    HW133605   3.039   4.608   5.116 -0.2876 -1.7408  0.3703
11009SOL    HW233606   2.908   4.551   5.164 -1.5399 -0.7501 -1.7148
11010SOL     OW33607   0.995   2.218   4.235 -0.1086 -0.3509 -0.1617
11010SOL    HW133608   1.012   2.272   4.158  0.6877 -0.1780  0.1292
11010SOL    HW233609   0.935   2.150   4.204 -1.4060  0.8701 -0.4543
11011SOL     OW33610   2.408   8.762   5.349  0.4592 -0.4097 -0.7305
11011SOL    HW133611   2.339   8.816   5.310  1.6648  1.9639  0.2417
11011SOL    HW233612   2.394   8.675   5.311 -1.3684  0.6193 -2.6603
11012SOL     OW33613   6.026   7.096   5.018  0.1825 -0.1753  0.0598
11012SOL    HW133614   5.941   7.103   5.062 -0.0149  0.3381 -0.3889
11012SOL    HW233615   6.036   7.179   4.972  1.1882 -0.0084  0.5557
11013SOL     OW33616   4.036   5.673   4.429  0.3697 -0.0847  0.3269
11013SOL    HW133617   3.998   5.760   4.437  1.9474  0.6971 -0.3508
11013SOL    HW233618   4.002   5.640   4.345 -1.5944 -0.8713  1.3660
11014SOL     OW33619   8.296   5.696   8.796  0.3621 -0.0471 -0.0986
11014SOL    HW133620   8.277   5.661   8.709  1.3170 -1.2618  0.1482
11014SOL    HW233621   8.366   5.759   8.782  0.7070 -0.4459 -0.1843
11015SOL     OW33622   9.514   3.424   7.902  0.1325 -0.2699 -0.0203
11015SOL    HW133623   9.436   3.392   7.948 -0.0332  1.0758  0.6941
11015SOL    HW233624   9.484   3.442   7.813  0.0213 -1.2427 -0.1881
11016SOL     OW33625   0.074   6.504   0.171 -0.2868 -0.2557  0.4289
11016SOL    HW133626   0.082   6.485   0.264  0.9408  0.7553  0.5550
11016SOL    HW233627   0.153   6.467   0.131 -2.3395 -3.7796 -0.8258
11017SOL     OW33628   3.407   2.023   9.637  0.3703 -0.0472  0.2858
11017SOL    HW133629   3.341   2.039   9.569  0.6901  0.5812  0.1200
11017SOL    HW233630   3.491   2.028   9.591  0.5921  0.4590  0.7381
11018SOL     OW33631   0.169   2.510   2.452  0.3927 -0.6160  0.1360
11018SOL    HW133632   0.259   2.541   2.442  0.5252  0.0634  2.6404
11018SOL    HW233633   0.145   2.537   2.541 -2.6203  0.0597 -0.7908
11019SOL     OW33634   0.301   1.672   6.146 -0.3783  0.6408 -0.0758
11019SOL    HW133635   0.390   1.700   6.122  0.3940 -1.9609 -0.6200
11019SOL    HW233636   0.262   1.644   6.063 -0.0364 -2.3740  0.6610
11020SOL     OW33637   1.600   5.001   6.847  0.2782 -0.1413 -0.4462
11020SOL    HW133638   1.692   5.017   6.828 -0.0589  1.3492 -1.0143
11020SOL    HW233639   1.559   5.088   6.840 -0.7848 -0.3782  2.0169
11021SOL     OW33640   0.135   0.755   9.618 -0.0695  0.7072 -0.2217
11021SOL    HW133641   0.206   0.694   9.638  0.4005  0.8303 -1.4522
11021SOL    HW233642   0.119   0.801   9.701  0.9071  0.2898  0.2139
11022SOL     OW33643   9.285   9.542   5.121 -0.0307  0.0344 -0.0236
11022SOL    HW133644   9.240   9.471   5.167  0.4056  0.1406  0.5796
11022SOL    HW233645   9.219   9.576   5.060 -1.4226  1.4282  2.1373
11023SOL     OW33646   9.172   4.626   9.226  0.1832 -0.5405 -0.4297
11023SOL    HW133647   9.176   4.533   9.203  0.4943 -0.6697  0.1292
11023SOL    HW233648   9.177   4.628   9.322 -0.8918  0.0028 -0.3686
11024SOL     OW33649   5.495  -0.004   5.310 -0.4621 -0.5338 -0.2068
11024SOL    HW133650   5.559   0.067   5.297 -0.7531  0.1186  1.5545
11024SOL    HW233651   5.478  -0.003   5.404 -1.1999 -2.3528 -0.2844
11025SOL     OW33652   5.038   7.965   5.632 -0.1269  0.1015  0.5764
11025SOL    HW133653   5.049   7.870   5.622  1.6097  0.3294 -0.0013
11025SOL    HW233654   4.943   7.978   5.639 -0.4111 -1.6388  0.3300
11026SOL     OW33655   7.582   1.475   5.508 -0.2028 -0.0724 -0.0762
11026SOL    HW133656   7.642   1.435   5.445 -0.5864  0.2431 -0.6438
11026SOL    HW233657   7.580   1.568   5.485  0.7416  0.3165  1.2782
11027SOL     OW33658   4.863   2.381   0.235 -0.0960 -0.3205  0.2324
11027SOL    HW133659   4.946   2.417   0.267  0.3815 -1.5681  0.4325
11027SOL    HW233660   4.825   2.336   0.310 -1.4764  1.0870  0.4273
11028SOL     OW33661   1.132   9.599   4.126 -0.0041 -1.2037  0.5459
11028SOL    HW133662   1.179   9.544   4.064  0.0392  1.2455 -1.7560
11028SOL    HW233663   1.200   9.643   4.176  0.0229 -1.2193  0.5227
11029SOL     OW33664   1.972   6.043   6.953 -0.3891  0.7251  0.1561
11029SOL    HW133665   1.888   5.997   6.946  0.1895 -0.3005 -0.2615
11029SOL    HW233666   1.957   6.127   6.908 -1.2280  0.6233  0.2243
11030SOL     OW33667   8.773   4.321   8.714  0.1293  0.3395 -0.0943
11030SOL    HW133668   8.769   4.412   8.746  1.9500  0.6922 -0.7141
11030SOL    HW233669   8.725   4.323   8.631  1.6712  1.2185 -1.0192
11031SOL     OW33670   8.463   6.221   8.672  0.1952  0.3281 -0.6973
11031SOL    HW133671   8.414   6.302   8.659  1.3542  1.1663 -0.0134
11031SOL    HW233672   8.548   6.249   8.706 -0.0544 -1.2657  1.4711
11032SOL     OW33673   3.772   5.218   4.636 -0.3977 -0.0446  0.5086
11032SOL    HW133674   3.678   5.206   4.627 -0.4759  0.9047  0.0308
11032SOL    HW233675   3.797   5.274   4.562  0.2210  1.3367  1.7220
11033SOL     OW33676   9.325   2.000   2.895 -0.0055  0.5137  0.2060
11033SOL    HW133677   9.308   1.953   2.814 -1.4413 -1.5254  1.5837
11033SOL    HW233678   9.381   2.073   2.869  2.3800 -1.8999 -2.1142
11034SOL     OW33679   9.358   6.795   1.913 -0.1330  1.1230 -0.1786
11034SOL    HW133680   9.345   6.727   1.979  2.4266  1.1408  0.4292
11034SOL    HW233681   9.301   6.867   1.941 -1.7588 -0.1479 -0.0245
11035SOL     OW33682   6.087   7.335   3.322 -0.1021 -0.3231 -0.0469
11035SOL    HW133683   6.144   7.376   3.388 -1.9851  1.2985  0.6573
11035SOL    HW233684   6.087   7.397   3.249 -1.2330 -0.1068  0.1198
11036SOL     OW33685   4.345   0.783   9.142  0.0487  0.0542  0.7308
11036SOL    HW133686   4.365   0.871   9.175  1.1239 -0.3559  1.2150
11036SOL    HW233687   4.252   0.788   9.118 -0.7458  0.5055  3.4785
11037SOL     OW33688   5.724   8.570   1.353 -0.5394 -0.0470  0.3905
11037SOL    HW133689   5.635   8.583   1.323 -0.7932  3.0750  2.1022
11037SOL    HW233690   5.769   8.653   1.334  1.6082 -1.0113  0.8719
11038SOL     OW33691   5.643   4.406   2.662  0.2057  0.6308 -0.1958
11038SOL    HW133692   5.634   4.500   2.652  1.6070  0.7564 -0.5222
11038SOL    HW233693   5.735   4.388   2.643  0.1338 -0.7146  0.5411
11039SOL     OW33694   9.936   3.922   9.141  0.1126 -0.0879  0.2556
11039SOL    HW133695   9.915   3.913   9.234  1.0457  1.1316  0.6146
11039SOL    HW233696  10.031   3.921   9.138  0.2218  2.9188 -0.2791
11040SOL     OW33697   2.665   1.102   0.766 -0.4014 -0.4848  0.1783
11040SOL    HW133698   2.676   1.185   0.721 -0.5919 -1.5533 -1.9301
11040SOL    HW233699   2.754   1.070   0.780 -0.3221  0.1182  1.1369
11041SOL     OW33700   6.107   2.032   2.470 -0.2892  0.4823  0.0960
11041SOL    HW133701   6.046   1.970   2.510 -0.3922  0.6102  0.1374
11041SOL    HW233702   6.184   1.979   2.448 -0.0296  0.5080  0.9200
11042SOL     OW33703   0.004   8.141   2.168  0.3245 -0.1776 -0.3821
11042SOL    HW133704  -0.042   8.216   2.206  0.7464 -0.2922  0.3758
11042SOL    HW233705   0.097   8.164   2.173  0.4150 -0.4169 -0.8814
11043SOL     OW33706   7.090   9.629   8.594  0.2604  1.2074  0.1267
11043SOL    HW133707   7.158   9.602   8.533  0.2392 -0.0503  0.6273
11043SOL    HW233708   7.008   9.620   8.545  0.0783 -1.3748  0.7600
11044SOL     OW33709   2.035   0.168   2.138 -0.9264 -0.5686  0.1216
11044SOL    HW133710   2.078   0.086   2.113  0.8494  1.0109 -2.5316
11044SOL    HW233711   1.955   0.169   2.086  0.0913  0.2637 -1.4922
11045SOL     OW33712   2.444   2.584   4.021  0.1385  0.4765 -0.4074
11045SOL    HW133713   2.349   2.596   4.010  0.2974  0.0953 -2.9227
11045SOL    HW233714   2.473   2.664   4.064 -1.2535  0.8324 -0.0561
11046SOL     OW33715   0.916   2.745   3.526  0.2342 -0.1011  0.0684
11046SOL    HW133716   0.873   2.829   3.537 -0.3514 -0.3514 -0.2774
11046SOL    HW233717   0.882   2.710   3.444 -1.0171 -1.5263  1.1239
11047SOL     OW33718   0.578   5.725   0.974  0.1752  0.1830  0.0173
11047SOL    HW133719   0.540   5.810   0.955  0.2080  0.1544 -0.1762
11047SOL    HW233720   0.523   5.663   0.927  0.4669  0.1427 -0.2756
11048SOL     OW33721   6.405   4.215   9.324 -0.4656  0.2801 -0.5157
11048SOL    HW133722   6.468   4.232   9.254 -0.5904 -0.5422 -0.8421
11048SOL    HW233723   6.441   4.139   9.370 -0.8694  0.2329 -0.2764
11049SOL     OW33724   5.466   8.544   1.122  0.1892 -0.5756 -0.4031
11049SOL    HW133725   5.413   8.490   1.180 -0.8486  0.1882 -0.6189
11049SOL    HW233726   5.484   8.624   1.172 -1.8704  0.6910 -1.5540
11050SOL     OW33727   6.328   1.497   4.448 -0.1169 -0.2962  0.2289
11050SOL    HW133728   6.372   1.417   4.476 -1.5901 -0.4931  2.1771
11050SOL    HW233729   6.260   1.467   4.387 -2.4735 -0.9730  3.0072
11051SOL     OW33730   8.005   2.568   6.581  0.0982 -0.2489 -0.1909
11051SOL    HW133731   8.024   2.478   6.606 -0.4136 -0.8575 -1.8724
11051SOL    HW233732   8.090   2.610   6.572  0.5540 -1.5578 -2.7801
11052SOL     OW33733   7.148   4.133   0.639 -0.1262 -0.8225 -0.0436
11052SOL    HW133734   7.238   4.103   0.655 -0.8264 -3.9833 -1.2180
11052SOL    HW233735   7.119   4.168   0.723  2.6421  1.8366 -0.0441
11053SOL     OW33736   2.630   2.361   9.295  0.4030 -0.0818  0.2496
11053SOL    HW133737   2.702   2.409   9.334  0.6554  0.8099 -1.2348
11053SOL    HW233738   2.659   2.270   9.294  0.9001  0.0645  0.9561
11054SOL     OW33739   1.077   5.534   0.522  0.2507  0.0314 -0.3701
11054SOL    HW133740   1.131   5.614   0.517 -0.1916  0.2677 -1.7192
11054SOL    HW233741   1.114   5.486   0.596  1.1157  1.0601 -0.0941
11055SOL     OW33742   5.189   4.938   7.251 -0.7009 -0.1523  0.7566
11055SOL    HW133743   5.171   4.847   7.228 -0.6279  0.1831 -0.7012
11055SOL    HW233744   5.104   4.974   7.276 -1.2300  0.0299 -1.1190
11056SOL     OW33745   5.774   6.340   2.292 -0.2352  0.5665 -0.0101
11056SOL    HW133746   5.797   6.312   2.203 -3.2089  0.9200 -1.0419
11056SOL    HW233747   5.736   6.262   2.333  0.2200  0.6576  0.5897
11057SOL     OW33748   1.361   1.292   9.164  0.2069  0.0902  0.1134
11057SOL    HW133749   1.284   1.281   9.221 -1.5967  0.1723 -2.1406
11057SOL    HW233750   1.352   1.382   9.130  0.6376 -0.2960 -1.0749
11058SOL     OW33751   1.011   6.326   5.075  0.3105 -0.1730  0.1925
11058SOL    HW133752   1.043   6.278   5.152 -2.3188 -0.5823  1.1532
11058SOL    HW233753   0.975   6.407   5.110 -1.4147 -0.5970 -0.4561
11059SOL     OW33754   0.793   4.392   8.189 -0.1006 -0.0458  0.2950
11059SOL    HW133755   0.791   4.416   8.097 -2.9764  0.3459  0.3654
11059SOL    HW233756   0.809   4.475   8.235 -0.6804  0.1106  0.2155
11060SOL     OW33757   1.497   0.437   4.220  0.6132 -0.2308 -0.2235
11060SOL    HW133758   1.558   0.496   4.263 -1.6915  2.1318  0.0815
11060SOL    HW233759   1.430   0.419   4.287 -1.4092  1.0278 -1.7720
11061SOL     OW33760   2.730   5.346   0.965  0.0861  0.3121  0.0259
11061SOL    HW133761   2.694   5.362   1.052  0.8385 -1.7690  0.7639
11061SOL    HW233762   2.659   5.372   0.905 -1.4878 -0.7323  1.3337
11062SOL     OW33763   5.785   0.326   2.219 -0.2246  0.3393  0.1069
11062SOL    HW133764   5.875   0.298   2.205 -0.0169  1.2460 -0.4429
11062SOL    HW233765   5.762   0.374   2.139 -0.9702  0.6765  0.5124
11063SOL     OW33766   6.827   4.470   8.410 -0.8767 -0.6053  0.2927
11063SOL    HW133767   6.904   4.493   8.358 -0.2198 -1.8641  0.6634
11063SOL    HW233768   6.807   4.549   8.460 -0.7437  0.2115 -0.8989
11064SOL     OW33769   1.290   6.803   7.112  0.0770  0.2844 -0.1852
11064SOL    HW133770   1.208   6.819   7.066 -0.5298 -1.2522  0.3025
11064SOL    HW233771   1.334   6.888   7.112 -0.6113  0.7031 -2.1584
11065SOL     OW33772   4.088   5.858   5.296  0.2577  0.1868 -0.0727
11065SOL    HW133773   4.165   5.809   5.325 -0.0132  0.5104  1.2786
11065SOL    HW233774   4.121   5.947   5.282 -0.0858  0.6738  1.8682
11066SOL     OW33775   2.152   2.321   7.427 -0.0562  0.0473 -0.1686
11066SOL    HW133776   2.139   2.226   7.430  0.4309 -0.0071  0.3738
11066SOL    HW233777   2.218   2.334   7.358  0.3424 -0.0656  0.1883
11067SOL     OW33778   3.940   6.996   4.602 -0.2952 -0.1482  0.3029
11067SOL    HW133779   3.859   6.993   4.653 -1.9212  1.3554 -2.0188
11067SOL    HW233780   3.959   6.905   4.581 -0.5018 -0.6488  2.0682
11068SOL     OW33781   2.677   1.824   1.749  0.3451  0.1198 -0.5803
11068SOL    HW133782   2.630   1.825   1.665  0.7132 -0.5996 -0.8048
11068SOL    HW233783   2.689   1.916   1.771 -0.3001  0.3136 -1.0126
11069SOL     OW33784   1.784   7.222   2.528  0.0920  0.3243  0.8730
11069SOL    HW133785   1.812   7.179   2.609 -2.0508 -1.2257  0.8975
11069SOL    HW233786   1.690   7.205   2.524  0.1317  0.3123 -1.9493
11070SOL     OW33787   2.638   6.647   5.246  0.4473 -0.7562 -0.4385
11070SOL    HW133788   2.565   6.643   5.185 -0.2959 -1.4600  0.4751
11070SOL    HW233789   2.709   6.687   5.195 -0.5565 -0.0494 -1.3307
11071SOL     OW33790   3.242   9.436   7.500 -0.1729  0.0421 -0.0825
11071SOL    HW133791   3.201   9.378   7.564  0.8836 -1.0171 -0.3341
11071SOL    HW233792   3.249   9.383   7.421  0.4670  0.6353 -0.4343
11072SOL     OW33793   9.861   6.664   0.780 -0.1768 -0.3243 -0.1454
11072SOL    HW133794   9.901   6.738   0.735 -1.9721  0.8983  0.1508
11072SOL    HW233795   9.889   6.673   0.871  1.1329 -1.1488 -0.4351
11073SOL     OW33796   5.788   6.593   2.393  0.1585  0.2728 -0.0045
11073SOL    HW133797   5.701   6.628   2.409  0.3926  1.3902 -1.0499
11073SOL    HW233798   5.772   6.505   2.359 -0.6136  0.6982 -0.8020
11074SOL     OW33799   2.912   8.079   4.934 -0.5346  0.5501 -0.1221
11074SOL    HW133800   2.920   8.000   4.882 -1.2877  1.2245 -1.2998
11074SOL    HW233801   2.972   8.066   5.008  0.7777 -0.3085 -1.2960
11075SOL     OW33802   1.337   7.328   3.327 -0.1489 -0.2529 -0.1181
11075SOL    HW133803   1.394   7.385   3.378 -1.2334  1.5212 -0.8152
11075SOL    HW233804   1.395   7.290   3.260  0.9382 -1.3906  1.3961
11076SOL     OW33805   5.046   8.474   3.663  0.1726  0.0138  0.5665
11076SOL    HW133806   5.100   8.548   3.634  0.7473 -0.6918 -0.2259
11076SOL    HW233807   4.987   8.458   3.589  0.0145 -0.2826  0.7554
11077SOL     OW33808   0.909   7.721   9.584 -0.3831  0.1756  0.1012
11077SOL    HW133809   0.855   7.670   9.643  1.9802 -1.6072  0.9133
11077SOL    HW233810   0.858   7.727   9.503 -1.9644 -0.9385  0.9702
11078SOL     OW33811   2.012   7.193   7.070  0.0653 -0.0262 -0.1128
11078SOL    HW133812   1.966   7.271   7.038 -0.5921  0.3614  1.6209
11078SOL    HW233813   2.094   7.191   7.022 -1.0600  0.1993 -2.1278
11079SOL     OW33814   3.900   0.136   6.290  0.3965 -0.1470 -0.5927
11079SOL    HW133815   3.842   0.061   6.276  0.3510 -0.1140 -0.5783
11079SOL    HW233816   3.861   0.183   6.364 -0.8329  1.1369 -1.9867
11080SOL     OW33817   9.986   8.518   9.353 -0.1755 -0.0223  0.0589
11080SOL    HW133818   9.908   8.483   9.312  0.7131  0.4609 -2.1642
11080SOL    HW233819  10.000   8.603   9.310  1.6884 -0.2042  0.2180
11081SOL     OW33820   2.568   4.175   1.719 -0.3050 -0.3790 -0.2077
11081SOL    HW133821   2.540   4.142   1.634  2.4534 -0.5600 -1.1533
11081SOL    HW233822   2.647   4.227   1.700 -1.2150  1.9927  1.9229
11082SOL     OW33823   8.001   8.475   0.688 -0.0237  0.2366 -0.4600
11082SOL    HW133824   7.912   8.509   0.684 -0.9558 -1.8497  0.8454
11082SOL    HW233825   8.030   8.494   0.777 -0.3915 -1.8028  0.1464
11083SOL     OW33826   2.130   0.713   5.853  0.0688  0.2102 -0.1574
11083SOL    HW133827   2.192   0.695   5.923  0.9739  1.3906 -0.6370
11083SOL    HW233828   2.049   0.737   5.899  0.6057  0.8221  0.4887
11084SOL     OW33829   4.628   6.036   4.470 -0.6114  0.3156  0.3494
11084SOL    HW133830   4.599   5.947   4.487  0.7360 -0.7977 -2.4891
11084SOL    HW233831   4.559   6.074   4.415  0.7541 -0.6224 -2.1908
11085SOL     OW33832   3.957   8.366   2.173 -0.0455 -0.0231 -0.1621
11085SOL    HW133833   4.018   8.334   2.107  1.1878  1.3606  0.2460
11085SOL    HW233834   3.876   8.383   2.125 -0.6350 -3.1720 -0.4729
11086SOL     OW33835   9.579   7.859   6.954  0.2183  0.5426  0.2238
11086SOL    HW133836   9.584   7.940   7.005 -1.3909  1.0376 -0.3603
11086SOL    HW233837   9.510   7.875   6.890  0.9069 -0.7598 -0.8904
11087SOL     OW33838   1.958   0.908   0.649  0.1155  0.6193  0.2791
11087SOL    HW133839   2.007   0.876   0.725 -0.2194  0.5633  0.4737
11087SOL    HW233840   1.881   0.951   0.687  0.2186  1.0608 -0.0096
11088SOL     OW33841   6.515   8.870   6.821 -0.2219  0.4443  0.0970
11088SOL    HW133842   6.553   8.783   6.826 -1.6357 -0.5192 -3.2232
11088SOL    HW233843   6.447   8.870   6.889  0.9665 -0.3190  1.3367
11089SOL     OW33844   5.857   7.887   1.581  0.1574 -0.3543  0.1882
11089SOL    HW133845   5.913   7.838   1.641 -0.2083  1.5437  2.2476
11089SOL    HW233846   5.902   7.882   1.497  0.8960 -2.8316  0.6491
11090SOL     OW33847   1.055   4.838   2.968 -0.2197 -0.1009  0.1873
11090SOL    HW133848   1.089   4.772   3.029  0.2321 -0.6747 -0.6499
11090SOL    HW233849   1.050   4.791   2.884  3.9313  1.8809 -1.4404
11091SOL     OW33850   4.193   8.054   8.387  0.0870  0.1733  0.4052
11091SOL    HW133851   4.244   8.024   8.463  0.6526 -1.0358 -0.4136
11091SOL    HW233852   4.259   8.075   8.321 -0.4285  0.4713 -0.0246
11092SOL     OW33853   8.562   9.256   6.513 -0.3662  0.0098  0.1568
11092SOL    HW133854   8.576   9.292   6.425 -1.1421  2.9346  1.1094
11092SOL    HW233855   8.640   9.282   6.562  0.3025 -2.0573  0.2556
11093SOL     OW33856   0.490   4.331   3.066  0.4011  0.2106  0.2056
11093SOL    HW133857   0.434   4.282   3.005 -0.1449 -0.3712  1.1599
11093SOL    HW233858   0.566   4.356   3.013  0.3478 -1.0292 -0.5058
11094SOL     OW33859   4.538   4.088   5.860  0.1844 -0.7452 -0.1450
11094SOL    HW133860   4.546   4.177   5.894 -1.4681 -0.1185 -1.2613
11094SOL    HW233861   4.521   4.099   5.766  0.8895 -2.2799 -0.4832
11095SOL     OW33862   7.538   9.927   8.009 -0.0348 -0.4683  0.3660
11095SOL    HW133863   7.632   9.937   8.023  0.2887 -1.3552 -0.9045
11095SOL    HW233864   7.523   9.832   8.018 -1.1418 -0.1573  2.2845
11096SOL     OW33865   9.217   4.738   2.111 -0.0635 -0.5223  0.6661
11096SOL    HW133866   9.209   4.827   2.146 -0.3373 -0.5277  0.6244
11096SOL    HW233867   9.284   4.696   2.166  0.7124 -0.0199  0.1120
11097SOL     OW33868   4.114   4.529   2.801  0.0574 -0.2094 -0.1096
11097SOL    HW133869   4.078   4.617   2.793  1.4392  0.5786  1.6579
11097SOL    HW233870   4.206   4.538   2.774  0.4967 -0.8656  1.1102
11098SOL     OW33871   7.325   1.639   1.193  0.5297 -0.0727  0.3852
11098SOL    HW133872   7.388   1.692   1.241 -1.4512  1.2092  1.7418
11098SOL    HW233873   7.285   1.583   1.260 -0.4252 -0.1685 -0.2394
11099SOL     OW33874   7.736   7.954   4.998  0.1162 -0.3863 -0.4385
11099SOL    HW133875   7.730   7.958   4.902  0.2742  0.2799 -0.4250
11099SOL    HW233876   7.804   8.017   5.020  0.3521 -0.8191  0.0914
11100SOL     OW33877   1.016   3.090   3.453 -0.5360 -0.2063  0.2317
11100SOL    HW133878   0.998   3.156   3.520  0.8897  0.8981 -0.4157
11100SOL    HW233879   1.080   3.032   3.493  2.3399  1.9370 -0.9063
11101SOL     OW33880   8.463   1.853   9.232  0.0866 -0.2901  0.1832
11101SOL    HW133881   8.386   1.834   9.178  0.0953 -1.0986  0.4322
11101SOL    HW233882   8.438   1.823   9.320  1.1765 -1.8868 -0.0135
11102SOL     OW33883   3.331   6.600   9.210 -0.4307  0.2250 -0.1283
11102SOL    HW133884   3.396   6.662   9.242  0.9239 -0.6210 -1.1093
11102SOL    HW233885   3.247   6.642   9.226  0.4132  1.9676 -0.0601
11103SOL     OW33886   7.339   7.140   8.052 -0.4489  0.7309  0.1074
11103SOL    HW133887   7.298   7.220   8.084 -1.1795 -0.3378  1.9640
11103SOL    HW233888   7.370   7.096   8.131  0.1123 -0.7340 -0.8939
11104SOL     OW33889   6.892   5.140   6.281 -0.3341  0.6154 -0.5757
11104SOL    HW133890   6.839   5.065   6.254  1.5595 -1.0807  0.0606
11104SOL    HW233891   6.954   5.153   6.209  1.0708 -0.2506  0.4114
11105SOL     OW33892   1.852   0.535   4.070 -0.3759 -0.0965 -0.4595
11105SOL    HW133893   1.840   0.581   4.153  0.1994  0.0471 -0.4508
11105SOL    HW233894   1.906   0.593   4.018 -0.5862 -0.2683 -0.8736
11106SOL     OW33895   5.869   2.611   0.581  0.2448 -0.0664 -0.4860
11106SOL    HW133896   5.909   2.544   0.525  0.8350 -1.6300  1.6809
11106SOL    HW233897   5.932   2.623   0.653 -0.0094  2.5945 -0.6011
11107SOL     OW33898   0.550   4.434   7.164 -0.0747  0.8996 -0.1535
11107SOL    HW133899   0.587   4.351   7.135 -1.7555  0.3520 -0.8884
11107SOL    HW233900   0.493   4.410   7.237 -0.2590  1.4738 -0.1010
11108SOL     OW33901   5.598   2.164   3.117  0.3752  0.2877 -0.0251
11108SOL    HW133902   5.537   2.090   3.123  1.6729 -0.7242  2.6955
11108SOL    HW233903   5.644   2.150   3.034 -0.6413 -0.9246 -0.4172
11109SOL     OW33904   2.635   5.352   0.394  0.3030 -0.3172  0.1946
11109SOL    HW133905   2.657   5.297   0.470  3.4654  1.6658  0.8943
11109SOL    HW233906   2.701   5.330   0.328  0.2485  1.0351 -0.3447
11110SOL     OW33907   9.528   9.558   0.578  0.2329  0.5878  0.3425
11110SOL    HW133908   9.437   9.558   0.550  0.9389  2.1662 -2.3934
11110SOL    HW233909   9.575   9.513   0.508  1.9518  3.2792 -0.4151
11111SOL     OW33910   9.398   0.096   9.422 -0.1219 -0.0433  0.3855
11111SOL    HW133911   9.472   0.040   9.396 -1.1106 -1.1966 -0.0462
11111SOL    HW233912   9.439   0.177   9.453  1.2921 -0.3271 -0.6225
11112SOL     OW33913   7.378   3.372   1.109 -0.4868  0.1010 -0.0493
11112SOL    HW133914   7.337   3.295   1.071 -1.0380  1.1405 -1.6476
11112SOL    HW233915   7.328   3.390   1.188 -1.7089  0.0432 -0.7952
11113SOL     OW33916   2.545   9.654   0.530  0.0919  0.4118  0.0803
11113SOL    HW133917   2.507   9.587   0.472  1.7427 -1.0076  0.5872
11113SOL    HW233918   2.539   9.735   0.478 -1.6836 -0.1236 -0.6582
11114SOL     OW33919   8.188   6.694   2.055 -0.2997 -0.6248  0.1481
11114SOL    HW133920   8.225   6.752   1.988  0.8220 -0.1515  1.1559
11114SOL    HW233921   8.171   6.612   2.008 -0.9635  0.1724 -1.0576
11115SOL     OW33922   1.158   5.492   1.951 -0.3301  0.1129 -0.8260
11115SOL    HW133923   1.217   5.482   1.877 -0.4097  1.7865 -1.1681
11115SOL    HW233924   1.119   5.579   1.938 -1.5288 -0.2267  0.3337
11116SOL     OW33925   7.748   8.010   3.471 -0.3436  0.4651 -0.2990
11116SOL    HW133926   7.718   7.921   3.453 -0.1747  0.2666  0.3740
11116SOL    HW233927   7.763   8.049   3.385 -0.3592 -0.1778 -0.5924
11117SOL     OW33928   0.889   5.993   0.343 -0.7466  0.6504 -0.0613
11117SOL    HW133929   0.937   6.051   0.402 -1.6325  1.8597 -0.4840
11117SOL    HW233930   0.948   5.980   0.269 -1.3010  2.7404 -0.9345
11118SOL     OW33931   8.482   9.268   3.236  0.3219 -0.0562  0.0845
11118SOL    HW133932   8.419   9.304   3.299  1.1012  3.5364 -0.9934
11118SOL    HW233933   8.433   9.258   3.155  0.5288  0.1983 -0.0707
11119SOL     OW33934   2.586   3.186   7.515 -0.5634 -0.2800  0.3543
11119SOL    HW133935   2.671   3.143   7.505 -0.7389 -0.4480 -0.4754
11119SOL    HW233936   2.606   3.270   7.555 -0.1569 -0.8984  1.4847
11120SOL     OW33937   9.923   5.658   0.848 -0.0002  0.2029  0.1309
11120SOL    HW133938   9.944   5.669   0.940  1.9153 -1.2297 -0.0648
11120SOL    HW233939   9.922   5.747   0.812  0.4438  0.6861  1.2900
11121SOL     OW33940   9.762   8.900   2.941  0.6642  0.3848 -0.0536
11121SOL    HW133941   9.730   8.813   2.963  1.1810 -0.2979 -1.8871
11121SOL    HW233942   9.856   8.888   2.927  0.4061  0.7749 -2.3978
11122SOL     OW33943   7.307   0.554   6.274 -0.4026  0.3894  0.2821
11122SOL    HW133944   7.234   0.549   6.213 -0.6611  0.1828  0.6055
11122SOL    HW233945   7.280   0.618   6.340  0.4117  1.5914 -0.5200
11123SOL     OW33946   8.312   2.761   9.855 -0.2641  0.0206 -0.2161
11123SOL    HW133947   8.309   2.833   9.918 -3.0546  0.2871 -0.5308
11123SOL    HW233948   8.252   2.787   9.785  0.9801 -1.3067 -1.8652
11124SOL     OW33949   2.136   7.255   1.250 -0.3157  0.4283 -0.5026
11124SOL    HW133950   2.174   7.241   1.163 -0.4600 -0.4930 -0.4316
11124SOL    HW233951   2.046   7.280   1.234 -0.7389 -1.0771 -0.6134
11125SOL     OW33952   0.448   1.743   1.205 -0.0908 -0.6342 -0.3429
11125SOL    HW133953   0.408   1.745   1.292  2.2710  0.8997  0.8294
11125SOL    HW233954   0.417   1.824   1.163  1.0142  0.1294  0.2495
11126SOL     OW33955   0.411   0.095   7.217 -0.2416  0.5910  0.3643
11126SOL    HW133956   0.470   0.021   7.204  0.5111  1.2398 -0.0095
11126SOL    HW233957   0.348   0.064   7.283  0.0458 -0.3736  0.2028
11127SOL     OW33958   5.629   8.655   4.520  0.0538 -0.7357 -0.0553
11127SOL    HW133959   5.603   8.565   4.498  2.2320 -1.4887  0.2290
11127SOL    HW233960   5.694   8.678   4.453 -1.1758  1.0266 -0.7046
11128SOL     OW33961   7.065   3.986   4.424 -0.0172  0.0286 -0.1212
11128SOL    HW133962   7.053   4.032   4.507 -0.9878 -0.7173  0.1683
11128SOL    HW233963   6.992   3.925   4.419 -0.4153  0.5696 -1.8688
11129SOL     OW33964   0.589   2.560   4.736 -0.6553 -0.1386 -0.2402
11129SOL    HW133965   0.570   2.644   4.776  1.5832  1.3229 -1.9340
11129SOL    HW233966   0.684   2.551   4.744 -0.6069 -1.5672 -1.7835
11130SOL     OW33967   0.417   5.312   5.947  0.0096  0.0883 -0.1799
11130SOL    HW133968   0.339   5.260   5.927 -0.1102  0.2701 -0.1973
11130SOL    HW233969   0.409   5.390   5.892  0.3706 -0.0431 -0.4159
11131SOL     OW33970   9.351   1.959   1.645  0.4908  0.1380 -0.3417
11131SOL    HW133971   9.291   1.995   1.711  1.5520 -0.3587  0.9404
11131SOL    HW233972   9.394   1.886   1.690  0.1723 -1.1746 -2.0858
11132SOL     OW33973   0.113   1.503   0.314 -0.4025 -0.3028  0.7611
11132SOL    HW133974   0.138   1.411   0.305 -3.1354 -1.0752  0.1791
11132SOL    HW233975   0.091   1.513   0.407 -1.6080 -0.7014  0.5348
11133SOL     OW33976   8.887   1.770   6.970  0.1677 -0.2297 -0.0903
11133SOL    HW133977   8.852   1.850   7.009 -0.4020  0.1212 -1.2978
11133SOL    HW233978   8.932   1.726   7.043  3.6147  2.8403 -0.0804
11134SOL     OW33979   3.217   7.333   1.575  0.5738  0.2386  0.2900
11134SOL    HW133980   3.303   7.297   1.550 -0.6550 -1.1736 -2.3061
11134SOL    HW233981   3.232   7.427   1.583  2.0872  0.2428 -1.7115
11135SOL     OW33982   6.572   9.005   5.977 -0.0770 -0.2551 -0.3606
11135SOL    HW133983   6.570   8.947   6.053  1.9235  0.7280  0.5393
11135SOL    HW233984   6.618   9.083   6.008 -0.2819  0.6880 -2.2627
11136SOL     OW33985   2.758   6.990   4.973  0.5820  0.2750  0.7082
11136SOL    HW133986   2.801   6.941   5.043 -0.0722 -0.1937  0.7933
11136SOL    HW233987   2.821   6.988   4.900  1.4065  1.0532  1.3791
11137SOL     OW33988   1.332   1.886   5.322 -0.5912 -0.1181 -0.5566
11137SOL    HW133989   1.417   1.881   5.279 -0.0531  0.3500  0.4195
11137SOL    HW233990   1.319   1.980   5.338 -1.5922 -0.1189 -1.2546
11138SOL     OW33991   7.071   8.282   3.867  0.0460  0.1990  0.3532
11138SOL    HW133992   7.008   8.256   3.799 -2.2267  0.9454  2.0294
11138SOL    HW233993   7.135   8.212   3.869 -1.1613 -1.0096 -0.9445
11139SOL     OW33994   5.954   1.356   8.935  0.8159  0.1242  0.1847
11139SOL    HW133995   6.028   1.381   8.989 -0.0680  1.7452  0.7086
11139SOL    HW233996   5.884   1.334   8.997  0.2827  0.4392 -0.2917
11140SOL     OW33997   9.045   8.330   3.213  0.9736 -0.2009 -0.3640
11140SOL    HW133998   9.136   8.345   3.187  0.7220 -2.4511 -2.9290
11140SOL    HW233999   9.016   8.257   3.159 -1.8370 -0.7650  1.6927
11141SOL     OW34000   9.073   9.106   9.460  0.3241  0.0346  0.2833
11141SOL    HW134001   9.004   9.104   9.394 -0.5603  1.1511  1.1231
11141SOL    HW234002   9.104   9.197   9.459  1.0144 -0.1862  0.6865
11142SOL     OW34003   0.217   3.571   9.059  0.2872 -0.1497 -0.1270
11142SOL    HW134004   0.161   3.568   9.137  1.0003  1.7664  0.5146
11142SOL    HW234005   0.275   3.495   9.068  0.4229  0.0972  1.2839
11143SOL     OW34006   2.739   2.192   2.681 -0.3984  0.4607 -0.6137
11143SOL    HW134007   2.828   2.172   2.707 -0.2064  1.0728 -0.7828
11143SOL    HW234008   2.743   2.206   2.587 -0.6237  0.7536 -0.5826
11144SOL     OW34009   3.566   0.120   4.104  0.5586  0.0352  0.3103
11144SOL    HW134010   3.506   0.134   4.030  0.6115 -3.2255 -0.5182
11144SOL    HW234011   3.535   0.039   4.144  3.4286 -0.9068  0.8580
11145SOL     OW34012   5.190   8.614   3.450  0.2918  0.1280  0.1925
11145SOL    HW134013   5.164   8.651   3.365 -1.1028  1.3046  1.0861
11145SOL    HW234014   5.161   8.679   3.514  1.3480 -0.7234  1.5804
11146SOL     OW34015   6.627   3.615   0.772  0.5570 -0.7789  0.0299
11146SOL    HW134016   6.684   3.549   0.814  1.4352 -0.4543 -0.6241
11146SOL    HW234017   6.687   3.667   0.719 -0.2611  0.0442 -0.0918
11147SOL     OW34018   5.888   5.318   9.445 -0.3664  0.0385  0.4499
11147SOL    HW134019   5.902   5.338   9.538  0.4593 -0.3892  0.4275
11147SOL    HW234020   5.818   5.253   9.445  0.0860 -0.4639  0.8281
11148SOL     OW34021   9.131   4.998   8.463 -0.5114 -0.7370 -0.5988
11148SOL    HW134022   9.080   4.968   8.388 -0.3778 -1.3444 -0.4509
11148SOL    HW234023   9.174   4.919   8.496  1.5665 -0.0384 -1.4836
11149SOL     OW34024   4.995   7.164   7.286 -0.2044 -0.0391  0.4379
11149SOL    HW134025   5.066   7.228   7.289  0.3192 -0.5904  0.1189
11149SOL    HW234026   5.028   7.090   7.337 -0.4560 -0.3867  0.1027
11150SOL     OW34027   8.827   9.004   5.156 -0.4938  0.0715 -0.5857
11150SOL    HW134028   8.894   9.067   5.182 -0.8094  0.3827 -0.5093
11150SOL    HW234029   8.814   9.021   5.062  0.3174 -0.7410 -0.8553
11151SOL     OW34030   0.605   9.041   2.963 -0.2989 -0.3169  0.5360
11151SOL    HW134031   0.674   9.037   3.029  0.8967  0.2321 -0.6346
11151SOL    HW234032   0.623   8.968   2.904 -0.3676  0.1508 -0.0851
11152SOL     OW34033   2.074   4.407   0.490 -0.2949 -0.0577 -0.2352
11152SOL    HW134034   2.017   4.367   0.425 -0.0482 -2.5778  0.9890
11152SOL    HW234035   2.113   4.334   0.538  0.4693  1.6424  1.9656
11153SOL     OW34036   4.343   3.780   0.461 -0.3263 -0.5931 -0.3167
11153SOL    HW134037   4.293   3.859   0.482  1.3257  0.3274  0.3932
11153SOL    HW234038   4.281   3.708   0.474 -1.7316  0.5327 -0.4795
11154SOL     OW34039   6.215   9.059   2.339  0.2370  0.8890  0.2827
11154SOL    HW134040   6.258   8.973   2.344  1.4896  1.5590  1.8110
11154SOL    HW234041   6.282   9.117   2.302  0.4193  1.7689  1.8965
11155SOL     OW34042   7.558   1.368   1.640 -1.0265 -0.4926  0.1795
11155SOL    HW134043   7.584   1.349   1.730  1.7676 -0.2177 -0.4670
11155SOL    HW234044   7.495   1.440   1.647  0.5476  0.8279  1.8738
11156SOL     OW34045   9.534   1.717   0.204  0.5291 -0.2129 -0.4411
11156SOL    HW134046   9.551   1.667   0.124 -1.8058 -1.0571 -0.4789
11156SOL    HW234047   9.456   1.768   0.184  1.0780  1.1379  0.6656
11157SOL     OW34048   2.328   0.657   1.008 -0.6276  0.3495  0.4838
11157SOL    HW134049   2.331   0.565   0.982  0.8105  0.5586 -0.2042
11157SOL    HW234050   2.387   0.702   0.947 -1.7716  1.8389  0.4113
11158SOL     OW34051   7.684   8.391   5.401  0.1744  0.1592  0.9278
11158SOL    HW134052   7.641   8.400   5.317  0.9382 -1.8395  0.2718
11158SOL    HW234053   7.613   8.377   5.464 -0.3135  0.1879  0.3847
11159SOL     OW34054   8.102   0.282   4.667 -0.2295 -0.1312 -0.5800
11159SOL    HW134055   8.197   0.287   4.668 -0.2365  0.3063 -1.2987
11159SOL    HW234056   8.083   0.189   4.662  0.1659 -0.2054 -0.7252
11160SOL     OW34057   3.096   3.201   5.790  1.0116 -0.1338 -0.2225
11160SOL    HW134058   3.146   3.119   5.778  1.6222  0.1727  0.1441
11160SOL    HW234059   3.094   3.241   5.704  0.1378 -0.8465 -0.5500
11161SOL     OW34060   0.565   5.232   7.833  0.6344  0.2509  0.3798
11161SOL    HW134061   0.606   5.215   7.748  1.5145  0.0204  0.8405
11161SOL    HW234062   0.637   5.232   7.896 -0.1499 -1.0571  1.3502
11162SOL     OW34063   1.303   3.415   4.655 -0.1201 -0.3358  0.0944
11162SOL    HW134064   1.291   3.487   4.717 -0.1901  0.0363 -0.3470
11162SOL    HW234065   1.267   3.338   4.700 -2.2963  0.3445 -0.3802
11163SOL     OW34066   9.303   6.006   4.967 -0.0450 -0.1424 -0.4968
11163SOL    HW134067   9.316   6.004   5.062 -1.7081 -0.0934 -0.2292
11163SOL    HW234068   9.351   6.083   4.937 -1.7918  1.5197  0.7448
11164SOL     OW34069   2.418   3.316   6.325  0.1543  0.0741  0.4500
11164SOL    HW134070   2.414   3.339   6.418 -0.4364  1.8269  0.0203
11164SOL    HW234071   2.393   3.396   6.279 -1.3018 -1.2444 -1.1808
11165SOL     OW34072   8.449   7.444   9.341  0.0282 -0.5723 -0.4883
11165SOL    HW134073   8.404   7.458   9.425 -0.7975  2.2354 -1.2889
11165SOL    HW234074   8.536   7.412   9.366 -0.1672  0.2518  1.4572
11166SOL     OW34075   5.621   7.421   1.944 -0.0255  0.5687 -0.4384
11166SOL    HW134076   5.692   7.460   1.994  0.2258  1.0358 -1.1386
11166SOL    HW234077   5.652   7.423   1.853 -0.4672 -0.2594 -0.6140
11167SOL     OW34078   1.678   2.758   9.283  0.2267  0.1297  0.1972
11167SOL    HW134079   1.671   2.668   9.314  1.0668 -0.2160 -0.5643
11167SOL    HW234080   1.695   2.750   9.190  0.0679  1.0889  0.0774
11168SOL     OW34081   7.855   8.476   8.498  0.1454  0.5651 -0.2417
11168SOL    HW134082   7.798   8.501   8.571  2.4664 -0.7773  2.1913
11168SOL    HW234083   7.831   8.385   8.478  0.7825  0.3032  0.1587
11169SOL     OW34084   5.686   4.958   4.856 -0.3477 -0.2101  0.0748
11169SOL    HW134085   5.604   4.913   4.835  0.2609 -0.7104 -1.3734
11169SOL    HW234086   5.739   4.893   4.902  0.2473 -0.7831 -1.3677
11170SOL     OW34087   6.686   4.132   0.395  0.0016  0.0371 -0.0532
11170SOL    HW134088   6.768   4.152   0.441  0.2607 -0.7288 -0.1668
11170SOL    HW234089   6.701   4.046   0.356 -0.8558 -0.0995 -0.0957
11171SOL     OW34090   0.548   1.224   5.102  0.9417 -0.1411 -0.0562
11171SOL    HW134091   0.581   1.156   5.161  0.8542 -1.7291 -1.7630
11171SOL    HW234092   0.495   1.177   5.038 -0.9118  1.8104 -0.0633
11172SOL     OW34093   8.319   6.064   0.610 -0.7411  0.0164  0.1394
11172SOL    HW134094   8.332   6.084   0.517  1.2035  1.6489  0.6933
11172SOL    HW234095   8.369   5.984   0.625 -1.1283 -0.2989 -0.2232
11173SOL     OW34096   0.604   2.458   3.519  0.6734 -0.0301  0.3692
11173SOL    HW134097   0.644   2.372   3.532 -2.0759 -1.5167 -0.1072
11173SOL    HW234098   0.573   2.456   3.429 -0.5304  0.9360  0.7375
11174SOL     OW34099   2.682   0.181   8.179  0.0565 -0.0653  0.0612
11174SOL    HW134100   2.772   0.191   8.149 -0.2648 -0.0322 -0.9337
11174SOL    HW234101   2.644   0.116   8.120 -1.2875  1.7596 -1.1721
11175SOL     OW34102   2.583   7.070   5.216 -0.0108 -0.0715  0.6072
11175SOL    HW134103   2.593   7.035   5.128 -1.1236  1.3019 -0.1036
11175SOL    HW234104   2.504   7.028   5.250 -0.5251  0.6202  0.2982
11176SOL     OW34105   2.588   3.546   9.667  0.7150 -0.0513 -0.3198
11176SOL    HW134106   2.608   3.575   9.756  1.6672 -1.0342 -0.1883
11176SOL    HW234107   2.550   3.623   9.625  0.5030  0.5131  0.8498
11177SOL     OW34108   4.947   2.597   5.508  0.6321  0.0801  0.5120
11177SOL    HW134109   4.854   2.618   5.506  0.3399 -1.2063 -0.1361
11177SOL    HW234110   4.969   2.597   5.601  0.2404  1.3603  0.6335
11178SOL     OW34111   6.524   1.089   3.917 -0.4023  0.2905 -0.1190
11178SOL    HW134112   6.523   1.156   3.848 -1.5068 -0.0713 -0.4671
11178SOL    HW234113   6.565   1.013   3.875 -0.0513  0.4308 -0.0302
11179SOL     OW34114   1.049   7.012   0.861 -0.0614 -0.6977  0.2702
11179SOL    HW134115   1.016   7.046   0.777 -0.2772 -0.8118  0.3113
11179SOL    HW234116   0.973   7.009   0.918 -0.0731 -1.4036  0.2227
11180SOL     OW34117   5.687   1.957   0.561  0.3095 -0.6549 -0.6889
11180SOL    HW134118   5.765   1.919   0.602 -1.5683 -2.4326  1.4544
11180SOL    HW234119   5.672   1.902   0.484 -0.7520 -2.5729  0.8217
11181SOL     OW34120   5.945   2.512   6.073 -0.0677 -0.3584 -0.4287
11181SOL    HW134121   5.965   2.568   5.998  0.8620  0.0919  0.1337
11181SOL    HW234122   5.850   2.502   6.071 -0.1993  0.8359 -0.8359
11182SOL     OW34123   6.303   8.405   2.050  0.1792 -0.1430 -0.2743
11182SOL    HW134124   6.390   8.418   2.089  1.2319 -0.5653 -2.3494
11182SOL    HW234125   6.290   8.310   2.052  0.7469 -0.2881 -1.8502
11183SOL     OW34126   5.921   2.297   0.824  0.2719  0.0054 -0.4250
11183SOL    HW134127   5.978   2.224   0.849  0.6179  0.5984  0.5446
11183SOL    HW234128   5.976   2.375   0.834 -0.0397  0.4055 -1.6126
11184SOL     OW34129   3.822   9.215   2.369 -0.5996  0.3551  0.4314
11184SOL    HW134130   3.780   9.281   2.423 -1.6341 -0.2907  0.4533
11184SOL    HW234131   3.832   9.256   2.283 -1.0877  0.5937  0.4857
11185SOL     OW34132   7.502   3.673   5.339  0.2868  0.2381 -0.2618
11185SOL    HW134133   7.476   3.604   5.401 -1.0729  0.0058 -1.0412
11185SOL    HW234134   7.459   3.649   5.257 -0.6609  2.2625 -0.4254
11186SOL     OW34135   0.358   7.124   5.500  0.8827  0.2510 -0.4660
11186SOL    HW134136   0.442   7.078   5.498  0.2569 -0.9190 -0.6382
11186SOL    HW234137   0.300   7.069   5.448 -0.0678  0.9153 -0.1253
11187SOL     OW34138   2.914   9.593   8.037 -0.3038  0.2481 -0.9925
11187SOL    HW134139   3.008   9.607   8.047  0.0278 -0.4471 -2.7130
11187SOL    HW234140   2.906   9.549   7.952 -1.9906 -1.8209  0.1601
11188SOL     OW34141   6.176   8.666   9.576 -0.2246  0.5764 -0.3146
11188SOL    HW134142   6.115   8.728   9.617  0.9980  0.3398  2.0399
11188SOL    HW234143   6.124   8.587   9.563 -1.2524  1.3988 -1.4299
11189SOL     OW34144   7.692   1.610   9.223 -0.3649  0.0466  0.1180
11189SOL    HW134145   7.733   1.685   9.264  0.2444  0.3376 -1.0138
11189SOL    HW234146   7.741   1.534   9.256  0.5258  0.3261 -0.5469
11190SOL     OW34147   7.111   6.021   3.591  0.4810 -0.0826  0.0769
11190SOL    HW134148   7.187   6.031   3.648  0.8671  1.6969 -0.6672
11190SOL    HW234149   7.128   5.942   3.540  1.1456 -0.4875  0.9112
11191SOL     OW34150   1.538   5.222   9.246  0.0028 -0.1596  0.0779
11191SOL    HW134151   1.499   5.267   9.171 -1.4869 -0.7082  0.4859
11191SOL    HW234152   1.623   5.264   9.258 -1.7757  3.4983  1.2613
11192SOL     OW34153   4.044   4.067   1.338 -0.4046  0.1488  0.2107
11192SOL    HW134154   4.032   4.155   1.304 -0.2745  0.4239  0.8615
11192SOL    HW234155   4.002   4.010   1.273  1.4812  0.4822 -1.4064
11193SOL     OW34156   8.377   9.404   3.428 -0.0083  0.4594 -0.5968
11193SOL    HW134157   8.445   9.447   3.479 -0.5458 -0.2289  0.7514
11193SOL    HW234158   8.295   9.441   3.462 -0.3785 -0.0406 -0.9247
11194SOL     OW34159   8.419   1.276   2.700 -0.1050  0.0905  0.1601
11194SOL    HW134160   8.371   1.237   2.773  0.8152  1.8866  1.8180
11194SOL    HW234161   8.373   1.246   2.622 -3.6391  1.2860  1.5837
11195SOL     OW34162   0.187   4.713   7.168  0.2039  0.5403 -0.3818
11195SOL    HW134163   0.140   4.669   7.096 -0.5174  0.0865  0.3525
11195SOL    HW234164   0.120   4.765   7.212  0.7705  1.2914 -0.3918
11196SOL     OW34165   0.390   8.151   6.607  0.1807  0.1553  0.0932
11196SOL    HW134166   0.304   8.145   6.649 -0.4724  1.7772 -0.9078
11196SOL    HW234167   0.419   8.241   6.625  0.5286  0.4207 -1.6370
11197SOL     OW34168   7.131   5.173   9.903  0.1505  0.2610 -0.0189
11197SOL    HW134169   7.052   5.194   9.953 -0.5602 -0.8759 -0.6165
11197SOL    HW234170   7.105   5.186   9.812  0.3278 -1.0802 -0.2798
11198SOL     OW34171   1.142   9.259   0.871  0.8087  0.4791  0.0947
11198SOL    HW134172   1.135   9.172   0.832  0.5119  1.3827 -1.9797
11198SOL    HW234173   1.052   9.292   0.874  0.4508 -0.3893  3.7850
11199SOL     OW34174   1.010   0.256   7.300 -0.0855 -0.0360 -0.1516
11199SOL    HW134175   1.068   0.190   7.260  1.2931  1.3778 -0.5707
11199SOL    HW234176   0.943   0.204   7.345 -0.0162 -1.7121 -1.8483
11200SOL     OW34177   0.388   2.732   4.022  0.1476  0.5071  0.6536
11200SOL    HW134178   0.467   2.717   4.074  0.8207  0.8209 -0.2614
11200SOL    HW234179   0.373   2.649   3.977 -0.5481  0.1724  1.4770
11201SOL     OW34180   2.396   7.558   8.511  0.4196 -0.3177 -0.2363
11201SOL    HW134181   2.344   7.506   8.572  0.0809  0.5858  0.2774
11201SOL    HW234182   2.461   7.601   8.567 -0.3745  1.1203 -0.3653
11202SOL     OW34183   6.342   6.830   0.377 -0.8680  0.2436 -0.2010
11202SOL    HW134184   6.305   6.742   0.375 -1.7300  0.5226  1.4864
11202SOL    HW234185   6.294   6.878   0.310 -1.8402 -0.0485  0.2718
11203SOL     OW34186   5.337   1.504   9.503  0.0852  0.3303  0.3788
11203SOL    HW134187   5.325   1.431   9.442 -1.7977  0.8829  0.0151
11203SOL    HW234188   5.373   1.464   9.582  0.8822 -0.6778 -0.4618
11204SOL     OW34189   1.556   1.708   0.744  0.2591 -0.5599 -0.4824
11204SOL    HW134190   1.583   1.777   0.683 -1.2473  0.9552  0.4991
11204SOL    HW234191   1.464   1.693   0.725  0.2133 -1.3380  0.2633
11205SOL     OW34192   2.493   7.704   2.286  0.1230  0.3639  0.7660
11205SOL    HW134193   2.511   7.695   2.379  0.4583  1.5310  0.8400
11205SOL    HW234194   2.553   7.773   2.257 -1.2706  1.3490  0.0935
11206SOL     OW34195   2.759   3.153   5.970  0.2448 -0.1164  0.1873
11206SOL    HW134196   2.675   3.159   6.015  0.7027 -0.4057  1.1218
11206SOL    HW234197   2.759   3.066   5.929 -0.0893  0.0638 -0.1992
11207SOL     OW34198   2.960   4.382   6.185  0.2671 -0.0811 -0.0752
11207SOL    HW134199   2.971   4.472   6.156  0.4147 -0.3660 -0.9072
11207SOL    HW234200   2.933   4.334   6.107  0.4846 -0.8207  0.2920
11208SOL     OW34201   4.897   8.143   8.630 -0.3422  0.0455 -0.0919
11208SOL    HW134202   4.987   8.143   8.661  0.2047  0.5910 -1.5824
11208SOL    HW234203   4.905   8.130   8.535 -1.8407 -0.0355 -0.2258
11209SOL     OW34204   2.620   7.705   6.351 -0.9638  0.8750 -0.1529
11209SOL    HW134205   2.576   7.651   6.287 -1.4576  1.4866 -0.3384
11209SOL    HW234206   2.549   7.741   6.405 -0.5076 -0.6747  1.6076
11210SOL     OW34207   0.707   0.904   4.206  0.3281  0.0684  0.3448
11210SOL    HW134208   0.796   0.884   4.177 -0.0740  0.8918 -1.5661
11210SOL    HW234209   0.718   0.969   4.274  1.1618  1.0862 -0.7299
11211SOL     OW34210   7.680   4.662   4.131 -0.0162  0.4983 -0.2368
11211SOL    HW134211   7.645   4.698   4.050  0.4610  0.9874 -0.2342
11211SOL    HW234212   7.733   4.733   4.168 -0.9134  0.5841  0.9510
11212SOL     OW34213   6.637   1.771   5.495  0.2565 -0.2546 -0.3200
11212SOL    HW134214   6.571   1.820   5.544  0.6190  0.3596 -0.4270
11212SOL    HW234215   6.685   1.838   5.446  0.9063 -0.6979 -0.3049
11213SOL     OW34216   2.032   0.190   3.657 -0.3903 -0.2201 -0.2920
11213SOL    HW134217   1.994   0.218   3.740 -1.0399  0.8530 -0.9237
11213SOL    HW234218   2.015   0.096   3.653  0.7445 -0.5450  1.3331
11214SOL     OW34219   2.873   7.385   8.295  0.0385 -0.0439 -0.4037
11214SOL    HW134220   2.802   7.409   8.355 -2.0323 -1.3353 -2.1847
11214SOL    HW234221   2.832   7.326   8.232  2.9220 -1.5003 -1.0812
11215SOL     OW34222   2.057   6.116   1.096 -0.4617  0.1923  0.3563
11215SOL    HW134223   2.091   6.099   1.184  0.6679 -2.2525 -0.4548
11215SOL    HW234224   2.129   6.160   1.051 -0.9171  1.1395  0.5306
11216SOL     OW34225   4.382   6.400   6.096  0.3542  0.4797 -0.1399
11216SOL    HW134226   4.295   6.420   6.061  0.9883 -0.7533 -2.6352
11216SOL    HW234227   4.374   6.311   6.131  0.6900  0.2121 -0.7331
11217SOL     OW34228   0.426   2.977   5.369 -0.5145  0.0311  0.5639
11217SOL    HW134229   0.383   2.936   5.445  0.5679  0.7816  1.6130
11217SOL    HW234230   0.516   2.945   5.373 -0.8224 -1.2875 -1.4454
11218SOL     OW34231   5.643   1.463   4.678  0.2105 -0.6302  0.1272
11218SOL    HW134232   5.593   1.384   4.660  2.7225 -2.5252  0.8945
11218SOL    HW234233   5.722   1.455   4.624  1.5984  0.1544  1.9115
11219SOL     OW34234   3.551   5.327   7.776 -0.1042  0.0421 -0.0929
11219SOL    HW134235   3.507   5.273   7.842 -1.3260  1.2263  0.1032
11219SOL    HW234236   3.602   5.390   7.827  1.5176 -1.0243 -0.3195
11220SOL     OW34237   5.577   0.929   3.723 -0.2071 -0.3237  0.0537
11220SOL    HW134238   5.660   0.886   3.701  0.3182 -0.1073  1.5069
11220SOL    HW234239   5.602   1.005   3.775 -1.3180 -0.2597  0.5266
11221SOL     OW34240   5.733   1.744   6.248 -0.2200  0.0115  0.8874
11221SOL    HW134241   5.815   1.696   6.258  1.7602  2.0474 -3.2049
11221SOL    HW234242   5.680   1.689   6.191 -0.7299 -0.1898  1.5405
11222SOL     OW34243   0.949   4.700   2.239  0.0355  0.2684 -0.3405
11222SOL    HW134244   0.855   4.714   2.238 -0.2185 -1.2703 -0.8633
11222SOL    HW234245   0.960   4.608   2.263  1.3140 -0.0210 -1.7969
11223SOL     OW34246   4.404   8.971   7.527 -0.9867  0.2965 -0.3621
11223SOL    HW134247   4.326   9.009   7.488 -1.6362 -1.7098 -1.1213
11223SOL    HW234248   4.476   9.025   7.494 -2.0206  2.5050  0.7682
11224SOL     OW34249   4.303   1.173   4.732  0.1862 -0.1972 -0.4891
11224SOL    HW134250   4.231   1.234   4.751 -0.9093 -1.5712 -0.0374
11224SOL    HW234251   4.302   1.164   4.637  0.0160  0.0896 -0.5163
11225SOL     OW34252   9.077   2.042   4.539  0.0630 -0.0271  0.3936
11225SOL    HW134253   9.125   2.048   4.456 -1.2117 -0.5778 -0.4020
11225SOL    HW234254   9.011   1.975   4.524 -1.1170  0.8819  1.3918
11226SOL     OW34255   7.015   1.923   2.578  0.0868 -0.0552 -0.4284
11226SOL    HW134256   7.046   2.009   2.548  1.1142 -0.2807 -0.0423
11226SOL    HW234257   6.964   1.889   2.504  1.6565 -0.1226 -1.5340
11227SOL     OW34258   5.270   8.885   0.214  0.2398 -0.0955 -0.0882
11227SOL    HW134259   5.340   8.918   0.271  0.4958  1.4314 -1.2086
11227SOL    HW234260   5.316   8.854   0.136 -0.1256 -1.9235  0.3925
11228SOL     OW34261   2.376   2.134   4.045  0.5590 -0.0607  0.0914
11228SOL    HW134262   2.402   2.190   3.972 -0.6539 -1.4565 -1.5240
11228SOL    HW234263   2.287   2.162   4.067  1.0232  0.5363  1.2481
11229SOL     OW34264   0.711   1.075   7.910  0.1704 -0.5550  0.0784
11229SOL    HW134265   0.676   1.164   7.921 -0.1440 -0.6794  0.1060
11229SOL    HW234266   0.676   1.027   7.985 -0.3473 -0.9117 -0.3892
11230SOL     OW34267   6.238   4.185   7.533 -0.2528  0.5278 -0.3056
11230SOL    HW134268   6.191   4.191   7.450 -2.0011  1.5814  0.6980
11230SOL    HW234269   6.311   4.125   7.515  0.3250  1.8531 -2.9699
11231SOL     OW34270   2.547   0.191   1.502 -0.5788  0.4714  0.4663
11231SOL    HW134271   2.632   0.165   1.467  0.1803  0.7316  2.0479
11231SOL    HW234272   2.562   0.279   1.537 -1.2327  0.1243  1.6510
11232SOL     OW34273   2.023   6.431   2.145  0.3332  0.1681 -0.3791
11232SOL    HW134274   1.972   6.353   2.124  1.0743 -0.3252 -0.3846
11232SOL    HW234275   2.108   6.397   2.173  0.1859  0.9116  1.0565
11233SOL     OW34276   5.964   8.796   3.850  0.2223  0.2950 -0.1051
11233SOL    HW134277   6.030   8.823   3.786 -0.2768 -1.4395 -1.4267
11233SOL    HW234278   5.905   8.740   3.801  0.8768 -2.7311  2.2584
11234SOL     OW34279   2.715   5.325   8.163 -0.3509  0.5919  0.4553
11234SOL    HW134280   2.690   5.416   8.147 -0.0872  0.4484 -0.8406
11234SOL    HW234281   2.736   5.290   8.077 -2.1204 -1.2277  0.6901
11235SOL     OW34282   0.167   5.704   6.233 -0.3208 -0.3026  0.9144
11235SOL    HW134283   0.122   5.677   6.153  0.1655 -0.1838  0.5943
11235SOL    HW234284   0.197   5.623   6.273 -1.4028 -0.4394  1.4946
11236SOL     OW34285   8.185   6.341   4.423  0.6275 -0.1935  0.0160
11236SOL    HW134286   8.207   6.434   4.427  0.3634 -0.0190 -1.7540
11236SOL    HW234287   8.261   6.301   4.380 -1.2620  0.0863 -4.1607
11237SOL     OW34288   5.273  10.000   5.050 -0.0983 -0.2960  0.1636
11237SOL    HW134289   5.260   9.968   4.960  2.0210 -0.2372 -0.2192
11237SOL    HW234290   5.317   9.928   5.095 -2.3262 -0.8524  1.6112
11238SOL     OW34291   9.255   5.752   3.300 -0.4269 -0.0023 -0.9342
11238SOL    HW134292   9.232   5.666   3.335  0.0098  0.6785  1.1672
11238SOL    HW234293   9.179   5.806   3.318  0.4472  0.7844  0.6456
11239SOL     OW34294   5.850   3.231   5.634  0.6061 -0.6080 -0.1037
11239SOL    HW134295   5.778   3.170   5.620 -1.1514  0.6076  2.7000
11239SOL    HW234296   5.815   3.317   5.611  0.8119  0.0964  1.9190
11240SOL     OW34297   2.229   2.661   3.349  0.5833 -0.4307  0.4998
11240SOL    HW134298   2.311   2.711   3.347  0.4949 -0.1340  2.2224
11240SOL    HW234299   2.168   2.713   3.296  0.5270  1.2826  2.1209
11241SOL     OW34300   0.931   5.850   0.686  0.2619  0.0813  0.3631
11241SOL    HW134301   0.913   5.905   0.762  0.0192  2.7733 -1.5174
11241SOL    HW234302   0.845   5.833   0.648  0.5414  0.6824 -0.5568
11242SOL     OW34303   8.268   8.919   9.422 -0.2259  0.2374  0.0527
11242SOL    HW134304   8.315   9.001   9.411 -1.1655  0.8573  0.5594
11242SOL    HW234305   8.287   8.869   9.342 -0.0481  1.1360 -0.4776
11243SOL     OW34306   7.743   6.111   6.804 -0.2011  0.1203  0.3378
11243SOL    HW134307   7.741   6.062   6.721 -1.4830 -1.0760  1.0359
11243SOL    HW234308   7.680   6.181   6.792  1.3755  1.4723 -0.5330
11244SOL     OW34309   7.162   3.313   8.853  0.2129  0.2280 -0.0775
11244SOL    HW134310   7.217   3.296   8.777 -0.7165  0.0874 -0.7419
11244SOL    HW234311   7.193   3.397   8.887  0.9136  0.0866 -0.3492
11245SOL     OW34312   0.075   9.445   5.355 -0.2377 -0.1625 -0.4986
11245SOL    HW134313  -0.002   9.448   5.298  0.2583 -1.2173 -1.2631
11245SOL    HW234314   0.114   9.360   5.336  0.3436 -0.2200  0.9046
11246SOL     OW34315   4.594   5.196   0.528  0.0935  0.0318 -0.2338
11246SOL    HW134316   4.533   5.248   0.580 -1.0291 -0.5576 -0.9399
11246SOL    HW234317   4.646   5.149   0.593 -2.8793 -2.5584  0.4810
11247SOL     OW34318   8.003   3.876   2.362  0.2147  0.0606  0.7652
11247SOL    HW134319   8.036   3.927   2.289 -1.4253  0.4574  0.2773
11247SOL    HW234320   7.944   3.935   2.409 -0.4150 -0.8513  1.1563
11248SOL     OW34321   7.762   6.913   2.944  0.5037 -0.2704  0.0876
11248SOL    HW134322   7.822   6.848   2.907 -1.4694 -1.2145 -1.6204
11248SOL    HW234323   7.715   6.865   3.013  1.6944  0.5053  1.5131
11249SOL     OW34324   8.285   6.918   0.103  0.1004  0.2214 -0.2460
11249SOL    HW134325   8.219   6.978   0.067  0.9220  0.5540 -1.2224
11249SOL    HW234326   8.237   6.837   0.119 -0.0465 -0.4220 -3.4295
11250SOL     OW34327   7.983   0.966   3.819 -0.2073  0.4198  0.4185
11250SOL    HW134328   7.921   0.896   3.797 -1.7398  1.8746 -0.1004
11250SOL    HW234329   7.942   1.046   3.784  1.7623  1.5005  0.4627
11251SOL     OW34330   1.025   2.733   1.735  0.3013  0.2868 -0.2143
11251SOL    HW134331   1.035   2.818   1.690  2.2775  0.0702 -0.2958
11251SOL    HW234332   1.032   2.755   1.828 -2.2028  0.5371 -0.0274
11252SOL     OW34333   2.932   5.531   5.499 -0.0450 -0.0935 -0.1216
11252SOL    HW134334   3.025   5.512   5.515  0.2821  0.9691 -0.6323
11252SOL    HW234335   2.933   5.608   5.441 -1.2299  1.3140  1.6023
11253SOL     OW34336   9.730   6.480   9.392  0.7182 -0.0862 -0.5909
11253SOL    HW134337   9.798   6.443   9.448  0.8877  0.9132 -0.1273
11253SOL    HW234338   9.775   6.500   9.310  1.3835  2.0410  0.2437
11254SOL     OW34339   8.420   0.567   3.143 -0.2542  0.5425  0.1844
11254SOL    HW134340   8.376   0.522   3.071 -1.1669  0.9643  0.4607
11254SOL    HW234341   8.449   0.497   3.201 -1.4320  0.2669  0.4814
11255SOL     OW34342   8.220   5.333   6.190  0.8188  0.1452 -0.4008
11255SOL    HW134343   8.130   5.318   6.219  0.4525  1.1540 -0.9617
11255SOL    HW234344   8.272   5.268   6.237  0.1957  1.3324  2.0397
11256SOL     OW34345   5.764   0.571   8.923  0.0453 -0.1088 -0.1800
11256SOL    HW134346   5.800   0.601   8.840  1.0405 -1.7944 -0.3979
11256SOL    HW234347   5.736   0.481   8.906 -1.5690  0.1663  0.8016
11257SOL     OW34348   6.728   4.213   2.623 -0.3275 -0.0253 -0.1585
11257SOL    HW134349   6.753   4.121   2.626  0.4576  0.1889  0.0316
11257SOL    HW234350   6.749   4.241   2.534  2.8459  0.8744  0.7441
11258SOL     OW34351   1.766   8.789   2.895 -0.3144  0.2943  0.3590
11258SOL    HW134352   1.699   8.725   2.918 -0.0074  0.4028  1.6765
11258SOL    HW234353   1.770   8.848   2.971  0.7005  0.7632 -0.0334
11259SOL     OW34354   0.706   1.171  -0.015  0.0394  0.2078 -0.4136
11259SOL    HW134355   0.678   1.089  -0.055 -2.2802  0.6704  0.1277
11259SOL    HW234356   0.708   1.153   0.079 -0.6278  0.7873 -0.2798
11260SOL     OW34357   3.960   5.365   0.343 -0.5239  0.4039 -0.2543
11260SOL    HW134358   3.946   5.420   0.266  0.8296 -0.8070 -1.4174
11260SOL    HW234359   3.881   5.312   0.350 -1.1422  1.3351 -0.1012
11261SOL     OW34360   4.490   7.305   8.378  0.1421 -0.1707 -0.4714
11261SOL    HW134361   4.414   7.351   8.343 -1.2086 -2.1076 -0.2153
11261SOL    HW234362   4.527   7.259   8.303  0.1398 -0.4572 -0.2963
11262SOL     OW34363   1.141   5.253   3.240 -0.1818  0.2315  0.8018
11262SOL    HW134364   1.086   5.331   3.247  1.7283  1.7693 -0.2666
11262SOL    HW234365   1.108   5.207   3.162 -0.0862  1.0442  0.2688
11263SOL     OW34366   3.924   9.623   9.268 -0.9839 -0.7456  0.4136
11263SOL    HW134367   3.845   9.666   9.236 -1.4078 -0.6452  1.5354
11263SOL    HW234368   3.963   9.686   9.329  0.7961 -0.1812 -1.2139
11264SOL     OW34369   2.268   9.854   8.098 -0.0483 -0.5111  0.1619
11264SOL    HW134370   2.260   9.929   8.157 -0.6473 -0.9050  0.5858
11264SOL    HW234371   2.340   9.803   8.134 -1.0835 -1.2966  1.1751
11265SOL     OW34372   7.535   6.776   2.085  0.0372 -0.1297 -0.1610
11265SOL    HW134373   7.497   6.860   2.109 -0.5713 -0.8377  1.5369
11265SOL    HW234374   7.506   6.760   1.996 -0.4583  1.1128 -0.2329
11266SOL     OW34375   4.486   9.485   4.522  0.1150  0.5076 -0.7875
11266SOL    HW134376   4.443   9.474   4.606  0.6819  0.1593 -0.5326
11266SOL    HW234377   4.580   9.488   4.543  0.2398  0.8646 -1.3587
11267SOL     OW34378   9.929   4.902   9.017  0.6773 -0.6139  0.3044
11267SOL    HW134379   9.952   4.972   9.079  0.7424 -0.5452  0.2030
11267SOL    HW234380   9.849   4.864   9.053  0.3923 -0.1962  0.1213
11268SOL     OW34381   5.440   0.965   8.626  0.1972 -0.6431  0.1815
11268SOL    HW134382   5.422   0.934   8.537 -0.3536  0.5024 -0.1391
11268SOL    HW234383   5.353   0.975   8.666  0.3054  0.8739  0.1017
11269SOL     OW34384   8.179   8.070   5.878  0.2529 -0.1895  0.6280
11269SOL    HW134385   8.184   8.156   5.835  1.4043 -0.6323 -0.1571
11269SOL    HW234386   8.161   8.009   5.807  1.3224 -0.8263  0.8875
11270SOL     OW34387   1.781   1.913   3.025  0.4718 -0.1430  0.0178
11270SOL    HW134388   1.802   1.988   3.081  0.4884  0.3556 -0.6428
11270SOL    HW234389   1.738   1.851   3.084  0.5885  0.3212  0.6083
11271SOL     OW34390   6.666   5.861   4.666 -0.2815  0.5794  0.0559
11271SOL    HW134391   6.712   5.879   4.748  0.7967 -0.4551 -0.2925
11271SOL    HW234392   6.613   5.940   4.650 -1.3807  0.3765  2.2889
11272SOL     OW34393   1.441   3.743   5.813 -0.4102  0.4307  0.3320
11272SOL    HW134394   1.409   3.712   5.729  0.7532 -1.4422  0.5330
11272SOL    HW234395   1.457   3.664   5.864  2.1271  1.3408  1.0995
11273SOL     OW34396   7.401   9.356   1.038 -0.1387  0.1606  0.1851
11273SOL    HW134397   7.309   9.331   1.034 -0.4345  0.8903  1.7865
11273SOL    HW234398   7.448   9.274   1.057 -0.5328 -0.0789  0.1263
11274SOL     OW34399   0.171   5.017   0.476  0.8027 -0.3406  0.5693
11274SOL    HW134400   0.195   4.959   0.403  0.8917  1.2239 -0.7057
11274SOL    HW234401   0.121   4.961   0.536 -0.4330 -1.3959 -1.3377
11275SOL     OW34402   4.219   6.634   7.424  0.2709  0.1230  0.3114
11275SOL    HW134403   4.281   6.704   7.441  0.3623  0.7156 -2.0867
11275SOL    HW234404   4.258   6.585   7.351 -0.3586 -1.7398  1.1533
11276SOL     OW34405   4.344   9.065   9.672 -0.1543  0.7403 -0.1967
11276SOL    HW134406   4.412   9.098   9.731 -0.8632  0.3767  0.8460
11276SOL    HW234407   4.364   8.972   9.661 -1.3825  0.2329  1.4478
11277SOL     OW34408   7.530   2.967   7.925  0.1561  0.0284 -0.1621
11277SOL    HW134409   7.442   2.937   7.945 -0.4363  2.0181  0.4919
11277SOL    HW234410   7.588   2.908   7.974 -0.9347  0.0926  1.2766
11278SOL     OW34411   4.339   7.916   6.376 -0.0692 -0.3845 -0.6890
11278SOL    HW134412   4.350   7.821   6.372 -0.3710 -0.4520 -0.1042
11278SOL    HW234413   4.335   7.944   6.285 -0.9563 -1.0529 -0.8764
11279SOL     OW34414   7.145   7.341   8.085  0.4149  0.1840  0.5630
11279SOL    HW134415   7.184   7.421   8.119  0.4415  0.0671  0.8123
11279SOL    HW234416   7.064   7.370   8.043  1.9002  0.7779 -2.1301
11280SOL     OW34417   2.717   9.189   3.595 -0.2758  0.5120  0.5356
11280SOL    HW134418   2.764   9.220   3.517  2.2115 -0.6527  1.4574
11280SOL    HW234419   2.767   9.112   3.623 -2.4023 -0.3992  2.0273
11281SOL     OW34420   0.450   1.930   9.122  0.3283 -0.7896  0.0219
11281SOL    HW134421   0.527   1.985   9.136  0.8776 -1.7071  0.6966
11281SOL    HW234422   0.396   1.945   9.200  0.7446 -1.6198  0.4800
11282SOL     OW34423   8.623   7.586   8.430  0.2846 -0.1193 -0.5589
11282SOL    HW134424   8.544   7.570   8.378  0.4619  0.5048 -1.0403
11282SOL    HW234425   8.689   7.611   8.365  0.1929  1.8881  0.0710
11283SOL     OW34426   0.919   7.001   4.297 -0.1032  0.4215 -0.0905
11283SOL    HW134427   0.953   7.057   4.367  0.8058  0.7776 -0.7910
11283SOL    HW234428   0.901   6.917   4.340 -1.3194  1.1744  0.9351
11284SOL     OW34429   8.938   8.928   8.269 -0.3325 -0.5678  0.2781
11284SOL    HW134430   8.963   8.851   8.320  2.8643 -0.4128 -0.8732
11284SOL    HW234431   8.989   8.999   8.307 -2.3988  0.8207  0.5962
11285SOL     OW34432   3.124   4.935   8.110 -0.1605 -0.2008 -0.3388
11285SOL    HW134433   3.049   4.879   8.093 -0.7024  0.5062 -0.3452
11285SOL    HW234434   3.138   4.982   8.028 -1.0813  1.2473  0.3020
11286SOL     OW34435   0.617   5.721   3.977  0.1354 -0.1409  0.7071
11286SOL    HW134436   0.585   5.739   3.889 -3.0454 -1.1714  1.5448
11286SOL    HW234437   0.640   5.628   3.976 -2.3124 -0.8395  1.5049
11287SOL     OW34438   4.704   5.172   6.213  0.5342  0.0223  0.4323
11287SOL    HW134439   4.655   5.253   6.228  2.7871  1.2979  1.4150
11287SOL    HW234440   4.750   5.186   6.131 -0.2550 -0.9511 -0.2077
11288SOL     OW34441   9.610   4.966   3.639 -0.2519  0.1546 -0.2775
11288SOL    HW134442   9.551   5.041   3.648 -2.1983 -1.3671  0.3823
11288SOL    HW234443   9.567   4.911   3.573 -1.0262 -2.2071  2.0341
11289SOL     OW34444   7.619   7.312   9.737 -0.6283 -0.3351  0.0203
11289SOL    HW134445   7.598   7.401   9.765 -0.1435 -0.2007 -0.0460
11289SOL    HW234446   7.666   7.322   9.655 -0.4898 -0.6473  0.0587
11290SOL     OW34447   5.271   1.661   4.540  0.2109  0.1415  0.0432
11290SOL    HW134448   5.341   1.726   4.535  0.0882  0.2112 -1.1441
11290SOL    HW234449   5.315   1.577   4.525  0.1650  0.1044  0.1157
11291SOL     OW34450   1.523   3.211   4.018  0.2016 -0.0143  0.0770
11291SOL    HW134451   1.430   3.221   4.035  0.0253  1.3919 -1.4228
11291SOL    HW234452   1.537   3.258   3.936  1.8943 -1.7649 -0.7119
11292SOL     OW34453   6.791   5.901   8.070 -0.3210  0.2390  0.4563
11292SOL    HW134454   6.751   5.955   8.138 -1.1077 -0.7726  0.8329
11292SOL    HW234455   6.743   5.923   7.990 -1.3706 -0.6313  0.8144
11293SOL     OW34456   8.141   9.693   7.370  0.3590 -0.0749  0.4151
11293SOL    HW134457   8.143   9.781   7.407  0.9079 -0.0494  0.3374
11293SOL    HW234458   8.058   9.689   7.322  0.1194  0.2415  0.7948
11294SOL     OW34459   4.483   8.685   5.910  0.3491  0.7732  0.0709
11294SOL    HW134460   4.564   8.719   5.873  1.2967 -1.5410 -0.1445
11294SOL    HW234461   4.427   8.668   5.834  0.6838 -0.0706  0.0067
11295SOL     OW34462   7.483   9.777   6.650 -0.1569  0.3809 -0.1079
11295SOL    HW134463   7.442   9.771   6.736 -1.0116  2.2518 -0.3354
11295SOL    HW234464   7.410   9.786   6.589  0.4379 -0.9656 -1.0764
11296SOL     OW34465   7.030   4.855   4.150  0.1348 -0.0912  0.0630
11296SOL    HW134466   6.980   4.925   4.193  1.4570  0.6975  0.3530
11296SOL    HW234467   7.074   4.899   4.077  0.5102 -0.7578 -0.1193
11297SOL     OW34468   7.085   2.121   0.611  0.3415 -0.1645  0.3089
11297SOL    HW134469   7.036   2.203   0.603  2.0069  0.8203 -0.3463
11297SOL    HW234470   7.069   2.092   0.701 -0.1952  0.9473  0.5902
11298SOL     OW34471   3.609   1.625   8.866  0.5229 -0.7333  1.0565
11298SOL    HW134472   3.585   1.552   8.809  0.7335 -1.3525  1.7461
11298SOL    HW234473   3.568   1.604   8.951  2.2417 -1.0768  1.8343
11299SOL     OW34474   1.897   4.856   1.321 -0.1200  0.1356  0.2353
11299SOL    HW134475   1.898   4.760   1.313  0.5114  0.1197  0.4658
11299SOL    HW234476   1.976   4.877   1.372  0.3281  0.8569 -0.7151
11300SOL     OW34477   8.601   1.745   2.851 -0.4926  0.3721  0.2980
11300SOL    HW134478   8.692   1.720   2.839 -0.4394 -1.2956  3.2840
11300SOL    HW234479   8.551   1.665   2.839 -0.9904  0.0806  3.3570
11301SOL     OW34480   8.357   4.363   2.562 -0.2650  0.3296  0.0818
11301SOL    HW134481   8.389   4.440   2.610 -0.6722 -0.0207  0.9449
11301SOL    HW234482   8.279   4.394   2.516 -1.1879  0.1517  1.4618
11302SOL     OW34483   1.640   0.926   2.383  0.0340  0.1092  0.0252
11302SOL    HW134484   1.677   0.876   2.311 -2.2996 -2.5115  0.4541
11302SOL    HW234485   1.576   0.867   2.422 -1.1891  2.6453  2.1581
11303SOL     OW34486   2.176   4.932   9.754 -0.1600  0.4563 -0.1907
11303SOL    HW134487   2.203   4.862   9.694 -0.5425 -0.1261  0.3033
11303SOL    HW234488   2.237   4.926   9.827 -0.0885  0.7520 -0.2239
11304SOL     OW34489   6.964   5.362   7.649  0.0952 -0.1257 -0.0895
11304SOL    HW134490   6.968   5.361   7.745  0.7712  0.5288 -0.0955
11304SOL    HW234491   6.932   5.450   7.628  0.7182  0.0129 -0.4759
11305SOL     OW34492   3.001   3.751   0.021 -0.2031  0.0997  0.8082
11305SOL    HW134493   2.967   3.753  -0.068  2.2677 -0.8146 -0.2286
11305SOL    HW234494   2.969   3.833   0.060 -0.1994  1.2193 -1.3684
11306SOL     OW34495   7.730   8.170   0.423 -0.2482 -0.2757  0.2365
11306SOL    HW134496   7.635   8.158   0.430 -0.1874 -0.0469  2.0148
11306SOL    HW234497   7.741   8.240   0.359 -1.4125  0.9671  1.3129
11307SOL     OW34498   8.602   6.597   5.215 -0.0483  0.1999  0.5062
11307SOL    HW134499   8.637   6.519   5.173 -3.4155 -1.4202  0.3216
11307SOL    HW234500   8.525   6.566   5.263 -2.0114  3.4843 -0.1527
11308SOL     OW34501   8.751   8.468   1.313 -0.1287 -0.1118  0.5339
11308SOL    HW134502   8.678   8.433   1.260  0.4714  0.3193 -0.6054
11308SOL    HW234503   8.754   8.561   1.291  0.8302 -0.1465  0.5007
11309SOL     OW34504   3.716   2.283   9.271  0.0628 -0.1887 -0.0816
11309SOL    HW134505   3.786   2.348   9.269  0.8238 -0.7900  2.4755
11309SOL    HW234506   3.695   2.266   9.179  1.0087  2.3692 -0.8534
11310SOL     OW34507   6.535   7.390   5.034  0.0706  0.1764 -0.4422
11310SOL    HW134508   6.519   7.384   5.128 -1.7578 -1.1763 -0.7839
11310SOL    HW234509   6.517   7.302   5.001  1.4463  0.4186 -1.9723
11311SOL     OW34510   2.968   1.409   3.997 -0.0684  0.2004  0.4536
11311SOL    HW134511   2.977   1.326   4.044  1.1126 -0.4514 -0.8735
11311SOL    HW234512   2.991   1.389   3.907  0.8719  2.1187  0.2159
11312SOL     OW34513   2.579   9.161   8.704  0.1330 -0.0857 -0.4271
11312SOL    HW134514   2.641   9.119   8.645  1.3091 -0.1845  0.8455
11312SOL    HW234515   2.627   9.173   8.786 -1.4748 -0.0464  0.5557
11313SOL     OW34516   7.803   0.280   6.919  0.6466 -0.3967  0.0609
11313SOL    HW134517   7.807   0.189   6.890 -0.3614 -0.1784 -0.8219
11313SOL    HW234518   7.875   0.323   6.873  0.2206 -0.4529 -0.6724
11314SOL     OW34519   5.600   8.068   5.299 -0.3047 -0.1197 -0.5744
11314SOL    HW134520   5.543   8.014   5.355  0.3045 -0.2758 -0.0973
11314SOL    HW234521   5.623   8.143   5.354 -0.5181  0.2468 -0.9726
11315SOL     OW34522   1.033   8.172   9.037 -0.2522  0.0758  0.4099
11315SOL    HW134523   1.093   8.099   9.047 -1.2368 -0.8546 -0.2342
11315SOL    HW234524   1.034   8.217   9.122  2.5349  1.0746 -0.0531
11316SOL     OW34525   7.942   9.871   7.260 -0.2352 -0.0802 -0.7751
11316SOL    HW134526   7.942   9.956   7.216  3.3233  0.7083  0.3999
11316SOL    HW234527   7.886   9.883   7.336  0.5910  1.4396 -0.3634
11317SOL     OW34528   1.546   7.337   8.475 -0.1368  0.2766 -0.1958
11317SOL    HW134529   1.554   7.285   8.555 -0.4685  0.5086 -0.0102
11317SOL    HW234530   1.498   7.415   8.502 -0.7550  0.0900 -0.7418
11318SOL     OW34531   5.971   3.999   9.820  0.4204 -0.0964 -0.1397
11318SOL    HW134532   6.040   3.977   9.884 -2.3968 -0.2372  3.1291
11318SOL    HW234533   5.953   4.091   9.835 -1.3245 -0.4974  0.4760
11319SOL     OW34534   6.311   9.064   8.951  0.7716  0.5975  0.1960
11319SOL    HW134535   6.374   9.107   8.894  2.7417  1.2070  2.6537
11319SOL    HW234536   6.342   8.974   8.957  0.0211  0.2899 -0.3951
11320SOL     OW34537   1.113   0.507   8.424 -0.4957 -0.4001 -0.5033
11320SOL    HW134538   1.168   0.585   8.426  1.1005 -1.5019 -0.0935
11320SOL    HW234539   1.060   0.513   8.503 -2.7488  1.8284 -2.0154
11321SOL     OW34540   7.008   3.904   1.992  0.3787 -0.1397 -0.4438
11321SOL    HW134541   7.097   3.876   2.011  1.4122  2.5976 -0.8740
11321SOL    HW234542   6.986   3.966   2.061  0.0271  1.5582 -1.9939
11322SOL     OW34543   2.614   5.910   1.338  0.4526 -0.4208  0.1918
11322SOL    HW134544   2.537   5.856   1.350  0.9690 -0.8831  1.6151
11322SOL    HW234545   2.674   5.857   1.286  0.9799 -1.2837  1.6309
11323SOL     OW34546   9.972   8.714   9.117 -0.4381  0.0881  0.4774
11323SOL    HW134547  10.043   8.707   9.053  0.0791 -0.3732  1.0851
11323SOL    HW234548   9.894   8.685   9.070 -0.2423  0.6535 -0.2144
11324SOL     OW34549   8.770   4.217   9.369  0.1038  0.3413 -0.2948
11324SOL    HW134550   8.798   4.305   9.395  1.6857  0.1689 -1.2778
11324SOL    HW234551   8.736   4.228   9.280 -1.5556  0.2605  0.2980
11325SOL     OW34552   9.878   4.220   1.026  0.0759 -0.2660  0.1946
11325SOL    HW134553   9.938   4.241   1.097  1.3102 -2.1928 -0.2084
11325SOL    HW234554   9.833   4.141   1.054 -0.0147 -0.5855 -0.7897
11326SOL     OW34555   6.496   3.531   2.371 -0.4306 -0.0150  0.0958
11326SOL    HW134556   6.532   3.451   2.410 -1.4313  0.5554  2.3902
11326SOL    HW234557   6.572   3.576   2.335  0.9572  0.1419  2.9155
11327SOL     OW34558   2.479   5.728   8.291 -0.3196 -0.3754  0.6117
11327SOL    HW134559   2.488   5.799   8.227  0.0625 -0.3826  0.6544
11327SOL    HW234560   2.390   5.737   8.325 -0.6527 -0.5785 -0.1712
11328SOL     OW34561   6.836   8.767   6.770  0.2651  0.3613  0.3377
11328SOL    HW134562   6.817   8.674   6.757 -1.4923  0.3489  2.4968
11328SOL    HW234563   6.797   8.810   6.694 -2.3806 -0.3726  1.1794
11329SOL     OW34564   1.808   1.858   7.246 -0.1578  0.2321  0.2052
11329SOL    HW134565   1.818   1.824   7.335 -0.8320  0.4004  0.3461
11329SOL    HW234566   1.894   1.845   7.206  0.0566 -0.1379  0.7775
11330SOL     OW34567   8.276   0.209   5.113  0.5454  0.1030 -0.1912
11330SOL    HW134568   8.240   0.126   5.084 -0.0069  0.7201 -1.3808
11330SOL    HW234569   8.218   0.239   5.183  0.0310  0.0551 -0.5960
11331SOL     OW34570   6.338   0.563   9.795 -0.6018 -0.0620  0.3119
11331SOL    HW134571   6.286   0.502   9.743 -1.3424  0.2547  0.6618
11331SOL    HW234572   6.422   0.518   9.809  0.3941  0.5909 -2.7260
11332SOL     OW34573   0.255   0.405   8.327  0.2274  0.2178  0.2702
11332SOL    HW134574   0.251   0.499   8.347  0.6232  0.9183 -2.5547
11332SOL    HW234575   0.168   0.372   8.347 -0.1575  1.3524  0.5184
11333SOL     OW34576   4.985   2.257   8.247 -0.3660 -0.0172  0.6159
11333SOL    HW134577   5.062   2.270   8.193 -0.6775 -0.7904 -0.0439
11333SOL    HW234578   4.920   2.317   8.212  0.0146  0.8414  1.3567
11334SOL     OW34579   3.284   6.144   9.974  0.6349 -0.3227  0.0730
11334SOL    HW134580   3.375   6.136  10.000  1.0244 -0.9794 -1.3810
11334SOL    HW234581   3.284   6.208   9.903  0.2450 -1.5463 -1.0730
11335SOL     OW34582   7.948   7.972   1.102  0.3848  0.4747  0.1906
11335SOL    HW134583   8.023   7.945   1.156  0.0494 -0.4644  0.2001
11335SOL    HW234584   7.972   7.945   1.014 -0.1294 -0.2309  0.2628
11336SOL     OW34585   8.134   9.111   9.078  0.3759  0.4660 -0.0062
11336SOL    HW134586   8.082   9.165   9.138  0.0248  0.4353 -0.2820
11336SOL    HW234587   8.224   9.140   9.092  0.0827  1.9743 -1.0033
11337SOL     OW34588   8.150   5.079   1.982 -0.5894  0.4079 -0.0557
11337SOL    HW134589   8.237   5.056   2.014 -0.7161  0.1064  0.0773
11337SOL    HW234590   8.153   5.175   1.971 -0.0509  0.3328 -0.6332
11338SOL     OW34591   3.942   6.933   6.527  0.0914  0.5364 -0.2638
11338SOL    HW134592   4.012   6.937   6.593 -0.8177  1.1170  0.6886
11338SOL    HW234593   3.863   6.914   6.577 -0.6575  1.2040 -1.1661
11339SOL     OW34594   8.389   4.225   4.035 -0.1296  0.0733 -0.1456
11339SOL    HW134595   8.306   4.224   4.082  0.6977  1.8369  1.4927
11339SOL    HW234596   8.445   4.165   4.084 -0.2626 -0.6991 -0.9266
11340SOL     OW34597   7.351   4.806   3.316 -0.0801  0.2272  0.0088
11340SOL    HW134598   7.345   4.819   3.222  0.8131 -1.6321 -0.3330
11340SOL    HW234599   7.423   4.746   3.328 -0.8176 -0.3690  1.8181
11341SOL     OW34600   4.893   4.995   3.504  0.8273  0.3072  0.1670
11341SOL    HW134601   4.907   5.086   3.477 -0.3524  0.4669  0.0667
11341SOL    HW234602   4.895   4.945   3.422 -2.0900  0.7105 -0.2307
11342SOL     OW34603   1.443   3.442   7.072  0.4739 -0.6786 -0.4834
11342SOL    HW134604   1.507   3.474   7.135 -0.3396  0.3121 -0.1258
11342SOL    HW234605   1.486   3.368   7.029  2.0019  0.2001 -0.5494
11343SOL     OW34606   8.063   8.066   9.192 -0.3010  0.0185 -0.4071
11343SOL    HW134607   8.126   8.087   9.261  0.6435 -1.2650 -0.8454
11343SOL    HW234608   7.978   8.074   9.235  0.1796  0.8331  0.4588
11344SOL     OW34609   1.859   1.807   3.423 -0.5767  0.2034 -0.1372
11344SOL    HW134610   1.826   1.896   3.434  1.7386  1.1308 -0.0739
11344SOL    HW234611   1.812   1.772   3.347 -3.1258  0.6157  1.1642
11345SOL     OW34612   5.043   1.227   3.772  0.6422  0.4048 -0.0678
11345SOL    HW134613   5.027   1.188   3.858 -0.0397  0.2306 -0.2716
11345SOL    HW234614   4.962   1.273   3.750  0.1533 -1.0127 -1.3846
11346SOL     OW34615   0.258   2.510   5.093  0.1057 -0.1744  0.0747
11346SOL    HW134616   0.210   2.496   5.012  1.0000 -0.5244 -0.4043
11346SOL    HW234617   0.318   2.435   5.099 -0.8529 -0.8832  1.7366
11347SOL     OW34618   4.052   6.246   3.693  0.1641 -0.2662 -0.0877
11347SOL    HW134619   4.135   6.294   3.686 -0.7014  1.2107 -0.6397
11347SOL    HW234620   4.065   6.169   3.638  1.1908 -0.0747 -0.1449
11348SOL     OW34621   7.335   8.465   2.270  0.0216  0.0598 -0.3930
11348SOL    HW134622   7.320   8.479   2.177  0.5925  1.9696 -0.2349
11348SOL    HW234623   7.425   8.494   2.285  0.2074 -0.9509  0.6345
11349SOL     OW34624   1.263   7.977   9.069  0.1757 -0.0707 -0.4646
11349SOL    HW134625   1.329   8.031   9.024  2.2449 -0.8829  1.4267
11349SOL    HW234626   1.238   8.029   9.145 -1.1969  0.0856 -0.9938
11350SOL     OW34627   5.550   2.518   2.947 -0.5590  0.0566 -0.2492
11350SOL    HW134628   5.603   2.527   3.026  2.6885  0.8334 -2.3256
11350SOL    HW234629   5.546   2.607   2.910 -1.2356 -0.4383 -1.4283
11351SOL     OW34630   3.957   7.226   4.811 -0.0656 -0.0644  0.5288
11351SOL    HW134631   3.947   7.131   4.809 -1.9115  0.0824 -0.7540
11351SOL    HW234632   3.881   7.258   4.763  1.5431  1.9868 -0.8294
11352SOL     OW34633   9.333   3.372   5.906 -0.1487  0.8326 -0.3457
11352SOL    HW134634   9.254   3.342   5.951  0.7966 -1.1350  0.1374
11352SOL    HW234635   9.397   3.386   5.977  0.4778  0.5735 -0.8432
11353SOL     OW34636   6.548   6.327   1.837  0.5758 -0.1989 -0.3641
11353SOL    HW134637   6.568   6.356   1.926 -1.3565 -0.2517  0.1249
11353SOL    HW234638   6.485   6.257   1.848  0.9607 -0.8026 -1.7716
11354SOL     OW34639   9.119   2.965   2.741 -0.1788  0.2154 -0.1205
11354SOL    HW134640   9.088   2.950   2.831 -1.3096  1.0224 -0.3550
11354SOL    HW234641   9.214   2.973   2.750 -0.1453 -0.8656  0.8336
11355SOL     OW34642   2.728   6.542   3.572  0.4166  0.3887  0.0166
11355SOL    HW134643   2.814   6.562   3.609 -0.9459  3.1563  2.0886
11355SOL    HW234644   2.716   6.449   3.589  2.9917 -0.1132 -0.4406
11356SOL     OW34645   8.019   7.110   3.068 -0.3920  0.2904 -0.2169
11356SOL    HW134646   8.027   7.135   3.160  0.1533  0.3761 -0.2841
11356SOL    HW234647   7.925   7.102   3.053 -0.4622 -2.3340  1.0404
11357SOL     OW34648   9.355   9.523   6.242  0.7277  0.3523 -0.0766
11357SOL    HW134649   9.291   9.462   6.205 -0.0816  0.2502  1.4082
11357SOL    HW234650   9.319   9.610   6.223  0.4495  0.3046  0.2206
11358SOL     OW34651   0.347   5.383   3.055  0.1108 -0.4656  0.1686
11358SOL    HW134652   0.277   5.420   3.000  0.4408  1.6741  1.0832
11358SOL    HW234653   0.420   5.444   3.045 -0.1086  0.5880  3.6223
11359SOL     OW34654   6.206   3.042   4.090 -0.1642  0.5252 -0.5878
11359SOL    HW134655   6.248   3.121   4.055 -0.8296  0.5866 -1.2636
11359SOL    HW234656   6.145   3.075   4.155  0.8326  0.4326  0.4335
11360SOL     OW34657   2.554   2.796   1.648  0.1838 -0.1007 -0.2455
11360SOL    HW134658   2.497   2.740   1.596  0.4223  0.3208 -0.9779
11360SOL    HW234659   2.529   2.885   1.624  0.5309  0.0997  0.1099
11361SOL     OW34660   8.426   9.532   4.318 -0.1701  0.3830  0.6507
11361SOL    HW134661   8.427   9.449   4.366 -1.2444 -0.2709 -0.3949
11361SOL    HW234662   8.336   9.563   4.328 -0.3322  0.3739 -0.7025
11362SOL     OW34663   0.494   9.270   0.904 -0.0307  0.5721  0.3586
11362SOL    HW134664   0.577   9.247   0.946 -0.2542  0.0633  0.5297
11362SOL    HW234665   0.449   9.325   0.969 -0.1502  0.2199  0.5790
11363SOL     OW34666   7.312   1.414   0.776 -0.1414 -0.0270 -0.1595
11363SOL    HW134667   7.327   1.505   0.803  0.6541 -0.5584  1.3144
11363SOL    HW234668   7.227   1.392   0.814 -0.6068  0.2595 -1.0080
11364SOL     OW34669   5.961   5.641   7.659  0.0385  0.0742 -0.7612
11364SOL    HW134670   5.962   5.667   7.567  0.1965  0.4477 -0.6546
11364SOL    HW234671   5.915   5.556   7.659  0.9213 -0.4195 -1.3080
11365SOL     OW34672   5.452   9.685   1.653 -0.6060  0.1422 -0.3039
11365SOL    HW134673   5.388   9.692   1.724 -0.2335 -0.8227  0.1467
11365SOL    HW234674   5.405   9.642   1.582 -1.0548  1.3412 -0.7577
11366SOL     OW34675   8.378   0.390   8.044 -0.0579  0.1237  1.2313
11366SOL    HW134676   8.391   0.445   7.967 -2.0913  1.3641  1.6895
11366SOL    HW234677   8.452   0.411   8.102  1.4738 -0.8025 -0.3163
11367SOL     OW34678   3.225   3.325   3.083 -0.6860 -0.3416  0.6570
11367SOL    HW134679   3.165   3.283   3.144 -0.1344 -0.0062  1.4339
11367SOL    HW234680   3.234   3.262   3.011 -2.1464 -0.2964  0.4043
11368SOL     OW34681   6.743   7.554   2.169 -0.2868  0.1013  0.1104
11368SOL    HW134682   6.771   7.476   2.217  0.4579  0.2394 -0.0886
11368SOL    HW234683   6.768   7.627   2.226 -1.4881  0.1847  0.5523
11369SOL     OW34684   0.886   8.600  -0.001  0.1466  0.3040 -0.3341
11369SOL    HW134685   0.948   8.643   0.058 -0.9152 -1.4217  2.2443
11369SOL    HW234686   0.835   8.671  -0.039  0.4262  1.5064  1.4144
11370SOL     OW34687   4.521   1.908   6.305 -0.2049  0.1146 -0.1220
11370SOL    HW134688   4.539   1.993   6.266  0.8049  0.1730  0.4358
11370SOL    HW234689   4.574   1.906   6.385 -0.6805 -0.7923  0.1884
11371SOL     OW34690   8.029   0.976   8.214 -0.2212 -0.0339 -0.1800
11371SOL    HW134691   8.039   0.885   8.184  1.7082  0.2030 -0.3974
11371SOL    HW234692   8.074   0.978   8.299 -0.7105  0.6054  0.0721
11372SOL     OW34693   4.426   9.903   2.556 -0.1369  0.2818 -0.4195
11372SOL    HW134694   4.520   9.883   2.554 -0.1169 -0.1840  2.2028
11372SOL    HW234695   4.386   9.830   2.509  0.8803  1.7918 -3.9465
11373SOL     OW34696   5.625   8.668   5.218 -0.5660 -0.3042 -0.0216
11373SOL    HW134697   5.576   8.728   5.161 -0.2839 -0.2832 -0.2471
11373SOL    HW234698   5.569   8.656   5.294 -0.5536  0.3795  0.1025
11374SOL     OW34699   3.698   3.245   8.625 -0.2026  0.1497  0.5616
11374SOL    HW134700   3.687   3.214   8.715  0.2288 -0.0231  0.5559
11374SOL    HW234701   3.716   3.338   8.633  1.2771 -0.1283  0.7485
11375SOL     OW34702   9.375   2.125   9.960  1.2491  0.1081 -0.0380
11375SOL    HW134703   9.342   2.067  10.029  0.1367  2.1623  1.2573
11375SOL    HW234704   9.393   2.066   9.886 -1.0039 -1.7416  0.7599
11376SOL     OW34705   6.484   6.264   5.434 -0.0454 -0.0031  0.2823
11376SOL    HW134706   6.497   6.169   5.424  2.7080  0.4712 -1.7323
11376SOL    HW234707   6.443   6.291   5.352 -0.1705  0.6363  0.5529
11377SOL     OW34708   6.698   6.498   9.938  0.1059 -0.4136  0.1631
11377SOL    HW134709   6.783   6.497   9.893 -0.5797 -0.9258 -1.1781
11377SOL    HW234710   6.656   6.417   9.910 -1.2784  0.3695 -0.0756
11378SOL     OW34711   7.065   5.377   3.610  0.2566  0.1542 -0.3443
11378SOL    HW134712   7.050   5.471   3.610 -2.8055 -0.1718  1.7170
11378SOL    HW234713   6.985   5.339   3.575 -1.2519 -1.7030  4.2730
11379SOL     OW34714   3.717   4.247   8.300 -0.1017  0.6615 -0.3709
11379SOL    HW134715   3.766   4.274   8.378 -0.9380  0.7700  0.1341
11379SOL    HW234716   3.753   4.161   8.277 -1.0296 -0.2111  1.2269
11380SOL     OW34717   4.064   1.030   2.667  0.1707  0.0676 -0.1927
11380SOL    HW134718   4.075   1.109   2.721  0.8559 -0.3773  0.3268
11380SOL    HW234719   4.153   1.005   2.643  0.1490 -1.7783  1.4330
11381SOL     OW34720   8.147   0.235   5.943  0.5726 -0.1516 -0.2681
11381SOL    HW134721   8.241   0.216   5.950  0.7972  0.8171 -0.4251
11381SOL    HW234722   8.104   0.149   5.948  1.6322 -0.9825 -3.2449
11382SOL     OW34723   4.153   5.008   7.296  0.7509 -0.6744  0.6363
11382SOL    HW134724   4.063   5.030   7.272  0.5077 -2.0278  0.2755
11382SOL    HW234725   4.144   4.945   7.368  1.4049 -0.9718  0.4638
11383SOL     OW34726   6.692   5.786   9.050  0.2701 -0.3228 -0.2857
11383SOL    HW134727   6.771   5.746   9.086 -0.1133 -0.6027  0.2587
11383SOL    HW234728   6.721   5.873   9.021  1.0204 -0.8449 -1.1380
11384SOL     OW34729   9.021   8.503   8.248 -0.6029 -0.1666  0.2046
11384SOL    HW134730   8.929   8.482   8.264 -0.8187  0.3050 -0.3793
11384SOL    HW234731   9.057   8.424   8.207 -1.0802  0.0956 -0.7598
11385SOL     OW34732   4.787   0.818   6.384  0.0338 -0.4549  0.1271
11385SOL    HW134733   4.785   0.887   6.319  1.0237 -0.4861  0.0506
11385SOL    HW234734   4.700   0.821   6.426 -0.6317 -0.4702 -1.2063
11386SOL     OW34735   8.414   9.336   5.608  0.5442 -0.0837  0.1478
11386SOL    HW134736   8.374   9.291   5.533 -0.0517 -0.5018  0.7033
11386SOL    HW234737   8.505   9.347   5.583  0.3372 -0.1417 -0.6790
11387SOL     OW34738   5.232   3.063   0.490  0.1741 -0.1631  0.3148
11387SOL    HW134739   5.214   2.984   0.540 -2.3191 -0.5831 -1.0959
11387SOL    HW234740   5.315   3.095   0.526  1.0261 -3.0953  1.2764
11388SOL     OW34741   9.036   5.474   2.363  0.3418  0.9198  1.0159
11388SOL    HW134742   8.966   5.453   2.301 -0.6569  0.0383  2.3757
11388SOL    HW234743   9.105   5.512   2.309 -1.0277  1.4831 -0.4388
11389SOL     OW34744   0.868   8.346   9.929  0.5467  0.2453  0.0143
11389SOL    HW134745   0.802   8.345   9.859  0.2353  0.0206  0.3089
11389SOL    HW234746   0.871   8.437   9.958  0.3063  0.2403  0.0572
11390SOL     OW34747   9.089   8.720   8.378 -0.5093  0.2837 -0.1064
11390SOL    HW134748   9.182   8.703   8.392 -0.9260 -2.3932  0.1050
11390SOL    HW234749   9.060   8.648   8.321 -2.5773  0.6476  0.3949
11391SOL     OW34750   3.568   9.401   3.627  0.5094 -0.3897  0.2024
11391SOL    HW134751   3.622   9.436   3.698  3.2106 -2.0287 -0.8807
11391SOL    HW234752   3.540   9.315   3.657 -1.0623  0.1791  0.4831
11392SOL     OW34753   5.816   4.765   5.003 -0.3379 -0.6102 -0.0395
11392SOL    HW134754   5.778   4.698   4.946  0.3358 -1.5842  0.6328
11392SOL    HW234755   5.793   4.737   5.092 -0.2090  0.1570  0.2433
11393SOL     OW34756   6.159   9.524   8.044  0.8263 -0.5564 -0.1969
11393SOL    HW134757   6.104   9.602   8.047  0.1783 -1.0262  0.2935
11393SOL    HW234758   6.122   9.470   7.975 -0.0321 -1.3710  0.8607
11394SOL     OW34759   6.418   7.485   8.158 -0.2052  0.1887  0.6464
11394SOL    HW134760   6.377   7.568   8.184 -1.5561 -0.1585 -0.2880
11394SOL    HW234761   6.501   7.511   8.118 -0.4815  1.0768  0.6270
11395SOL     OW34762   5.621   8.402   0.417 -0.8242  0.3369 -0.1066
11395SOL    HW134763   5.628   8.492   0.384  0.4989  0.0646 -0.6475
11395SOL    HW234764   5.708   8.384   0.454 -1.0128 -0.7783 -0.1815
11396SOL     OW34765   5.300   7.155   9.029  0.6316 -0.0829  0.4679
11396SOL    HW134766   5.310   7.108   9.112  0.7625 -0.8906  0.0099
11396SOL    HW234767   5.324   7.090   8.962  1.0827  0.7292 -0.1683
11397SOL     OW34768   9.328   5.823   5.440  0.0788  0.3774 -0.0136
11397SOL    HW134769   9.397   5.800   5.502 -1.3249 -1.1153  1.0889
11397SOL    HW234770   9.290   5.739   5.414 -0.4522  1.0833 -1.6356
11398SOL     OW34771   5.829   5.769   9.159 -0.0923 -0.4635 -0.1258
11398SOL    HW134772   5.818   5.834   9.228  0.1028 -0.2622 -0.2854
11398SOL    HW234773   5.877   5.697   9.201  1.9673  0.5726 -0.6089
11399SOL     OW34774   7.690   7.342   8.518  0.1105  0.4580  0.0062
11399SOL    HW134775   7.730   7.422   8.484  0.6921  0.4634  0.6801
11399SOL    HW234776   7.627   7.373   8.584  0.0074  0.3824 -0.0574
11400SOL     OW34777   0.907   1.225   4.025  0.0081 -0.0484 -0.3850
11400SOL    HW134778   0.953   1.260   3.949 -1.4607  1.0538 -0.8179
11400SOL    HW234779   0.815   1.245   4.008 -0.3709  0.0970  1.6184
11401SOL     OW34780   3.481   4.315   6.634  0.2156 -0.0061 -0.3455
11401SOL    HW134781   3.485   4.288   6.542  0.3385  0.7570 -0.5801
11401SOL    HW234782   3.449   4.406   6.630  1.5024  0.5021  0.2685
11402SOL     OW34783   2.569   6.487   3.200 -0.2324 -0.5637 -0.6277
11402SOL    HW134784   2.490   6.442   3.172  0.0930 -0.3863 -1.8900
11402SOL    HW234785   2.594   6.541   3.125 -0.1796  1.1350  0.5412
11403SOL     OW34786   3.264   1.814   0.714  0.0180 -0.1579 -0.0136
11403SOL    HW134787   3.291   1.847   0.800 -1.8238 -0.1917  0.6409
11403SOL    HW234788   3.200   1.879   0.683 -0.6644 -1.0652 -0.5460
11404SOL     OW34789   1.567   0.249   1.906  0.1573 -0.0987 -0.0286
11404SOL    HW134790   1.626   0.175   1.920 -0.8427 -0.9530 -0.2237
11404SOL    HW234791   1.615   0.308   1.848  0.8650 -0.7133 -0.0725
11405SOL     OW34792   1.283   4.687   1.693 -0.0713  0.2204  0.3934
11405SOL    HW134793   1.335   4.760   1.661  0.4419 -0.4239 -0.2781
11405SOL    HW234794   1.194   4.706   1.663  0.1926  0.2146 -0.4360
11406SOL     OW34795   1.588   5.329   8.857 -0.0870 -0.4424 -0.2378
11406SOL    HW134796   1.572   5.421   8.877 -1.2086 -0.9609  1.5007
11406SOL    HW234797   1.676   5.311   8.890 -0.0816 -0.1196 -0.0799
11407SOL     OW34798   9.847   0.402   6.429  0.5276 -0.3193  0.3984
11407SOL    HW134799   9.938   0.386   6.406  0.5380 -1.2322  1.0189
11407SOL    HW234800   9.848   0.418   6.523  0.2466  1.4161  0.1387
11408SOL     OW34801   0.180   7.431   8.018 -0.0243 -0.2426 -0.0661
11408SOL    HW134802   0.157   7.502   8.078 -1.1831 -1.3027  0.7703
11408SOL    HW234803   0.276   7.433   8.015  0.0083  0.4587  1.0449
11409SOL     OW34804   5.753   7.581   8.140 -0.1799 -0.0210  0.2034
11409SOL    HW134805   5.831   7.602   8.191  0.2095  1.1574 -0.8134
11409SOL    HW234806   5.785   7.519   8.073 -0.2700 -0.1064  0.2411
11410SOL     OW34807   4.281   3.089   0.201 -0.2193 -0.2145  0.0071
11410SOL    HW134808   4.315   3.103   0.113  0.3886 -0.7212  0.1538
11410SOL    HW234809   4.199   3.041   0.188  0.2269 -0.9147 -0.2529
11411SOL     OW34810   9.747   1.624   7.106  0.0095  0.5513 -0.2975
11411SOL    HW134811   9.814   1.597   7.168 -0.6922 -0.0689  0.2025
11411SOL    HW234812   9.795   1.643   7.025  0.8074  0.3569  0.1271
11412SOL     OW34813   9.938   5.827   8.424 -0.1180 -0.1453  0.3323
11412SOL    HW134814   9.915   5.815   8.516 -1.5463  0.4130  0.0771
11412SOL    HW234815   9.865   5.876   8.387  0.3326 -0.5280 -1.1502
11413SOL     OW34816   9.236   1.643   9.924 -0.1376  0.2691  0.0094
11413SOL    HW134817   9.171   1.660   9.856 -0.4978 -0.9210  0.0241
11413SOL    HW234818   9.203   1.565   9.969 -0.1482  1.3134  1.8748
11414SOL     OW34819   2.203   3.537   9.442  0.0486 -0.0571  0.5319
11414SOL    HW134820   2.272   3.584   9.396  0.3358 -1.0135 -0.0411
11414SOL    HW234821   2.249   3.488   9.510 -0.4242  1.7726  2.2549
11415SOL     OW34822   8.262   0.412   7.444 -0.0681 -0.2068  0.4583
11415SOL    HW134823   8.355   0.392   7.438 -0.2661 -0.9485 -0.1573
11415SOL    HW234824   8.257   0.484   7.507  1.0418  0.6994 -0.4480
11416SOL     OW34825   1.574   8.010   6.532  0.4317  0.6153 -0.0513
11416SOL    HW134826   1.632   8.070   6.579  0.7679 -0.3820  0.8581
11416SOL    HW234827   1.503   8.065   6.499  0.0865  1.3465  1.8070
11417SOL     OW34828   0.058   2.478   3.893  0.1519  0.4950  0.2950
11417SOL    HW134829   0.142   2.473   3.937  0.2258  1.1372  0.2433
11417SOL    HW234830   0.033   2.387   3.878  1.0452  0.2930 -0.0824
11418SOL     OW34831   3.697   7.328   6.442  0.1835 -0.0354  0.1804
11418SOL    HW134832   3.790   7.316   6.422 -0.0952 -0.4883 -0.9293
11418SOL    HW234833   3.665   7.241   6.463 -0.3631 -0.2032 -1.2128
11419SOL     OW34834   4.938   9.881   2.998  0.2012  0.1107 -0.2440
11419SOL    HW134835   5.007   9.928   2.951  2.0976 -1.8617  0.4002
11419SOL    HW234836   4.856   9.922   2.968  1.3894  0.3280 -3.6441
11420SOL     OW34837   0.450   0.471   3.173  0.5917  0.0090 -1.0053
11420SOL    HW134838   0.485   0.403   3.229  0.3799  0.4713 -0.3033
11420SOL    HW234839   0.407   0.532   3.232  0.9217  0.8456 -1.6026
11421SOL     OW34840   7.898   1.879   6.211  0.1984 -0.3565 -0.3970
11421SOL    HW134841   7.953   1.920   6.278 -0.4276 -2.5250  1.5648
11421SOL    HW234842   7.878   1.950   6.150  2.9002  1.1245  0.2873
11422SOL     OW34843   2.370   0.685   2.685  0.1728  0.4600  0.1463
11422SOL    HW134844   2.362   0.768   2.638  0.6011  0.6100  0.3424
11422SOL    HW234845   2.311   0.626   2.638 -0.9002  1.1361  0.5983
11423SOL     OW34846   4.301   8.188   3.019  0.1077 -0.1175 -0.1303
11423SOL    HW134847   4.254   8.168   2.938 -0.3494 -1.2750  0.3979
11423SOL    HW234848   4.246   8.254   3.062 -0.8595 -1.1685  0.2937
11424SOL     OW34849   2.089   3.787   2.026  0.0214  0.4796  0.4289
11424SOL    HW134850   2.024   3.808   1.960  0.8927  1.0174 -0.2826
11424SOL    HW234851   2.118   3.699   2.004 -1.5542 -0.4005  1.6826
11425SOL     OW34852   9.012   8.047   9.916  0.0597 -0.3927  0.3037
11425SOL    HW134853   9.098   8.082   9.938 -0.3495  1.3206 -0.7072
11425SOL    HW234854   8.963   8.048   9.999  0.1296  1.2687  0.3449
11426SOL     OW34855   4.542   5.726   6.127 -0.4657  0.3017  0.2051
11426SOL    HW134856   4.452   5.759   6.130 -0.5508 -0.0017  1.2912
11426SOL    HW234857   4.534   5.638   6.090 -0.7176 -0.0200  1.0037
11427SOL     OW34858   9.941   0.019   0.351  0.2404 -0.3817  0.3560
11427SOL    HW134859  10.003  -0.038   0.305  0.9485 -0.3649  1.2570
11427SOL    HW234860   9.918   0.086   0.287  0.3256 -0.9917 -0.3322
11428SOL     OW34861   2.390   4.633   6.074 -0.4195 -0.3970 -0.5287
11428SOL    HW134862   2.377   4.654   6.166 -0.8333  0.4354 -0.7673
11428SOL    HW234863   2.393   4.537   6.071  1.2839 -0.4106  0.5480
11429SOL     OW34864   3.087   4.052   2.623  0.4399  0.6814  0.1049
11429SOL    HW134865   3.093   4.089   2.711 -1.5729  0.9656  0.1606
11429SOL    HW234866   3.022   3.983   2.630 -1.1248  1.8972 -1.5001
11430SOL     OW34867   8.521   5.891   0.720  0.2961  0.0039 -0.3051
11430SOL    HW134868   8.567   5.843   0.651  0.7203 -1.2681  0.8094
11430SOL    HW234869   8.591   5.934   0.770  0.0147  0.7055 -0.5081
11431SOL     OW34870   3.715   1.187   2.258 -0.4963 -0.3076 -0.6302
11431SOL    HW134871   3.746   1.124   2.323 -1.7568 -0.3660 -0.0564
11431SOL    HW234872   3.646   1.235   2.303 -1.1507 -0.1088 -1.8275
11432SOL     OW34873   1.875   5.348   5.626  0.2552 -0.2201  0.5640
11432SOL    HW134874   1.784   5.328   5.606 -0.3975  1.4253  1.6948
11432SOL    HW234875   1.884   5.442   5.607  1.6909 -0.3311  0.5714
11433SOL     OW34876   8.483   7.365   2.453 -0.3803  0.1021 -0.2129
11433SOL    HW134877   8.506   7.435   2.391  0.9351  0.1705  0.3229
11433SOL    HW234878   8.422   7.310   2.405 -0.1333  0.6945 -1.2355
11434SOL     OW34879   8.899   8.088   8.970  0.4366 -0.5541 -0.1791
11434SOL    HW134880   8.892   8.147   8.895  3.2889 -0.1440 -0.2441
11434SOL    HW234881   8.941   8.140   9.038  0.9547 -1.8494  0.5349
11435SOL     OW34882   4.339   9.628   2.472 -0.0429 -0.3727 -0.5293
11435SOL    HW134883   4.371   9.633   2.382  0.0773 -1.7406 -0.5812
11435SOL    HW234884   4.406   9.579   2.519 -0.1005  0.3345  0.3256
11436SOL     OW34885   4.965   8.425   4.738 -0.3373 -0.1577 -0.0812
11436SOL    HW134886   5.011   8.348   4.771 -0.7237 -0.4038 -0.1177
11436SOL    HW234887   5.029   8.496   4.747  0.4474 -0.6990 -1.1612
11437SOL     OW34888   3.880   5.661   2.571 -0.0101  0.0457  0.1564
11437SOL    HW134889   3.957   5.693   2.525 -0.6297  2.4505  0.6666
11437SOL    HW234890   3.861   5.728   2.637 -1.2261 -1.5725  1.5708
11438SOL     OW34891   7.549   6.590   5.552 -0.2738 -0.7712 -0.8351
11438SOL    HW134892   7.529   6.670   5.601 -3.6177 -1.9360 -0.0587
11438SOL    HW234893   7.602   6.620   5.478 -0.4242  1.9765  0.0598
11439SOL     OW34894   9.133   3.035   1.743  0.0791  0.1664  0.2018
11439SOL    HW134895   9.168   2.982   1.672 -0.3430 -2.4845  1.8208
11439SOL    HW234896   9.047   3.063   1.713  0.2082 -0.2993 -0.6185
11440SOL     OW34897   1.688   4.009   1.297  0.1080 -0.4544  0.2639
11440SOL    HW134898   1.661   3.963   1.217  0.1866  1.0417 -0.6717
11440SOL    HW234899   1.618   4.073   1.312  1.7833  1.7668 -0.7656
11441SOL     OW34900   9.233   2.442   1.400 -0.5295  0.2258 -0.2921
11441SOL    HW134901   9.259   2.356   1.433 -2.9955 -1.0431 -1.4325
11441SOL    HW234902   9.257   2.441   1.308 -1.2534  0.4395 -0.4914
11442SOL     OW34903   5.747   3.097   1.793 -0.2951 -0.5260  0.6343
11442SOL    HW134904   5.761   3.141   1.876 -0.7778  1.3001 -0.2086
11442SOL    HW234905   5.652   3.080   1.790 -0.5126  0.7122 -0.1312
11443SOL     OW34906   0.860   0.589   6.913  0.6442  0.1526  0.2533
11443SOL    HW134907   0.923   0.657   6.936  0.1339  0.7604 -0.0986
11443SOL    HW234908   0.903   0.507   6.936  2.3807  0.3973 -1.8307
11444SOL     OW34909   8.543   8.340   8.207  0.8251 -0.6888  0.3703
11444SOL    HW134910   8.531   8.435   8.201  1.6007 -0.6306 -0.4237
11444SOL    HW234911   8.454   8.304   8.201  0.6818 -0.1107 -1.6342
11445SOL     OW34912   3.919   5.357   8.803  0.1076 -0.1550 -0.2084
11445SOL    HW134913   3.911   5.449   8.827 -1.1874 -0.1555 -0.5590
11445SOL    HW234914   3.837   5.317   8.833  0.1104 -0.9254 -1.1663
11446SOL     OW34915   5.010   7.380   0.777 -0.0797 -0.2470  0.2718
11446SOL    HW134916   5.002   7.337   0.863 -1.4065  0.4614  0.5206
11446SOL    HW234917   5.095   7.424   0.781 -0.2908  0.1006  1.3845
11447SOL     OW34918   7.493   7.323   6.792  0.5096 -0.2591 -0.0906
11447SOL    HW134919   7.444   7.291   6.717 -0.1341 -1.2472  0.7260
11447SOL    HW234920   7.432   7.382   6.837  0.3539 -0.8515  0.4813
11448SOL     OW34921   4.014   6.741   9.419  0.0662 -0.2010  0.1249
11448SOL    HW134922   4.004   6.647   9.403  1.4906 -0.1409 -1.3625
11448SOL    HW234923   4.108   6.756   9.418 -0.1567  1.3326 -0.3204
11449SOL     OW34924   1.964   3.329   4.843 -0.1007 -0.1297  0.4794
11449SOL    HW134925   1.989   3.348   4.752 -0.9244  0.2090  0.3087
11449SOL    HW234926   1.873   3.299   4.836  0.0454 -0.7466  1.1264
11450SOL     OW34927   9.502   3.277   2.624  0.1658 -0.2573 -0.3732
11450SOL    HW134928   9.421   3.234   2.597  0.7626 -0.3346 -2.1845
11450SOL    HW234929   9.491   3.294   2.717 -0.3187 -3.8210  0.3379
11451SOL     OW34930   7.308   8.454   7.774  0.2236 -0.5013  0.3499
11451SOL    HW134931   7.269   8.369   7.794  1.3380 -1.1814 -0.2508
11451SOL    HW234932   7.403   8.438   7.775  0.4339  0.3099 -1.5247
11452SOL     OW34933   4.189   9.656   4.344  0.4610 -0.0529 -0.5396
11452SOL    HW134934   4.175   9.718   4.272  0.9493  0.3745 -0.2775
11452SOL    HW234935   4.212   9.712   4.418  0.8200 -0.5498 -0.2780
11453SOL     OW34936   0.248   7.388   3.145 -0.4943  0.1181 -0.1735
11453SOL    HW134937   0.243   7.314   3.205 -0.3929  0.3437  0.1147
11453SOL    HW234938   0.320   7.367   3.086 -1.8164 -1.0234 -1.4664
11454SOL     OW34939   0.743   7.947   5.912  0.1247 -0.7501  0.5791
11454SOL    HW134940   0.686   7.873   5.934  1.4757 -1.4491  1.8940
11454SOL    HW234941   0.687   8.024   5.922 -1.5885 -1.5741 -1.7729
11455SOL     OW34942   5.354   2.643   3.721  0.0173  0.4184 -0.1173
11455SOL    HW134943   5.368   2.567   3.777 -1.0310  0.0080 -0.3872
11455SOL    HW234944   5.262   2.638   3.696  0.1009  1.4065 -0.6900
11456SOL     OW34945   0.098   8.274   8.746  0.0694 -0.5227  0.0285
11456SOL    HW134946   0.061   8.268   8.834  0.4701 -0.7822  0.1830
11456SOL    HW234947   0.088   8.186   8.710  0.4272 -0.5665  0.0304
11457SOL     OW34948   5.133   8.783   9.507  0.3771 -0.4061 -0.5085
11457SOL    HW134949   5.152   8.690   9.495  1.2752 -0.6213  1.9142
11457SOL    HW234950   5.216   8.821   9.536 -0.0442  1.1134 -1.1829
11458SOL     OW34951   0.110   3.080   5.242  0.2231  0.5250 -0.0978
11458SOL    HW134952   0.090   3.173   5.235 -1.3166  0.2820  0.7611
11458SOL    HW234953   0.080   3.055   5.329 -1.4892 -1.2413 -1.1210
11459SOL     OW34954   7.830   2.292   7.873  0.2341 -0.4729  0.3025
11459SOL    HW134955   7.815   2.280   7.779  1.8337  2.7983 -0.4873
11459SOL    HW234956   7.833   2.202   7.908  0.2265 -1.8234 -2.8298
11460SOL     OW34957   0.398   3.269   9.958  0.3768 -0.6253  0.1292
11460SOL    HW134958   0.324   3.232   9.911  1.0714 -2.2545  0.2412
11460SOL    HW234959   0.366   3.286  10.046 -0.3027  0.2972 -0.2787
11461SOL     OW34960   0.870   5.552   8.909 -0.1036  0.0524 -0.3877
11461SOL    HW134961   0.838   5.523   8.994 -1.8396  0.1950 -0.9364
11461SOL    HW234962   0.881   5.472   8.858  0.2096  0.0158 -0.2618
11462SOL     OW34963   1.729   9.609   1.989  0.3801 -0.0110  0.4156
11462SOL    HW134964   1.792   9.645   2.051 -0.0516  2.7856 -0.5856
11462SOL    HW234965   1.782   9.570   1.920  0.9558  0.2380  0.7163
11463SOL     OW34966   6.997   1.577   6.592 -0.2212 -0.2326 -0.0819
11463SOL    HW134967   7.023   1.639   6.661  0.5284 -0.9121  0.2537
11463SOL    HW234968   7.076   1.564   6.540 -0.8169  0.3844 -1.1773
11464SOL     OW34969   6.099   7.648   3.240 -0.3143 -0.6076 -0.5276
11464SOL    HW134970   6.073   7.666   3.331  1.6145 -0.6695  0.0900
11464SOL    HW234971   6.030   7.687   3.187 -0.7442  0.7559  0.9483
11465SOL     OW34972   6.156   6.677   7.665  0.1950  0.1858 -0.1351
11465SOL    HW134973   6.099   6.647   7.594  1.4552 -1.2057 -0.6057
11465SOL    HW234974   6.182   6.766   7.640 -0.4975  0.2399 -0.6845
11466SOL     OW34975   9.765   0.370   2.675  0.0614 -0.1390  0.1835
11466SOL    HW134976   9.786   0.450   2.724 -0.3241  0.5604 -0.7624
11466SOL    HW234977   9.829   0.369   2.604 -0.9756  0.2217 -0.7725
11467SOL     OW34978   5.945   3.529   4.138  0.6305 -0.4581  0.1947
11467SOL    HW134979   5.912   3.608   4.182  0.6964 -0.5172  0.3498
11467SOL    HW234980   5.873   3.467   4.143  0.5500 -0.3828  0.0033
11468SOL     OW34981   9.486   5.777   5.848 -0.1435  0.1414  0.2417
11468SOL    HW134982   9.439   5.697   5.826  0.6029 -0.6316  1.3656
11468SOL    HW234983   9.511   5.814   5.763 -1.4952 -0.1893 -0.3188
11469SOL     OW34984   2.064   5.100   7.993  0.4411  0.3236 -0.2374
11469SOL    HW134985   2.102   5.174   7.945 -1.2077  1.3624 -0.0447
11469SOL    HW234986   1.974   5.094   7.960  0.4276 -1.3814  0.0334
11470SOL     OW34987   1.968   3.142   2.764  0.4487 -0.5233 -0.2586
11470SOL    HW134988   1.972   3.090   2.845  0.9943  1.1185  0.8214
11470SOL    HW234989   1.876   3.168   2.757  0.2677 -1.2140 -0.5479
11471SOL     OW34990   2.977   7.207  -0.008  0.1906 -0.9953  0.2465
11471SOL    HW134991   2.966   7.155   0.072 -1.1530  0.3234  0.9615
11471SOL    HW234992   3.057   7.257   0.008  1.5246 -2.8053 -0.4694
11472SOL     OW34993   5.811   8.416   6.817  0.5058 -0.6619 -0.2157
11472SOL    HW134994   5.757   8.385   6.890  0.1467 -1.1611 -0.6876
11472SOL    HW234995   5.775   8.371   6.740  1.0288 -0.3161 -0.6647
11473SOL     OW34996   3.556   1.296   6.659  0.5606  0.1883 -0.0100
11473SOL    HW134997   3.619   1.237   6.618 -0.3481 -0.0777 -1.0859
11473SOL    HW234998   3.479   1.241   6.674  0.0268  0.8762 -0.1869
11474SOL     OW34999   7.333   2.196   4.344 -0.0105  0.3075  0.3979
11474SOL    HW135000   7.377   2.281   4.339 -0.6340  0.7736  2.1154
11474SOL    HW235001   7.261   2.210   4.406 -0.4217 -1.3501  0.3341
11475SOL     OW35002   3.210   0.595   7.430 -0.1371  0.1334 -0.6279
11475SOL    HW135003   3.150   0.659   7.391  1.0576  2.5749  1.2750
11475SOL    HW235004   3.290   0.602   7.378 -0.2214 -0.3513 -0.8317
11476SOL     OW35005   1.856   7.433   6.923  0.1087  0.2774  0.3240
11476SOL    HW135006   1.854   7.442   6.827  0.1581 -1.8485  0.0738
11476SOL    HW235007   1.765   7.442   6.950 -0.1785 -0.9424 -0.1630
11477SOL     OW35008   5.561   6.618   3.556  0.4588 -0.2145  0.2612
11477SOL    HW135009   5.486   6.675   3.571 -0.1808 -0.7347 -0.8061
11477SOL    HW235010   5.631   6.677   3.527 -0.0517  0.0992 -0.3724
11478SOL     OW35011   7.315   5.786   3.838  0.1442  0.0348  0.1300
11478SOL    HW135012   7.224   5.763   3.820  0.3204  0.5807 -1.6467
11478SOL    HW235013   7.365   5.738   3.772  1.1582 -0.2242  1.0635
11479SOL     OW35014   5.464   9.532   5.743  0.0347  0.4469 -0.7686
11479SOL    HW135015   5.399   9.548   5.812  0.2900 -0.7152 -0.2227
11479SOL    HW235016   5.437   9.589   5.671 -0.9975  0.7373 -0.1772
11480SOL     OW35017   1.283   4.493   3.684 -0.1229 -0.2112  0.4646
11480SOL    HW135018   1.190   4.505   3.702  0.1887  2.4295  0.7494
11480SOL    HW235019   1.312   4.425   3.745 -2.3789 -3.3803 -1.6776
11481SOL     OW35020   1.948   2.989   6.693  0.3217  0.5976  0.0850
11481SOL    HW135021   2.027   2.976   6.641  0.8346  0.1743  0.9371
11481SOL    HW235022   1.977   3.044   6.766  0.4047 -1.3320  1.6097
11482SOL     OW35023   2.735   2.717   4.926  0.4532  0.1618 -0.7512
11482SOL    HW135024   2.826   2.732   4.952  0.5263  2.3692 -2.0357
11482SOL    HW235025   2.684   2.761   4.993  0.3490 -0.5236 -0.3776
11483SOL     OW35026   8.733   2.901   1.277  0.3273  0.1793  0.3829
11483SOL    HW135027   8.716   2.942   1.192 -0.6898 -0.5687  0.2118
11483SOL    HW235028   8.693   2.814   1.270  0.3105  0.0792  1.5913
11484SOL     OW35029   6.225   4.106   0.896  0.3318  0.9400 -0.2493
11484SOL    HW135030   6.179   4.023   0.886 -1.2032  1.8409 -0.9280
11484SOL    HW235031   6.208   4.132   0.987  0.5403  0.6864 -0.1353
11485SOL     OW35032   2.882   7.953   4.410 -0.0048  0.2703 -0.3944
11485SOL    HW135033   2.936   7.980   4.335  1.4061  0.0838  0.5098
11485SOL    HW235034   2.903   8.017   4.478  1.1578 -1.3515  0.8439
11486SOL     OW35035   8.886   1.293   3.039  0.0446  0.4059 -0.3957
11486SOL    HW135036   8.842   1.224   3.090  0.1411 -0.9933 -2.1087
11486SOL    HW235037   8.973   1.257   3.022  0.1950  1.0854 -1.0802
11487SOL     OW35038   6.041   3.380   0.488  0.0338  0.1146 -0.0960
11487SOL    HW135039   6.115   3.352   0.542  1.3659 -0.1286 -1.9615
11487SOL    HW235040   5.987   3.301   0.479 -1.0171  0.5091  2.0076
11488SOL     OW35041   3.582   4.413   3.049  0.3178 -0.3361  0.3550
11488SOL    HW135042   3.584   4.509   3.047 -2.2666 -0.2225 -0.7607
11488SOL    HW235043   3.634   4.386   2.974  0.0554  0.2649 -0.0534
11489SOL     OW35044   6.760   0.458   5.542 -0.0512  0.1215  0.0871
11489SOL    HW135045   6.745   0.542   5.499  0.3692  0.8965  1.3872
11489SOL    HW235046   6.831   0.418   5.491  1.0511  1.4074  0.5537
11490SOL     OW35047   6.608   8.773   8.711 -0.0614 -0.3254  0.4335
11490SOL    HW135048   6.657   8.806   8.786 -0.2849 -0.2554  0.5517
11490SOL    HW235049   6.551   8.845   8.686  0.5353 -0.0894 -0.2725
11491SOL     OW35050   7.383   7.529   0.203  0.0101 -0.1778 -0.2530
11491SOL    HW135051   7.292   7.559   0.193  0.2796  0.6355 -0.2941
11491SOL    HW235052   7.412   7.513   0.114 -0.0577 -0.3602 -0.2446
11492SOL     OW35053   5.217   6.347   3.948  0.8324 -0.4128 -0.7445
11492SOL    HW135054   5.236   6.272   3.892 -0.8758 -0.6474 -1.0808
11492SOL    HW235055   5.128   6.373   3.923  0.1633 -0.2802  1.5715
11493SOL     OW35056   3.775   8.407   5.785  0.5740 -0.3244 -0.5362
11493SOL    HW135057   3.686   8.376   5.801  0.7353 -1.8728 -2.3467
11493SOL    HW235058   3.769   8.502   5.791 -1.1475 -0.4104 -0.4349
11494SOL     OW35059   3.308   5.954   5.086  0.1504  0.4234 -0.5099
11494SOL    HW135060   3.387   5.983   5.040 -1.4395  2.2676 -2.2488
11494SOL    HW235061   3.279   6.031   5.135 -0.8083 -0.0870 -0.2586
11495SOL     OW35062   7.664   0.116   1.824 -0.7945 -0.2781 -0.6084
11495SOL    HW135063   7.737   0.068   1.786  0.9622  0.0139  2.1358
11495SOL    HW235064   7.703   0.197   1.857 -2.2278 -0.2754  1.2842
11496SOL     OW35065   4.666   8.612   4.647 -0.1482 -0.0026  0.1306
11496SOL    HW135066   4.694   8.553   4.717 -1.7496 -0.9420  0.0288
11496SOL    HW235067   4.738   8.611   4.584 -0.5442 -2.7940 -0.4156
11497SOL     OW35068   4.462   3.847   5.951 -0.2346 -0.0213  0.2494
11497SOL    HW135069   4.491   3.778   5.891 -1.6901 -1.8847  1.5517
11497SOL    HW235070   4.496   3.928   5.914 -0.3443 -1.1794 -2.5839
11498SOL     OW35071   6.580   4.794   9.529 -0.3223 -0.4814 -0.0654
11498SOL    HW135072   6.630   4.867   9.565  1.2882 -1.6079  0.0775
11498SOL    HW235073   6.619   4.777   9.444 -3.4246  1.4724 -2.0772
11499SOL     OW35074   6.646   2.732   3.210 -0.0203 -0.5070 -0.0925
11499SOL    HW135075   6.736   2.734   3.178 -0.1475  0.2759 -0.4178
11499SOL    HW235076   6.621   2.824   3.216 -0.7921 -0.7207  0.0181
11500SOL     OW35077   7.770   7.838   5.453 -0.5006  0.7302  0.0550
11500SOL    HW135078   7.854   7.819   5.412  0.1542  1.0502  1.1838
11500SOL    HW235079   7.712   7.769   5.422 -0.0090  0.8860 -1.2667
11501SOL     OW35080   2.034   1.694   6.279 -0.1470 -0.1901  0.4630
11501SOL    HW135081   1.986   1.776   6.289 -1.2263 -0.4556 -1.8222
11501SOL    HW235082   2.110   1.717   6.225 -0.5638 -0.6913 -0.3602
11502SOL     OW35083   6.562   5.905   1.858  0.4226  0.1486 -0.4764
11502SOL    HW135084   6.651   5.938   1.863  0.4151  0.0385  0.4961
11502SOL    HW235085   6.507   5.980   1.882  0.2228  0.3109 -1.3915
11503SOL     OW35086   0.200   2.245   4.103  0.1925 -0.1546 -0.3545
11503SOL    HW135087   0.111   2.237   4.069 -0.6782  2.2810  1.1140
11503SOL    HW235088   0.199   2.194   4.184  0.3080 -0.5545 -0.6013
11504SOL     OW35089   4.295   6.235   1.150 -0.0265 -0.1577  0.2194
11504SOL    HW135090   4.268   6.325   1.134 -1.2785 -0.8761 -2.1128
11504SOL    HW235091   4.270   6.218   1.241  0.2013  1.7981  0.6812
11505SOL     OW35092   8.454   8.464   5.770 -0.3396 -0.1220 -0.1893
11505SOL    HW135093   8.503   8.382   5.768 -0.6574 -0.3620  0.8831
11505SOL    HW235094   8.364   8.439   5.749 -0.1540  0.2196 -1.4970
11506SOL     OW35095   5.314   1.273   9.322 -0.5091 -0.1401 -0.1796
11506SOL    HW135096   5.280   1.296   9.236  1.3262 -2.0372 -1.5105
11506SOL    HW235097   5.260   1.200   9.350 -2.5559  1.8294  1.4058
11507SOL     OW35098   7.347   7.047   9.607 -0.0884  0.7069  0.7205
11507SOL    HW135099   7.309   6.978   9.553  1.1441 -0.1855  0.9416
11507SOL    HW235100   7.334   7.018   9.697 -0.1105  1.0649  0.8347
11508SOL     OW35101   7.899   0.208   0.793  0.0188 -0.1737 -0.4005
11508SOL    HW135102   7.942   0.288   0.823 -1.4109  0.2348  0.6123
11508SOL    HW235103   7.846   0.235   0.718 -0.1550 -0.2519 -0.3061
11509SOL     OW35104   1.182   8.953   1.544  0.2233 -0.3795  0.1533
11509SOL    HW135105   1.113   9.010   1.509 -0.1494 -1.7483 -1.4625
11509SOL    HW235106   1.260   9.008   1.544 -0.1576  0.2038 -1.2161
11510SOL     OW35107   8.983   3.951   2.794 -0.2800 -0.2271 -0.0889
11510SOL    HW135108   8.968   3.955   2.700 -0.6319 -2.6789 -0.2173
11510SOL    HW235109   8.937   4.027   2.829 -0.0884  0.7759 -1.8643
11511SOL     OW35110   4.741   4.707   5.934  0.3192 -0.1420 -0.1812
11511SOL    HW135111   4.771   4.679   6.021  0.2169  1.6649  0.4800
11511SOL    HW235112   4.800   4.777   5.910  0.6884 -0.9852 -1.8658
11512SOL     OW35113   8.270   5.583   6.157  0.6457 -0.2517 -0.3953
11512SOL    HW135114   8.233   5.500   6.187  0.3486 -0.0339 -0.1549
11512SOL    HW235115   8.363   5.565   6.143  0.8450 -0.2828  0.9327
11513SOL     OW35116   2.638   7.288   3.010  0.0110  0.2878 -0.0086
11513SOL    HW135117   2.608   7.374   3.041  1.6674  0.4808  1.2117
11513SOL    HW235118   2.573   7.226   3.043 -1.1070  1.0458 -0.7516
11514SOL     OW35119   0.101   8.644   1.150  0.0645 -0.7161  0.0907
11514SOL    HW135120   0.030   8.587   1.121  0.4247 -0.9401 -0.3786
11514SOL    HW235121   0.181   8.593   1.134  0.3207 -0.5389  0.7767
11515SOL     OW35122   5.186   1.481   3.545 -0.0982 -0.5710  0.1641
11515SOL    HW135123   5.108   1.430   3.524 -0.4721 -0.5075  1.2928
11515SOL    HW235124   5.169   1.568   3.510 -1.0123 -0.2682  1.3044
11516SOL     OW35125   7.762   1.234   1.033 -0.5768  0.1281  0.4821
11516SOL    HW135126   7.794   1.154   0.993 -2.4196 -0.0290 -0.8179
11516SOL    HW235127   7.814   1.244   1.113  0.9236 -1.3561 -0.2481
11517SOL     OW35128   0.949   1.172   5.126  0.1041 -0.3519 -0.1448
11517SOL    HW135129   0.933   1.122   5.046  0.8873  0.2282 -0.6684
11517SOL    HW235130   0.967   1.104   5.192  0.2538 -0.8009 -0.6372
11518SOL     OW35131   1.226   2.395   9.203  0.1054 -0.4393 -0.8408
11518SOL    HW135132   1.254   2.338   9.274  1.2875  0.7428 -0.3349
11518SOL    HW235133   1.262   2.355   9.124 -0.0940 -1.0389 -0.6291
11519SOL     OW35134   3.503   5.762   5.199 -0.3475 -0.0585 -0.1732
11519SOL    HW135135   3.426   5.797   5.153  0.4909  2.3253  0.1205
11519SOL    HW235136   3.574   5.822   5.177  0.8540 -0.7371  1.6185
11520SOL     OW35137   1.372   1.939   0.038 -0.5485  0.2325  0.3522
11520SOL    HW135138   1.294   1.988   0.063 -1.7083 -1.2764 -0.2013
11520SOL    HW235139   1.377   1.869   0.103 -0.3252 -0.3697 -0.3137
11521SOL     OW35140   0.181   4.014   3.840 -0.2886 -0.7502 -0.2915
11521SOL    HW135141   0.127   3.954   3.788  0.4200 -1.2681 -0.4471
11521SOL    HW235142   0.261   3.965   3.856  0.3276  0.1828 -0.4741
11522SOL     OW35143   9.765   8.911   1.169  0.6194 -0.7078  0.0300
11522SOL    HW135144   9.703   8.982   1.186 -0.6131 -2.0068  1.2226
11522SOL    HW235145   9.777   8.912   1.074  1.1087  1.4382  0.0576
11523SOL     OW35146   0.323   1.967   0.740  0.2104  0.0508  0.5761
11523SOL    HW135147   0.408   1.942   0.778  0.4330 -0.7969 -0.4272
11523SOL    HW235148   0.345   2.003   0.654 -0.2922  1.9232  1.1779
11524SOL     OW35149   5.661   9.902   1.753 -0.7326  0.2916 -0.3944
11524SOL    HW135150   5.575   9.913   1.711 -1.4848 -0.3339  0.9197
11524SOL    HW235151   5.682   9.988   1.787 -0.8092  0.4588 -0.7610
11525SOL     OW35152   1.540   2.287   5.585 -0.3023 -0.2393 -0.0232
11525SOL    HW135153   1.573   2.291   5.496  0.9771 -2.4572  0.2743
11525SOL    HW235154   1.479   2.213   5.585 -1.4404  0.6528  0.6350
11526SOL     OW35155   3.879   0.057   5.745  0.6275  0.0645  0.3267
11526SOL    HW135156   3.939   0.039   5.673 -1.1473  1.2107 -1.5392
11526SOL    HW235157   3.868   0.152   5.744 -0.9474 -0.0842  0.8308
11527SOL     OW35158   1.199   1.996   2.427  0.2176  0.7209  0.1350
11527SOL    HW135159   1.282   2.012   2.384 -1.1698  1.2132 -2.5529
11527SOL    HW235160   1.187   2.071   2.485  0.4131  2.0986 -1.5330
11528SOL     OW35161   0.329   3.921   9.611 -0.4743 -0.0567 -0.5299
11528SOL    HW135162   0.288   3.844   9.651 -0.5246 -0.6844 -1.7285
11528SOL    HW235163   0.422   3.904   9.616 -0.5065 -0.6778 -1.6472
11529SOL     OW35164   1.627   0.876   0.712 -0.2462  0.1158  0.4441
11529SOL    HW135165   1.666   0.953   0.752 -1.5128  1.6063 -1.0429
11529SOL    HW235166   1.587   0.908   0.631  0.1093 -2.3058 -0.7907
11530SOL     OW35167   5.431   1.965   9.797 -0.4920  0.3001 -0.2132
11530SOL    HW135168   5.352   1.937   9.752 -0.1267 -0.6064 -0.3135
11530SOL    HW235169   5.400   2.019   9.870 -1.1467  0.6585 -0.7499
11531SOL     OW35170   1.823   5.507   3.470  0.2397  0.0668 -0.3415
11531SOL    HW135171   1.737   5.475   3.444 -0.2604  0.7677  0.3913
11531SOL    HW235172   1.805   5.583   3.526  1.3018 -0.4513  0.7692
11532SOL     OW35173   2.147   9.442   0.082 -0.2903  0.6787  0.1236
11532SOL    HW135174   2.146   9.537   0.092  1.3877  1.1772 -3.0469
11532SOL    HW235175   2.209   9.426   0.011  1.2649 -3.0077  2.0465
11533SOL     OW35176   3.453   7.480   1.805 -0.2081 -0.1566  0.0820
11533SOL    HW135177   3.373   7.443   1.842  0.3780 -1.8969 -0.2593
11533SOL    HW235178   3.422   7.544   1.741 -1.2706  0.5362  1.2439
11534SOL     OW35179   2.927   7.055   1.425 -0.1508 -0.2525  0.3128
11534SOL    HW135180   2.943   6.963   1.405 -0.9239 -0.4881  0.7693
11534SOL    HW235181   2.849   7.055   1.481 -0.1738  0.6783  0.2955
11535SOL     OW35182   6.902   5.381   2.692  0.5054 -0.5593  0.3907
11535SOL    HW135183   6.855   5.316   2.744 -1.7247  2.3031  2.2135
11535SOL    HW235184   6.839   5.408   2.625  0.0241  2.0519  1.7596
11536SOL     OW35185   5.339   7.848   2.549 -0.5521  0.5585  0.3448
11536SOL    HW135186   5.258   7.879   2.588 -0.7375  2.7471 -1.5714
11536SOL    HW235187   5.311   7.796   2.473 -0.1924  1.1166 -0.1829
11537SOL     OW35188   2.894   2.323   0.068  0.4768 -0.1152 -0.1609
11537SOL    HW135189   2.957   2.367   0.125  0.6845 -1.0281  0.3296
11537SOL    HW235190   2.824   2.295   0.126  0.6443 -0.9734 -0.3655
11538SOL     OW35191   8.072   8.014   0.615 -0.0173  0.0633  0.0488
11538SOL    HW135192   8.156   8.041   0.579  0.7096 -0.4925  1.2683
11538SOL    HW235193   8.013   8.087   0.596  0.7988  0.5716 -0.5879
11539SOL     OW35194   2.503   7.501   6.175 -0.1168 -0.1914  0.1578
11539SOL    HW135195   2.470   7.550   6.100 -0.8288 -1.3230 -0.2967
11539SOL    HW235196   2.569   7.442   6.138  0.0692 -0.2401  0.5531
11540SOL     OW35197   7.828   1.770   1.955  0.3307  0.1689  0.1004
11540SOL    HW135198   7.802   1.859   1.933 -0.6594 -0.2490 -0.4511
11540SOL    HW235199   7.890   1.781   2.028 -0.1086  1.2736  0.3248
11541SOL     OW35200   9.015   0.741   5.559 -0.1421 -0.2874  0.8125
11541SOL    HW135201   9.005   0.818   5.503  1.8073 -0.5743 -0.0252
11541SOL    HW235202   9.088   0.762   5.617  0.0946 -1.2800  0.9065
11542SOL     OW35203   0.003   0.212   0.598 -0.2218 -0.4837 -0.3293
11542SOL    HW135204   0.081   0.209   0.654  2.1118 -4.4488 -3.2547
11542SOL    HW235205  -0.057   0.149   0.636 -1.3023  1.1577  0.8290
11543SOL     OW35206   5.669   1.739   2.672  0.1978 -0.2265  0.1016
11543SOL    HW135207   5.625   1.793   2.738  0.6301  0.6488 -0.3085
11543SOL    HW235208   5.610   1.665   2.659 -0.6862  0.4289  0.2799
11544SOL     OW35209   0.783   9.464   9.867 -0.4328  0.3607 -0.0602
11544SOL    HW135210   0.736   9.419   9.937 -0.0920  1.8891  1.2192
11544SOL    HW235211   0.714   9.507   9.816 -0.6992 -0.9315 -0.8232
11545SOL     OW35212   8.986   8.141   8.172  0.1912 -0.1038  0.8663
11545SOL    HW135213   9.063   8.160   8.226  1.0006 -0.3646 -0.1672
11545SOL    HW235214   9.020   8.089   8.099 -1.3390 -2.5063  1.7278
11546SOL     OW35215   7.364   5.910   2.899 -0.2107  0.0442  0.0270
11546SOL    HW135216   7.418   5.949   2.967 -1.4070  0.2824  0.8658
11546SOL    HW235217   7.389   5.818   2.898 -1.4463 -0.3618  2.0740
11547SOL     OW35218   4.780   4.484   8.088  0.6683 -0.2415 -0.0765
11547SOL    HW135219   4.788   4.506   8.181  1.1116 -0.1270 -0.1382
11547SOL    HW235220   4.714   4.546   8.054  0.4900 -0.2981  0.1633
11548SOL     OW35221   8.671   9.545   7.592  0.1056 -0.4829  0.2035
11548SOL    HW135222   8.579   9.573   7.594  0.5579  1.0525  0.4807
11548SOL    HW235223   8.712   9.593   7.663  1.3713 -0.2700 -0.6448
11549SOL     OW35224   1.524   6.306   6.969 -0.4850 -0.6669  0.1140
11549SOL    HW135225   1.543   6.296   6.876  0.5036  0.0530  0.2203
11549SOL    HW235226   1.451   6.247   6.985 -0.3413 -1.1762 -1.0121
11550SOL     OW35227   1.742   8.782   4.836 -0.1304 -0.0190  0.2700
11550SOL    HW135228   1.769   8.730   4.912  0.0499 -1.8839 -1.0067
11550SOL    HW235229   1.823   8.799   4.789 -0.0560  2.3097  1.1446
11551SOL     OW35230   9.797   4.459   2.116 -0.2613  0.2183  0.3142
11551SOL    HW135231   9.886   4.423   2.124 -0.0023  0.9291  0.7789
11551SOL    HW235232   9.802   4.517   2.040 -0.5614 -0.3843 -0.1730
11552SOL     OW35233   5.577   2.060   0.197 -0.0740 -0.1129 -0.3600
11552SOL    HW135234   5.500   2.047   0.143 -0.5083 -0.5729  0.3512
11552SOL    HW235235   5.557   2.015   0.279  0.7886  0.0973 -0.0181
11553SOL     OW35236   1.488   5.894   9.703 -0.2746  0.1038 -0.6690
11553SOL    HW135237   1.522   5.833   9.769  0.2356  0.4002 -0.6575
11553SOL    HW235238   1.566   5.930   9.661 -0.5918  0.1664 -1.2111
11554SOL     OW35239   0.465   2.780   2.707  0.0767  0.3033  0.8015
11554SOL    HW135240   0.468   2.855   2.766 -0.7932  2.2388 -1.4972
11554SOL    HW235241   0.555   2.770   2.676 -0.2424  2.1812 -0.9095
11555SOL     OW35242   3.131   6.934   1.008  0.4929  0.1382  0.0018
11555SOL    HW135243   3.145   6.958   0.917  0.1813  2.1626  0.4399
11555SOL    HW235244   3.211   6.959   1.053 -0.7273  2.8688  0.8863
11556SOL     OW35245   4.844   3.972   8.650 -0.1829  0.0319 -0.3658
11556SOL    HW135246   4.928   3.974   8.696 -0.4856 -1.8429  0.3601
11556SOL    HW235247   4.868   3.978   8.557  0.4999  2.7758 -0.0946
11557SOL     OW35248   7.138   6.471   5.353  0.0670 -0.5014  0.4103
11557SOL    HW135249   7.112   6.542   5.412  0.4201 -1.2452  1.4986
11557SOL    HW235250   7.211   6.429   5.398 -0.0045 -1.4269 -0.3183
11558SOL     OW35251   0.099   3.776   7.401 -0.3106  0.5078 -0.0013
11558SOL    HW135252   0.131   3.859   7.436 -0.7701  0.3860  0.7324
11558SOL    HW235253   0.004   3.782   7.410 -0.4717  0.5877 -1.5146
11559SOL     OW35254   3.513   3.482   6.425  0.5009  0.4508 -0.0191
11559SOL    HW135255   3.525   3.400   6.379 -0.3613 -0.3561  1.1276
11559SOL    HW235256   3.420   3.502   6.415  0.5598  0.9107  0.3040
11560SOL     OW35257   1.779   8.141   4.970 -0.1955  0.5240 -0.4590
11560SOL    HW135258   1.798   8.107   4.882  2.4956 -0.8264  0.5297
11560SOL    HW235259   1.848   8.204   4.987 -1.0201  1.2026  0.5097
11561SOL     OW35260   2.029   8.630   3.740 -0.6601  0.3398  0.2756
11561SOL    HW135261   2.065   8.577   3.669 -0.7343 -0.2948  0.7107
11561SOL    HW235262   2.004   8.567   3.808 -3.0969  0.7006 -0.2010
11562SOL     OW35263   8.816   0.245   1.408  0.2326 -0.0200 -0.8939
11562SOL    HW135264   8.742   0.272   1.353 -0.4157 -0.2308 -0.1486
11562SOL    HW235265   8.826   0.152   1.390 -0.5377 -0.2813 -0.0356
11563SOL     OW35266   5.543   7.841   0.852  0.7703 -0.7828  0.3411
11563SOL    HW135267   5.448   7.831   0.854  0.5372  1.1714  0.7450
11563SOL    HW235268   5.562   7.879   0.766  0.9613  0.6316  0.9917
11564SOL     OW35269   3.324   1.209   0.222 -0.7870 -0.7587  0.2545
11564SOL    HW135270   3.264   1.245   0.156  0.1328  0.8749  0.2544
11564SOL    HW235271   3.402   1.185   0.172  0.0729  0.8578  0.7265
11565SOL     OW35272   6.517   1.341   5.581 -0.1347 -0.3404 -0.3266
11565SOL    HW135273   6.578   1.409   5.550 -0.8426  0.6570  0.3962
11565SOL    HW235274   6.562   1.301   5.655  1.0320 -1.8909 -1.7962
11566SOL     OW35275   0.356   5.185   1.765  0.3267 -0.1675 -0.7409
11566SOL    HW135276   0.353   5.161   1.858  1.9125 -0.5546 -0.7552
11566SOL    HW235277   0.279   5.239   1.751  0.3187  0.2940  0.9163
11567SOL     OW35278   0.518   8.579   2.447 -0.4988  0.2554 -0.1562
11567SOL    HW135279   0.521   8.483   2.447  1.2318  0.2547 -1.2999
11567SOL    HW235280   0.608   8.605   2.469 -0.4612  1.5877 -1.7594
11568SOL     OW35281   2.526   6.826   2.350  0.0326 -0.0654  0.1989
11568SOL    HW135282   2.460   6.806   2.282  0.3814  0.6581 -0.3599
11568SOL    HW235283   2.513   6.757   2.416 -1.6656  0.3821  0.3813
11569SOL     OW35284   6.225   6.080   9.507  0.5387 -0.1403 -0.2052
11569SOL    HW135285   6.225   6.167   9.468 -0.4942 -0.3118 -0.6166
11569SOL    HW235286   6.252   6.021   9.436 -0.8827 -0.3966 -0.5592
11570SOL     OW35287   2.156   8.949   9.171  0.0470 -0.2180 -0.1582
11570SOL    HW135288   2.184   8.878   9.229 -1.6736  0.8602  2.1974
11570SOL    HW235289   2.075   8.916   9.131  0.5591 -0.4912 -0.9715
11571SOL     OW35290   8.154   1.239   3.453 -0.1244  0.3887 -0.1624
11571SOL    HW135291   8.129   1.146   3.454  1.8968 -0.2007  0.8682
11571SOL    HW235292   8.140   1.266   3.363  0.4170 -1.2730 -0.7857
11572SOL     OW35293   8.634   6.726   8.857 -0.3319  0.0628 -0.1381
11572SOL    HW135294   8.698   6.719   8.786 -1.0797  1.7243 -1.0348
11572SOL    HW235295   8.598   6.814   8.848 -1.8020 -0.3613  1.1637
11573SOL     OW35296   7.095   6.261   0.194  0.1805  0.5585 -0.3588
11573SOL    HW135297   7.164   6.297   0.139  0.5446  0.3792 -0.0229
11573SOL    HW235298   7.025   6.239   0.133  0.6186  0.2662 -0.7677
11574SOL     OW35299   7.867   6.504   0.274  0.4932  0.3817  0.3992
11574SOL    HW135300   7.901   6.570   0.213 -1.3942 -0.1416 -1.3117
11574SOL    HW235301   7.772   6.516   0.272  0.3604  1.0188  4.0964
11575SOL     OW35302   3.523   4.693   1.620 -0.2170 -0.0738 -0.0162
11575SOL    HW135303   3.604   4.691   1.569  0.1712 -0.8797  0.6127
11575SOL    HW235304   3.524   4.612   1.671 -1.1556  0.1662  0.4134
11576SOL     OW35305   6.298   1.105   1.063 -0.0754 -0.1579 -0.0470
11576SOL    HW135306   6.210   1.092   1.100 -0.0092 -0.1278  0.1221
11576SOL    HW235307   6.335   1.176   1.115 -0.0488  0.0095 -0.2917
11577SOL     OW35308   9.218   7.458   9.684  0.2686  0.5069 -0.2941
11577SOL    HW135309   9.164   7.536   9.695  0.2339  0.2648  1.6247
11577SOL    HW235310   9.157   7.389   9.659 -0.3517  0.2616  1.7452
11578SOL     OW35311   3.306   2.884   4.930 -0.1868 -0.0213  0.0823
11578SOL    HW135312   3.273   2.925   5.010 -1.2380  0.1080 -0.3966
11578SOL    HW235313   3.299   2.952   4.863  1.8291  0.2595  0.1183
11579SOL     OW35314   1.508   8.969   6.252  0.1010 -0.2845 -0.0013
11579SOL    HW135315   1.445   9.030   6.292  0.8170 -0.0019  0.7261
11579SOL    HW235316   1.589   8.985   6.300  0.6804 -0.7691 -0.8151
11580SOL     OW35317   7.643   8.175   2.130  0.5610 -0.2343  0.3385
11580SOL    HW135318   7.573   8.111   2.121  0.6473 -0.0912 -2.2148
11580SOL    HW235319   7.699   8.141   2.200 -0.1615 -2.1981  0.0216
11581SOL     OW35320   4.529   4.513   9.524 -0.9751 -0.4605 -0.2033
11581SOL    HW135321   4.492   4.513   9.613 -0.3273 -0.5805  0.0708
11581SOL    HW235322   4.577   4.430   9.519 -0.4745 -0.1540 -0.4386
11582SOL     OW35323   5.047   9.668   7.447  0.4197  0.0108  0.0343
11582SOL    HW135324   4.986   9.647   7.377  1.1973  0.7655 -0.8937
11582SOL    HW235325   5.003   9.737   7.497 -0.2532 -0.7206  0.4739
11583SOL     OW35326   8.898   5.407   7.554  0.0847  0.2004 -0.3926
11583SOL    HW135327   8.858   5.475   7.500  0.4441  1.1844  0.5429
11583SOL    HW235328   8.989   5.404   7.526 -0.3795 -1.4069 -1.8925
11584SOL     OW35329   0.086   9.277   6.017  0.0067  0.1296 -0.4895
11584SOL    HW135330   0.017   9.213   6.034  1.2839 -1.3804 -0.7273
11584SOL    HW235331   0.157   9.226   5.978  1.5616  1.4698  0.4291
11585SOL     OW35332   9.354   7.543   9.192  0.1177 -0.1990  0.4028
11585SOL    HW135333   9.376   7.545   9.285  1.6220  0.4147  0.0614
11585SOL    HW235334   9.296   7.618   9.179  1.3711  0.8300  0.5377
11586SOL     OW35335   0.793   2.502   0.308 -0.2173 -0.1288  0.2469
11586SOL    HW135336   0.815   2.555   0.232 -1.4037  0.5733  0.3692
11586SOL    HW235337   0.698   2.505   0.314 -0.4441 -3.0056 -0.2389
11587SOL     OW35338   8.273   1.635   6.143  0.2388  0.0040  0.2842
11587SOL    HW135339   8.326   1.665   6.070 -0.0439  1.2648  0.5727
11587SOL    HW235340   8.208   1.576   6.104 -0.2577  1.0874 -0.5761
11588SOL     OW35341   2.548   4.916   3.668 -0.0277  0.0958  0.2441
11588SOL    HW135342   2.578   4.943   3.755 -0.1055  1.6203 -0.1714
11588SOL    HW235343   2.504   4.832   3.683  1.1986 -0.3805  1.4351
11589SOL     OW35344   8.826   2.529   0.610  0.3994 -0.1088 -0.6458
11589SOL    HW135345   8.782   2.603   0.653 -3.0710 -1.8595 -0.8360
11589SOL    HW235346   8.889   2.570   0.550  0.4830  2.5596  1.0758
11590SOL     OW35347   1.034   4.529   3.812 -0.0773 -1.0947 -0.4910
11590SOL    HW135348   1.003   4.585   3.741 -0.8728  1.1451  1.5040
11590SOL    HW235349   0.961   4.525   3.873  1.2284 -1.2996  1.1416
11591SOL     OW35350   4.683   9.172   8.089 -0.4948 -0.4951 -0.2684
11591SOL    HW135351   4.695   9.253   8.139 -1.4058  0.4745 -1.5556
11591SOL    HW235352   4.715   9.103   8.147 -2.8307  0.4077  2.3080
11592SOL     OW35353   9.308   9.502   2.595  0.2788 -0.2965  0.0392
11592SOL    HW135354   9.397   9.487   2.563  0.5666 -0.9659  1.0978
11592SOL    HW235355   9.317   9.570   2.662 -0.0117 -0.2854  0.0678
11593SOL     OW35356   0.926   0.966   3.066  0.1743  0.5182  0.5607
11593SOL    HW135357   1.016   0.982   3.038 -0.0013 -0.2079 -0.4982
11593SOL    HW235358   0.902   0.885   3.022 -0.6928  0.1925  1.5784
11594SOL     OW35359   1.337   9.888   9.693 -0.3490  0.3073  0.0115
11594SOL    HW135360   1.401   9.924   9.754 -0.1269 -1.7967  1.0957
11594SOL    HW235361   1.383   9.814   9.651 -0.6195  1.4394 -2.4704
11595SOL     OW35362   5.246   6.280   9.906 -0.5967  0.2470  0.1212
11595SOL    HW135363   5.188   6.215   9.867 -1.0584  0.2963  0.7161
11595SOL    HW235364   5.299   6.230   9.969  0.1614  0.1638 -0.5545
11596SOL     OW35365   7.809   3.647   6.356 -0.2039  0.0353  0.2139
11596SOL    HW135366   7.843   3.558   6.362 -1.6473 -0.7677 -2.0547
11596SOL    HW235367   7.717   3.639   6.381 -0.2293  0.9755  0.4573
11597SOL     OW35368   6.470   0.255   1.430  0.2128  0.5874 -0.0937
11597SOL    HW135369   6.412   0.178   1.430 -0.8648  1.2813  2.5197
11597SOL    HW235370   6.421   0.321   1.381 -0.1916  0.4871  0.1678
11598SOL     OW35371   4.512   8.632   4.405  0.4873 -0.4255  0.1018
11598SOL    HW135372   4.515   8.637   4.500  0.2145 -0.2842  0.1054
11598SOL    HW235373   4.535   8.541   4.385 -2.6957 -1.4474  0.4923
11599SOL     OW35374   7.303   6.069   6.059  0.2724 -0.2060  0.0280
11599SOL    HW135375   7.237   6.019   6.107  0.6141 -1.7795 -1.0819
11599SOL    HW235376   7.277   6.161   6.071 -1.2309 -0.7084  0.8666
11600SOL     OW35377   4.724   9.463   8.204 -0.8372 -0.0189  0.4083
11600SOL    HW135378   4.659   9.516   8.158  1.1814  3.0173  0.6880
11600SOL    HW235379   4.712   9.485   8.296 -1.9763 -2.6348  0.9645
11601SOL     OW35380   0.111   3.260   1.946  0.2583  0.8341 -0.1322
11601SOL    HW135381   0.034   3.298   1.989 -0.7804 -0.2957 -0.9160
11601SOL    HW235382   0.112   3.300   1.859  1.8899  2.5112  0.5895
11602SOL     OW35383   2.863   9.167   0.077  0.3027  0.1003  0.4333
11602SOL    HW135384   2.956   9.154   0.091  0.2553  0.0073  0.6645
11602SOL    HW235385   2.828   9.188   0.164 -0.0370 -0.7582  0.5093
11603SOL     OW35386   8.510   4.066   8.028  0.2884  0.2124 -0.2669
11603SOL    HW135387   8.425   4.085   8.069  0.7649 -0.7989  1.3062
11603SOL    HW235388   8.501   3.977   7.994  0.9274 -0.1915  0.5808
11604SOL     OW35389   3.281   3.929   8.212  0.4715 -0.1132 -0.3556
11604SOL    HW135390   3.228   3.850   8.209  1.0786 -0.4952 -2.2657
11604SOL    HW235391   3.222   3.999   8.184  0.0315  0.0903  1.0003
11605SOL     OW35392   1.949   9.268   7.035  0.1590 -0.4230  0.2505
11605SOL    HW135393   1.934   9.307   6.949  0.1753  1.7129  1.1561
11605SOL    HW235394   1.892   9.317   7.094  0.2463 -1.7526  1.4883
11606SOL     OW35395   5.431   6.542   0.353  0.0471  0.6852 -0.1988
11606SOL    HW135396   5.458   6.609   0.290  2.8229  1.2301  1.4221
11606SOL    HW235397   5.500   6.476   0.349 -2.0883 -1.6650 -0.9727
11607SOL     OW35398   7.015   0.453   7.928  0.1842 -0.4566 -0.3553
11607SOL    HW135399   6.987   0.436   7.839 -3.1632 -1.0778  0.6711
11607SOL    HW235400   7.060   0.373   7.955 -0.6766 -1.1231 -0.8489
11608SOL     OW35401   9.459   5.177   3.425 -0.3159 -0.3800 -0.5196
11608SOL    HW135402   9.426   5.138   3.344  0.7808  0.1667 -1.2532
11608SOL    HW235403   9.542   5.217   3.400 -0.2321  0.2870  0.7624
11609SOL     OW35404   8.977   2.263   0.256 -0.3695  0.0606  0.1725
11609SOL    HW135405   9.049   2.237   0.199 -0.3890 -1.8018  0.9234
11609SOL    HW235406   8.997   2.353   0.281  1.7790 -0.4373  0.4263
11610SOL     OW35407   9.840   0.546   1.915  0.4587  0.6304  0.6880
11610SOL    HW135408   9.782   0.622   1.912  0.9437  1.0054  0.7432
11610SOL    HW235409   9.903   0.567   1.985  0.0720 -0.2012  1.3049
11611SOL     OW35410   4.758   7.371   4.063 -0.0238 -0.1570  0.5912
11611SOL    HW135411   4.667   7.400   4.072  0.2378  1.2874 -0.8416
11611SOL    HW235412   4.800   7.400   4.144 -0.2225  1.9272  0.0245
11612SOL     OW35413   9.845   4.710   1.574 -0.0142  0.2242  0.5004
11612SOL    HW135414   9.796   4.683   1.651 -0.2876 -0.5391  0.0675
11612SOL    HW235415   9.795   4.676   1.500  1.2015 -0.6507  0.0555
11613SOL     OW35416   0.728   8.708   5.570 -0.1517  0.0587 -0.1934
11613SOL    HW135417   0.777   8.787   5.593  0.3338 -0.8142  2.0660
11613SOL    HW235418   0.684   8.683   5.651 -1.3946 -1.2563 -1.2170
11614SOL     OW35419   8.136   9.700   2.576  0.2777 -0.0373 -0.5131
11614SOL    HW135420   8.159   9.787   2.609  0.4622  0.2255 -1.2961
11614SOL    HW235421   8.071   9.717   2.508  1.1755 -0.4024 -1.4944
11615SOL     OW35422   3.159   7.838   7.647 -0.2914 -0.1942  0.2461
11615SOL    HW135423   3.105   7.885   7.711 -0.7794  1.1941 -1.1319
11615SOL    HW235424   3.097   7.791   7.593 -0.0314  0.2543 -0.4496
11616SOL     OW35425   5.691   5.074   3.398  0.4258 -0.4140  0.6823
11616SOL    HW135426   5.611   5.120   3.424  0.1019 -0.9087  0.5729
11616SOL    HW235427   5.756   5.101   3.463 -0.1718 -1.0132  1.5509
11617SOL     OW35428   4.582   6.121   8.145  0.5246  0.2550 -0.0576
11617SOL    HW135429   4.556   6.210   8.167 -2.7124  0.5339 -3.7603
11617SOL    HW235430   4.647   6.132   8.075 -1.5492 -0.0165 -2.1826
11618SOL     OW35431   6.506   3.549   5.401 -0.5288  0.4213 -0.2103
11618SOL    HW135432   6.507   3.470   5.347 -1.9831 -0.5134  1.0224
11618SOL    HW235433   6.553   3.614   5.350  0.1431 -1.0583 -1.5597
11619SOL     OW35434   4.841   9.681   2.829  0.2307  0.9370 -0.1143
11619SOL    HW135435   4.925   9.652   2.791 -0.2781  0.0292 -0.5892
11619SOL    HW235436   4.861   9.765   2.869  1.6809  0.1467  0.9215
11620SOL     OW35437   8.096   1.674   5.364 -0.4481  0.4522 -0.0777
11620SOL    HW135438   8.096   1.614   5.439 -0.1752 -0.4708 -0.8039
11620SOL    HW235439   8.165   1.737   5.384  0.1791 -0.2721  0.0671
11621SOL     OW35440   9.805   4.574   3.664  0.4329  0.2185  0.3837
11621SOL    HW135441   9.823   4.662   3.631 -0.1432  0.4443  0.6781
11621SOL    HW235442   9.730   4.584   3.722 -2.0258 -1.0219 -2.3502
11622SOL     OW35443   4.402   8.241   1.741 -0.8426 -0.2634 -0.4299
11622SOL    HW135444   4.371   8.153   1.720 -1.4865 -0.0284 -0.4741
11622SOL    HW235445   4.357   8.298   1.679 -0.3280  0.0884 -0.4912
11623SOL     OW35446   0.040   4.496   5.555  0.0714  0.2665  0.2655
11623SOL    HW135447   0.001   4.456   5.477 -0.3151  0.5509  0.3112
11623SOL    HW235448   0.093   4.426   5.594  0.7556  0.2955 -0.5856
11624SOL     OW35449   5.923   2.912   2.928  0.4959  0.1664 -0.2317
11624SOL    HW135450   5.870   2.938   2.853  0.3302 -1.4880 -0.7303
11624SOL    HW235451   5.918   2.987   2.988 -2.4850  0.0796 -0.2104
11625SOL     OW35452   0.209   5.429   8.812  0.1156  0.1284  0.4324
11625SOL    HW135453   0.148   5.433   8.738  0.6318 -0.8002 -0.0561
11625SOL    HW235454   0.167   5.481   8.881 -2.1626 -1.9897  0.7948
11626SOL     OW35455   1.875   1.159   0.052  0.5410  0.4203  0.0839
11626SOL    HW135456   1.824   1.135  -0.026  1.9239 -0.6201 -0.5291
11626SOL    HW235457   1.856   1.252   0.064 -2.9710 -0.2462  1.0194
11627SOL     OW35458   2.133   2.345   0.375 -0.3380 -0.1164  0.5594
11627SOL    HW135459   2.160   2.365   0.465  1.4055  1.0302 -0.1526
11627SOL    HW235460   2.101   2.429   0.341  0.9722 -0.0165 -0.5012
11628SOL     OW35461   1.037   7.048   3.337 -0.8826 -0.3054 -0.4034
11628SOL    HW135462   1.057   6.966   3.381 -1.7999 -0.5981 -0.5149
11628SOL    HW235463   1.063   7.034   3.246  1.8469  0.5988  0.1458
11629SOL     OW35464   6.155   2.592   3.530  0.1323  0.2252 -0.2079
11629SOL    HW135465   6.069   2.588   3.572  0.7247  1.7783  1.2496
11629SOL    HW235466   6.147   2.661   3.465  0.9487  2.2526  1.7322
11630SOL     OW35467   9.946   8.057   3.125  0.0689 -0.2790  0.0712
11630SOL    HW135468   9.963   8.124   3.059 -1.8836  0.1512 -0.0612
11630SOL    HW235469   9.860   8.080   3.161  0.6601 -1.0331  2.1269
11631SOL     OW35470   6.240   9.336   1.909  0.8836  0.1564 -0.5484
11631SOL    HW135471   6.185   9.271   1.866  0.4216  1.1435 -1.5091
11631SOL    HW235472   6.188   9.417   1.906  2.6997  1.3572 -2.2998
11632SOL     OW35473   6.431   1.909   0.814  0.3138 -0.5094  0.3955
11632SOL    HW135474   6.389   1.844   0.870 -1.9416 -0.4436 -1.0723
11632SOL    HW235475   6.358   1.962   0.780  1.8658  1.3507 -0.2378
11633SOL     OW35476   4.155   3.637   3.589  0.5398 -0.1561  0.5374
11633SOL    HW135477   4.128   3.566   3.647  0.0885 -2.1798 -1.9770
11633SOL    HW235478   4.126   3.716   3.633 -1.5074 -1.7010  2.1853
11634SOL     OW35479   2.236   9.338   1.415 -0.5719 -0.2311 -0.2037
11634SOL    HW135480   2.181   9.361   1.340 -0.4727  0.5402 -0.0429
11634SOL    HW235481   2.178   9.348   1.490 -0.8369 -1.5366 -0.1942
11635SOL     OW35482   1.360   7.875   6.154 -0.4646 -0.5096  0.1637
11635SOL    HW135483   1.309   7.955   6.144 -0.8743 -0.4216  2.3639
11635SOL    HW235484   1.442   7.892   6.108 -0.6733  1.0628  0.3308
11636SOL     OW35485   6.199   3.692   1.057 -0.0962  0.0904  0.8669
11636SOL    HW135486   6.229   3.776   1.023  0.1295 -0.1550  0.4510
11636SOL    HW235487   6.244   3.627   1.003 -1.5777 -0.2939  0.0507
11637SOL     OW35488   1.515   8.278   7.762 -0.1853 -0.2816 -0.6975
11637SOL    HW135489   1.421   8.285   7.776 -0.0561 -1.7444  1.4016
11637SOL    HW235490   1.539   8.357   7.713 -2.4100  0.3215 -0.9031
11638SOL     OW35491   5.301   0.814   8.965  0.6778 -0.0380 -0.4254
11638SOL    HW135492   5.236   0.745   8.976  0.3007  0.3467 -0.2134
11638SOL    HW235493   5.266   0.870   8.896  0.6221  0.3507 -0.0892
11639SOL     OW35494   6.465   0.157   7.770 -0.5003  0.3889 -0.6628
11639SOL    HW135495   6.398   0.133   7.706 -1.9959  0.8085  0.6786
11639SOL    HW235496   6.416   0.185   7.847  1.2304  1.1011  0.2446
11640SOL     OW35497   7.594   4.192   8.983 -0.4276 -0.7226 -0.5892
11640SOL    HW135498   7.506   4.200   9.020 -0.1214 -3.4098  0.9276
11640SOL    HW235499   7.651   4.226   9.051 -0.0792 -2.6189  0.1126
11641SOL     OW35500   7.502   4.377   0.123 -0.0968  0.4566 -0.1380
11641SOL    HW135501   7.519   4.465   0.157 -0.3440  0.0645  1.0636
11641SOL    HW235502   7.430   4.344   0.178 -0.0737 -0.4540 -0.6343
11642SOL     OW35503   2.098   9.244   7.592 -0.3847 -0.5336 -0.1594
11642SOL    HW135504   2.050   9.270   7.671  1.3232 -0.7143  1.0042
11642SOL    HW235505   2.156   9.174   7.622  0.4979 -0.4164 -1.5221
11643SOL     OW35506   4.023   2.169   9.148  0.4974 -0.0477  0.2544
11643SOL    HW135507   4.023   2.253   9.195 -0.3300 -0.2009  0.5507
11643SOL    HW235508   4.112   2.160   9.114 -0.5441  3.7849 -4.8048
11644SOL     OW35509   5.073   7.993   5.116  0.2110 -0.4610 -0.1532
11644SOL    HW135510   5.085   7.904   5.151 -0.2842 -0.4026  0.1806
11644SOL    HW235511   5.025   8.039   5.185  0.6396  0.1270 -0.2431
11645SOL     OW35512   6.275   8.220   3.641 -0.7096  0.5836 -0.5803
11645SOL    HW135513   6.215   8.146   3.631 -0.1769  0.2096 -1.0529
11645SOL    HW235514   6.307   8.214   3.730  0.3633 -0.5539 -1.0231
11646SOL     OW35515   0.968   3.604   2.427  0.2137 -0.7336 -0.1980
11646SOL    HW135516   0.899   3.539   2.441 -0.4264 -0.6201 -2.4594
11646SOL    HW235517   0.926   3.688   2.444  0.3611 -0.7674  0.3487
11647SOL     OW35518   7.688   6.886   9.369  0.0777 -0.8344  0.0306
11647SOL    HW135519   7.641   6.967   9.387  1.0513 -0.6169  1.8307
11647SOL    HW235520   7.764   6.913   9.317 -0.3364 -0.8073 -0.5681
11648SOL     OW35521   1.057   7.723   2.707  0.0770  0.1490  0.1329
11648SOL    HW135522   1.058   7.791   2.774 -1.5764  0.6309 -0.2840
11648SOL    HW235523   0.977   7.673   2.724  0.9264 -1.3091  0.0390
11649SOL     OW35524   5.717   0.254   1.937  0.4589 -0.2890  0.4135
11649SOL    HW135525   5.702   0.242   1.843 -0.1654 -0.3536  0.5168
11649SOL    HW235526   5.684   0.343   1.954  2.4816  0.5693  0.1822
11650SOL     OW35527   7.334   5.433   0.887  0.6357 -0.0102  0.6165
11650SOL    HW135528   7.281   5.464   0.813  1.7436 -1.5727 -0.8937
11650SOL    HW235529   7.413   5.487   0.884 -0.3079  1.5506  2.1809
11651SOL     OW35530   7.628   0.971   9.822  0.1891  0.8316 -0.3355
11651SOL    HW135531   7.708   0.928   9.850  0.5043  1.4075 -0.3336
11651SOL    HW235532   7.619   1.047   9.880 -0.1619  0.9741 -0.5689
11652SOL     OW35533   6.168   4.899   0.908  0.3391 -0.3436  0.1281
11652SOL    HW135534   6.190   4.967   0.972 -0.0415 -0.1589  0.0650
11652SOL    HW235535   6.239   4.901   0.845 -0.1805  0.7030 -0.4419
11653SOL     OW35536   0.173   6.070   7.991 -0.5032 -0.4327  0.2121
11653SOL    HW135537   0.202   6.144   7.939  0.1855  0.8287  2.2704
11653SOL    HW235538   0.238   6.002   7.975 -1.1688 -0.6791 -1.7388
11654SOL     OW35539   3.353   1.113   6.727 -0.2737 -0.0928 -0.1633
11654SOL    HW135540   3.388   1.048   6.788  0.7447  0.3603 -0.2480
11654SOL    HW235541   3.274   1.072   6.691  0.1329 -1.1174  0.0868
11655SOL     OW35542   6.374   1.733   7.603 -0.2583 -0.1169  0.4803
11655SOL    HW135543   6.307   1.713   7.537  0.5503  0.4232 -0.5340
11655SOL    HW235544   6.330   1.790   7.666 -1.0670 -0.7017  0.4567
11656SOL     OW35545   9.734   7.202   5.733  0.5672  0.7863 -0.0480
11656SOL    HW135546   9.724   7.297   5.739  0.4257  0.7069  1.2738
11656SOL    HW235547   9.798   7.188   5.663 -0.0703  1.8077 -0.8620
11657SOL     OW35548   5.842   7.773   8.782  0.3123 -0.2633  0.4449
11657SOL    HW135549   5.869   7.685   8.753  0.9415  0.2863 -0.7004
11657SOL    HW235550   5.907   7.832   8.743 -0.4396  0.7669  0.7139
11658SOL     OW35551   5.578   3.538   6.648 -0.4226 -0.0246  0.1300
11658SOL    HW135552   5.557   3.447   6.672 -1.3605 -0.1196 -0.9493
11658SOL    HW235553   5.538   3.590   6.718 -0.8992 -0.3968  0.1451
11659SOL     OW35554   6.498   2.795   7.957 -0.0877  0.5230 -0.0062
11659SOL    HW135555   6.459   2.715   7.919 -1.3329  1.8473 -1.7070
11659SOL    HW235556   6.479   2.863   7.892  2.5009  1.8862  0.5314
11660SOL     OW35557   6.558   8.516   3.327 -0.2008 -0.3928 -0.0758
11660SOL    HW135558   6.570   8.422   3.312 -0.6858 -0.3876 -0.5224
11660SOL    HW235559   6.614   8.535   3.402 -1.6783 -1.4773  1.3843
11661SOL     OW35560   7.654   7.568   2.278 -0.1817 -0.0186  0.1799
11661SOL    HW135561   7.626   7.476   2.275 -0.0116 -0.1416  1.6760
11661SOL    HW235562   7.601   7.608   2.347  0.8373  0.6059  0.6316
11662SOL     OW35563   0.324   2.804   4.542  0.0494  0.5464  0.3338
11662SOL    HW135564   0.392   2.810   4.609  1.5270  0.9003 -1.1403
11662SOL    HW235565   0.243   2.818   4.590  1.0925  1.3613  1.9618
11663SOL     OW35566   6.190   4.940   4.344  0.0116  0.3397  0.4081
11663SOL    HW135567   6.201   4.900   4.430  0.2452 -0.7580 -0.1153
11663SOL    HW235568   6.118   5.002   4.355 -0.3893 -0.2657  1.2401
11664SOL     OW35569   6.987   1.566   5.678 -0.1164  0.0919 -0.6202
11664SOL    HW135570   7.033   1.609   5.750 -0.8666  0.3609 -0.2944
11664SOL    HW235571   6.989   1.629   5.607 -1.5669  0.8758 -0.0172
11665SOL     OW35572   2.514   5.522   4.391 -1.0224 -0.2259  0.0581
11665SOL    HW135573   2.547   5.499   4.478 -1.8844 -1.0552  0.1847
11665SOL    HW235574   2.436   5.575   4.408 -0.5720  0.5379 -0.2248
11666SOL     OW35575   0.863   7.250   6.248 -0.1245  0.5552 -0.4205
11666SOL    HW135576   0.832   7.325   6.197 -0.0397 -0.2330 -1.6470
11666SOL    HW235577   0.784   7.199   6.266 -0.8328  2.5565  3.3589
11667SOL     OW35578   8.542   9.981   2.154 -0.2509 -0.1425 -0.7464
11667SOL    HW135579   8.591   9.904   2.126 -0.1972  0.1705 -1.5245
11667SOL    HW235580   8.528  10.031   2.074  0.3636  1.0326 -0.1439
11668SOL     OW35581   9.162   0.705   9.578  0.0289 -0.0700  0.5225
11668SOL    HW135582   9.233   0.686   9.639 -0.2613 -1.8069  0.3740
11668SOL    HW235583   9.158   0.628   9.521 -0.8687  0.7369 -0.5552
11669SOL     OW35584   5.768   4.408   0.538  0.0279  0.0329  0.2853
11669SOL    HW135585   5.843   4.467   0.540  0.7422 -0.7842  3.3738
11669SOL    HW235586   5.786   4.345   0.608 -4.0606  0.5319  2.0733
11670SOL     OW35587   9.633   1.345   2.399 -0.1790 -0.3055 -0.0196
11670SOL    HW135588   9.698   1.382   2.340 -2.2264  0.6441 -1.7845
11670SOL    HW235589   9.671   1.358   2.486  1.4640  1.2664 -0.8964
11671SOL     OW35590   9.494   6.677   8.649 -0.2579  0.1681  0.1380
11671SOL    HW135591   9.555   6.733   8.599 -1.5117  1.0276 -0.4872
11671SOL    HW235592   9.533   6.673   8.736  0.6464  0.7880 -0.2099
11672SOL     OW35593   7.188   5.992   0.202 -0.2308  0.1465 -0.1324
11672SOL    HW135594   7.116   6.051   0.182  1.6665  2.1423 -1.5288
11672SOL    HW235595   7.207   6.007   0.295 -3.2525 -2.4630  1.0885
11673SOL     OW35596   1.823   4.176   2.069  0.3740 -0.0351 -0.2914
11673SOL    HW135597   1.826   4.217   2.155 -1.0271 -0.9953  0.2447
11673SOL    HW235598   1.909   4.134   2.060  0.4641 -0.0951  0.7231
11674SOL     OW35599   2.350   9.084   1.418  0.2509 -0.0184  0.2450
11674SOL    HW135600   2.324   9.173   1.392  1.1837  0.0699 -0.4433
11674SOL    HW235601   2.403   9.097   1.496  0.5897  0.0544  0.0039
11675SOL     OW35602   2.980   7.590   4.332  0.2852  0.7106 -0.4304
11675SOL    HW135603   3.067   7.589   4.293 -0.0867  1.2712 -1.2947
11675SOL    HW235604   2.928   7.645   4.274 -0.9317 -0.5091 -0.5439
11676SOL     OW35605   8.613   2.498   8.782 -0.1507 -0.0921 -0.1783
11676SOL    HW135606   8.550   2.557   8.823 -0.1730 -0.6683  0.6435
11676SOL    HW235607   8.679   2.557   8.745 -0.0802  0.4608  0.7802
11677SOL     OW35608   3.670   5.619   4.369  0.2977  0.5606 -0.2425
11677SOL    HW135609   3.746   5.629   4.312  0.1411  0.5057 -0.4641
11677SOL    HW235610   3.615   5.555   4.324  0.0255  0.7565 -0.1872
11678SOL     OW35611   6.838   0.506   8.643 -0.3125 -0.2424  0.6183
11678SOL    HW135612   6.761   0.457   8.612 -0.3430  0.5107 -0.5343
11678SOL    HW235613   6.819   0.597   8.621 -0.3364  0.3652  2.8834
11679SOL     OW35614   3.071   7.577   6.492 -0.3717  0.1527  0.1534
11679SOL    HW135615   3.020   7.634   6.433 -0.9555  0.4290  0.9078
11679SOL    HW235616   3.159   7.613   6.489 -0.4281  0.2518 -0.4427
11680SOL     OW35617   0.658   2.381   6.382 -0.3211 -0.0142  0.3568
11680SOL    HW135618   0.622   2.305   6.337  1.5647  0.4938 -2.2279
11680SOL    HW235619   0.679   2.443   6.312 -0.1405  2.1986  2.2201
11681SOL     OW35620   5.146   4.978   9.683  0.2910 -0.2811  0.8329
11681SOL    HW135621   5.209   4.907   9.691 -0.3460 -0.9333  0.2524
11681SOL    HW235622   5.161   5.014   9.596  0.0713 -0.2458  0.8070
11682SOL     OW35623   1.121   7.514   0.047 -0.3266 -0.2565  0.2492
11682SOL    HW135624   1.189   7.475   0.101 -0.7634  0.3511  1.2741
11682SOL    HW235625   1.116   7.457  -0.030  0.8617 -0.6840  0.4658
11683SOL     OW35626   9.612   2.609   0.396  0.1733  0.0644  1.0350
11683SOL    HW135627   9.701   2.631   0.366  1.6236 -3.2870  2.3936
11683SOL    HW235628   9.613   2.626   0.490 -1.4644  2.0877  0.7692
11684SOL     OW35629   1.645   1.050   2.717  0.1051  0.0575  0.2318
11684SOL    HW135630   1.734   1.079   2.697 -0.3761  0.3117 -1.8015
11684SOL    HW235631   1.651   0.954   2.719  0.7683  0.1131  2.0714
11685SOL     OW35632   4.309   6.512   7.685  0.0253  0.0929  0.0609
11685SOL    HW135633   4.246   6.567   7.638 -1.0421 -0.8298  0.3566
11685SOL    HW235634   4.322   6.437   7.627 -0.0750 -0.2909  0.5341
11686SOL     OW35635   2.843   2.007   5.922 -0.5532  0.4930  0.3963
11686SOL    HW135636   2.861   2.101   5.915  0.9709  0.3821  2.0733
11686SOL    HW235637   2.760   2.002   5.970 -0.1875  1.0101  1.1086
11687SOL     OW35638   5.338   4.765   8.510  0.4823 -0.2420 -0.1735
11687SOL    HW135639   5.299   4.796   8.592  1.4830  0.2579  0.1283
11687SOL    HW235640   5.355   4.672   8.525  1.5370  0.0497  0.5575
11688SOL     OW35641   0.073   4.261   4.828  0.2054 -0.0180  0.5055
11688SOL    HW135642   0.061   4.282   4.736  2.2320  0.1775  0.2331
11688SOL    HW235643   0.112   4.340   4.866 -0.7172 -0.0501  1.5738
11689SOL     OW35644   5.180   5.374   2.673  0.2089  0.3314 -0.1360
11689SOL    HW135645   5.252   5.350   2.615 -0.7168 -0.7004 -0.8936
11689SOL    HW235646   5.168   5.297   2.729  0.0676  0.7218  0.3747
11690SOL     OW35647   5.218   0.258   4.802  0.0482 -0.4266  0.5567
11690SOL    HW135648   5.196   0.314   4.727 -0.0309 -1.3921 -0.1595
11690SOL    HW235649   5.135   0.223   4.832 -0.0099  0.5639  1.6129
11691SOL     OW35650   9.789   1.341   9.799  0.5532 -0.2886 -0.2244
11691SOL    HW135651   9.732   1.354   9.876 -1.1807 -1.9920 -1.1246
11691SOL    HW235652   9.808   1.430   9.768  0.0562  0.3883  1.3015
11692SOL     OW35653   1.596   7.783   5.947 -0.4027  0.2495 -0.3252
11692SOL    HW135654   1.578   7.804   5.855  1.0146 -2.5503 -1.3516
11692SOL    HW235655   1.677   7.830   5.966 -0.6429  0.7521 -0.5041
11693SOL     OW35656   9.828   0.407   6.137  0.5439  0.0612 -0.2365
11693SOL    HW135657   9.821   0.500   6.116 -0.5754 -0.1069 -0.6758
11693SOL    HW235658   9.799   0.401   6.228 -1.5021 -0.1153 -0.8618
11694SOL     OW35659   8.672   7.527   4.219 -0.2624 -0.4672 -0.4283
11694SOL    HW135660   8.744   7.590   4.224  0.4954 -1.3285  0.0787
11694SOL    HW235661   8.635   7.526   4.307 -1.3286  0.4268 -0.8424
11695SOL     OW35662   2.163   5.848   1.096 -0.2919 -0.3931 -0.1195
11695SOL    HW135663   2.131   5.939   1.097  0.3064 -0.1335  2.0676
11695SOL    HW235664   2.131   5.811   1.178  3.2213 -0.6850  1.3102
11696SOL     OW35665   0.841   9.305   7.358  0.1476 -0.5429 -0.7993
11696SOL    HW135666   0.871   9.344   7.440 -2.4675 -0.5347  0.2438
11696SOL    HW235667   0.911   9.246   7.333  2.3731  1.6579 -0.2007
11697SOL     OW35668   3.734   7.795   3.163 -0.1641 -0.1259 -0.0709
11697SOL    HW135669   3.819   7.755   3.143 -1.1934 -3.0680  0.8683
11697SOL    HW235670   3.720   7.777   3.256 -1.5129  0.9565 -0.0303
11698SOL     OW35671   8.607   3.250   4.299 -0.4697 -0.4004 -0.0085
11698SOL    HW135672   8.522   3.206   4.305  0.1001 -1.4149  1.6636
11698SOL    HW235673   8.594   3.333   4.344 -0.3117 -1.1027  1.4182
11699SOL     OW35674   9.442   5.794   4.786  0.2508 -0.4415 -0.0858
11699SOL    HW135675   9.494   5.762   4.860 -1.3942 -1.6281  0.6113
11699SOL    HW235676   9.424   5.886   4.808  1.2667 -0.2739  0.0984
11700SOL     OW35677   8.089   0.550   8.679 -0.2215 -0.7523 -0.0878
11700SOL    HW135678   8.055   0.590   8.599 -0.2236  0.7474  0.6411
11700SOL    HW235679   8.181   0.535   8.660 -0.2068 -0.3524 -0.3544
11701SOL     OW35680   2.925   9.775   8.287 -0.7311  0.1964  0.1045
11701SOL    HW135681   2.959   9.864   8.285 -1.7712  0.5992 -0.3188
11701SOL    HW235682   2.918   9.750   8.194  0.9828 -0.9122  0.2150
11702SOL     OW35683   2.064   9.047   0.865 -0.0992 -0.0033 -0.2675
11702SOL    HW135684   2.146   9.097   0.868 -0.0689 -0.1018  0.8616
11702SOL    HW235685   1.998   9.111   0.840  0.2341  0.2032 -0.6266
11703SOL     OW35686   3.251   4.982   6.839  0.2437  0.3880 -0.0194
11703SOL    HW135687   3.191   5.023   6.777  0.6157 -0.1337 -0.7334
11703SOL    HW235688   3.324   4.951   6.786  0.7961  0.3462  0.7426
11704SOL     OW35689   3.348   1.838   8.942 -0.2985 -0.1589  0.3248
11704SOL    HW135690   3.367   1.927   8.915 -0.1419  0.3141  1.8898
11704SOL    HW235691   3.252   1.831   8.938 -0.2260 -0.5033 -1.4573
11705SOL     OW35692   0.670   3.191   1.439 -0.7489  0.2970 -0.5629
11705SOL    HW135693   0.717   3.273   1.421 -0.6642  0.2680 -0.4717
11705SOL    HW235694   0.623   3.173   1.357 -1.6285  1.0060 -0.2376
11706SOL     OW35695   2.392   3.606   9.928  0.2303 -0.2804  0.4459
11706SOL    HW135696   2.458   3.674   9.919  0.9116 -1.1207 -1.9276
11706SOL    HW235697   2.316   3.650   9.966  1.3304  1.2908  0.9070
11707SOL     OW35698   7.693   0.706   4.365 -0.3526 -0.6863 -0.4869
11707SOL    HW135699   7.784   0.732   4.349 -0.6826  1.2157  0.4186
11707SOL    HW235700   7.700   0.625   4.416  0.8667 -0.2229  0.1355
11708SOL     OW35701   4.249   1.665   1.030  0.6941  0.0663  0.2773
11708SOL    HW135702   4.196   1.636   0.955  1.1166  2.2685 -0.9709
11708SOL    HW235703   4.337   1.633   1.010  0.6209 -0.1403  0.2872
11709SOL     OW35704   8.858   2.321   6.804 -0.3984  0.0775  0.2101
11709SOL    HW135705   8.880   2.414   6.793  0.4882 -0.1822 -0.3529
11709SOL    HW235706   8.920   2.275   6.747 -1.3028 -0.8210 -0.0743
11710SOL     OW35707   9.891   0.091   2.367 -0.3533  0.2119 -0.3538
11710SOL    HW135708   9.969   0.135   2.401  1.2331 -2.4281 -0.2870
11710SOL    HW235709   9.925   0.030   2.301 -2.5898  0.2119 -1.6025
11711SOL     OW35710   3.525   7.353   4.368 -0.4867  0.0133  0.9102
11711SOL    HW135711   3.528   7.315   4.280  0.1050  3.6648 -0.8404
11711SOL    HW235712   3.604   7.320   4.411  0.7146  0.3243 -0.9616
11712SOL     OW35713   1.296   2.182   5.354 -0.6584  0.2394  0.1613
11712SOL    HW135714   1.266   2.142   5.436 -1.3258  1.5052  0.5643
11712SOL    HW235715   1.384   2.212   5.372 -0.0304 -1.2434 -0.2378
11713SOL     OW35716   6.079   1.084   0.092  0.1087  0.2562  0.0759
11713SOL    HW135717   6.094   1.166   0.044  1.3363  0.7438  1.2302
11713SOL    HW235718   6.138   1.021   0.051  1.0695  0.6427  0.8169
11714SOL     OW35719   6.184   1.183   6.048 -0.2046 -0.0649 -0.0966
11714SOL    HW135720   6.140   1.169   6.132 -0.4180  1.6122  0.1084
11714SOL    HW235721   6.113   1.195   5.985 -0.0461 -1.4537 -0.5630
11715SOL     OW35722   7.835   3.767   4.786 -0.1468  0.5677 -0.2429
11715SOL    HW135723   7.790   3.842   4.746  0.1609  0.1326 -1.4693
11715SOL    HW235724   7.765   3.704   4.803 -0.6216  1.6601  2.1557
11716SOL     OW35725   3.987   5.107   4.764  0.1572 -0.0564 -0.5140
11716SOL    HW135726   3.914   5.157   4.729  0.1781  0.8956  0.7225
11716SOL    HW235727   4.049   5.101   4.692  0.1716  1.7637 -0.7047
11717SOL     OW35728   5.851   4.208   0.093  0.5423  0.4474 -0.0842
11717SOL    HW135729   5.818   4.183   0.180 -0.4285  1.2583 -0.2154
11717SOL    HW235730   5.824   4.136   0.036  0.1396  0.4836  0.0590
11718SOL     OW35731   2.815   0.969   1.720 -0.1230 -0.7850 -0.1306
11718SOL    HW135732   2.803   1.016   1.802  2.2124 -0.0515 -0.1590
11718SOL    HW235733   2.760   1.017   1.657 -0.6488 -0.3633  0.6311
11719SOL     OW35734   8.032   5.263   8.756 -0.4580  0.0655 -0.8643
11719SOL    HW135735   8.056   5.172   8.775 -1.7766 -0.0258  0.6148
11719SOL    HW235736   8.108   5.314   8.784 -0.3318 -0.4910 -0.1494
11720SOL     OW35737   9.472   8.095   3.624 -0.3722 -0.0890 -0.6826
11720SOL    HW135738   9.511   8.072   3.540 -1.3909  0.8110 -1.4262
11720SOL    HW235739   9.547   8.108   3.682  0.3746 -0.1675 -1.6009
11721SOL     OW35740   8.001   9.318   5.559 -0.1126 -0.1671  0.5036
11721SOL    HW135741   7.961   9.315   5.646 -1.5213  2.7513  0.0935
11721SOL    HW235742   8.039   9.406   5.553  3.1811 -1.5080 -0.5891
11722SOL     OW35743   4.561   5.149   3.805  0.1415 -0.3552  0.8461
11722SOL    HW135744   4.536   5.116   3.719  0.6948  0.0216  0.5401
11722SOL    HW235745   4.628   5.214   3.788  0.0881 -0.1065  1.5495
11723SOL     OW35746   0.550   6.339   1.393 -0.2032  0.1074 -0.3732
11723SOL    HW135747   0.500   6.288   1.330 -2.2489  0.8209  0.5826
11723SOL    HW235748   0.591   6.274   1.450 -0.4546 -0.4906 -0.8610
11724SOL     OW35749   5.787   5.135   8.287  0.3652 -0.3122  0.9101
11724SOL    HW135750   5.851   5.203   8.311  1.6092 -1.3137  0.5329
11724SOL    HW235751   5.743   5.170   8.210 -0.3115  0.8482  1.7854
11725SOL     OW35752   6.614   1.523   0.774  0.1740 -0.1568 -0.1484
11725SOL    HW135753   6.644   1.465   0.704  1.1525 -1.2720  1.1514
11725SOL    HW235754   6.674   1.598   0.771  1.2773 -0.9861  0.5349
11726SOL     OW35755   2.174   3.985   7.169  0.3833 -0.4479  0.4935
11726SOL    HW135756   2.252   4.008   7.220  0.7685 -0.7998  0.0744
11726SOL    HW235757   2.164   4.056   7.106  1.8884 -1.5921 -1.1608
11727SOL     OW35758   6.709   1.540   9.400 -0.5334 -0.4538 -0.2188
11727SOL    HW135759   6.705   1.538   9.496 -0.5234 -0.0036 -0.2086
11727SOL    HW235760   6.625   1.577   9.373 -0.1299  0.3999 -0.3398
11728SOL     OW35761   3.161   5.882   6.598  0.0667 -0.4629 -0.7061
11728SOL    HW135762   3.191   5.791   6.610 -2.0587 -1.2491 -0.9933
11728SOL    HW235763   3.078   5.886   6.645  0.2996  1.4791 -0.3793
11729SOL     OW35764   4.259   5.820   3.150 -0.3761  0.1559 -0.0908
11729SOL    HW135765   4.186   5.870   3.113 -0.0803  0.7954  0.1779
11729SOL    HW235766   4.223   5.733   3.166 -0.9589  0.3432 -0.3630
11730SOL     OW35767   2.882   3.145   1.743  0.2377 -0.4183 -0.2275
11730SOL    HW135768   2.946   3.206   1.706  0.3912 -0.6594 -0.3684
11730SOL    HW235769   2.801   3.194   1.748  0.2253 -0.3670 -0.8529
11731SOL     OW35770   9.451   4.904   0.775 -0.2226  0.1610  0.3231
11731SOL    HW135771   9.534   4.899   0.728  0.7553 -0.2931  1.9827
11731SOL    HW235772   9.471   4.957   0.852 -1.0998 -1.0312  1.4175
11732SOL     OW35773   8.619   7.323   3.359  0.7293  0.2161 -0.5429
11732SOL    HW135774   8.578   7.368   3.433  0.0079 -2.2253  0.6113
11732SOL    HW235775   8.562   7.345   3.285 -0.1424  0.4311  0.1678
11733SOL     OW35776   1.684   1.599   2.943  1.1254 -0.0434 -0.3750
11733SOL    HW135777   1.737   1.673   2.913  0.1125  0.9666  0.2337
11733SOL    HW235778   1.624   1.582   2.870  2.0013 -0.9498 -0.9168
11734SOL     OW35779   7.023   0.030   7.160 -0.3113 -0.1017  0.6227
11734SOL    HW135780   7.079   0.099   7.123 -2.8124 -0.0167 -3.6260
11734SOL    HW235781   6.964   0.077   7.220  0.8547  0.6148  1.2539
11735SOL     OW35782   2.426   1.736   9.377  0.2781 -0.6310  0.6148
11735SOL    HW135783   2.354   1.706   9.322 -0.4223 -2.1508  2.2585
11735SOL    HW235784   2.447   1.823   9.344 -2.3620 -0.1058  0.1481
11736SOL     OW35785   9.746   9.071   3.719 -0.4938  0.1515 -0.5568
11736SOL    HW135786   9.784   9.013   3.785  1.8151  1.7340 -0.3934
11736SOL    HW235787   9.692   9.013   3.666 -0.6629 -1.5823  1.3555
11737SOL     OW35788   7.508   9.296   1.508 -0.2316  0.5629  0.2550
11737SOL    HW135789   7.521   9.329   1.598  0.1922 -0.6202  0.6458
11737SOL    HW235790   7.593   9.311   1.465  0.0033 -0.1192  0.4725
11738SOL     OW35791   4.872   8.429   4.459 -0.0047  0.4634  0.2469
11738SOL    HW135792   4.946   8.471   4.416  0.5384  1.5745  2.1453
11738SOL    HW235793   4.904   8.405   4.545 -0.9605 -1.9841  0.0092
11739SOL     OW35794   3.854   7.478   4.401 -0.1150 -0.2955  0.4405
11739SOL    HW135795   3.942   7.491   4.437 -1.1031 -1.0048  3.3822
11739SOL    HW235796   3.815   7.565   4.402 -0.5939 -0.4911  2.5777
11740SOL     OW35797   6.386   6.393   6.802 -0.2748  0.3903  0.2145
11740SOL    HW135798   6.471   6.351   6.788 -0.6720  0.0091 -1.2026
11740SOL    HW235799   6.406   6.486   6.806  0.3100  0.2487  0.8164
11741SOL     OW35800   9.828   9.270   9.372  0.3292  0.1285  0.0314
11741SOL    HW135801   9.772   9.347   9.363 -0.0559 -0.0730  0.6462
11741SOL    HW235802   9.779   9.212   9.430  1.8867  0.6568  1.9822
11742SOL     OW35803   9.115   9.203   7.109 -0.4731 -0.7413  0.3701
11742SOL    HW135804   9.137   9.293   7.132 -0.5996 -0.9448  1.3345
11742SOL    HW235805   9.029   9.188   7.150 -1.5486 -0.5721 -1.7178
11743SOL     OW35806   0.564   5.310   1.617  0.0002  0.2495 -0.2057
11743SOL    HW135807   0.496   5.257   1.657  0.9331 -0.1237  0.9412
11743SOL    HW235808   0.629   5.247   1.587 -0.3998  0.5614 -1.8380
11744SOL     OW35809   4.133   8.604   2.205 -0.1811 -0.0558  0.3837
11744SOL    HW135810   4.114   8.590   2.112  0.4066 -1.4674  0.4537
11744SOL    HW235811   4.063   8.559   2.251 -0.4370  0.5927  0.6399
11745SOL     OW35812   2.031   4.390   3.223  0.1588  0.2899  0.3758
11745SOL    HW135813   2.084   4.381   3.302 -1.9197  0.1910  1.8667
11745SOL    HW235814   2.004   4.482   3.223 -1.6344 -0.1847  1.0829
11746SOL     OW35815   1.265   1.527   6.689 -0.7725 -0.7816 -0.1603
11746SOL    HW135816   1.307   1.578   6.758 -1.6714  0.1774 -0.2963
11746SOL    HW235817   1.336   1.476   6.651  0.2243  0.5201 -0.1386
11747SOL     OW35818   5.116   7.283   8.327  0.5253  0.0509  0.4708
11747SOL    HW135819   5.148   7.348   8.265  0.0160 -0.1606 -0.0235
11747SOL    HW235820   5.142   7.316   8.413  1.2461  0.3442  0.1477
11748SOL     OW35821   3.783   1.317   1.468 -0.0366 -0.3786 -0.0466
11748SOL    HW135822   3.797   1.262   1.391 -1.7658 -0.1404 -0.5523
11748SOL    HW235823   3.742   1.396   1.435 -1.4478 -0.5570  1.1786
11749SOL     OW35824   2.356   4.596   8.580  0.0381 -0.1576  0.1135
11749SOL    HW135825   2.324   4.615   8.492  0.9069  0.0707 -0.1594
11749SOL    HW235826   2.438   4.549   8.566  0.9503  1.1767  0.7919
11750SOL     OW35827   4.234   5.449   9.124 -0.4607 -0.2947 -0.5096
11750SOL    HW135828   4.186   5.379   9.081  0.6509 -0.4554 -1.5228
11750SOL    HW235829   4.232   5.426   9.217 -0.6644 -1.3210 -0.7575
11751SOL     OW35830   3.075   4.677   1.547 -0.2177 -0.2245 -0.9390
11751SOL    HW135831   2.995   4.724   1.523 -0.3669 -0.0534 -0.1514
11751SOL    HW235832   3.092   4.706   1.637  0.2060 -0.9816 -0.7755
11752SOL     OW35833   5.418   6.903   3.291  0.2236  0.4590 -0.5764
11752SOL    HW135834   5.425   6.954   3.210  1.9772  0.2351 -0.6060
11752SOL    HW235835   5.478   6.947   3.352 -0.0334 -0.1867  0.1604
11753SOL     OW35836   3.294   1.267   1.090 -0.3927  0.1402  0.2161
11753SOL    HW135837   3.203   1.264   1.121 -0.9323 -1.0680 -1.3744
11753SOL    HW235838   3.345   1.236   1.165 -1.6183 -2.3432  0.1165
11754SOL     OW35839   3.664   7.800   6.723  0.5011 -0.2617 -0.1684
11754SOL    HW135840   3.655   7.718   6.675 -0.1610  0.4104 -1.2306
11754SOL    HW235841   3.754   7.828   6.706  0.7717 -0.8130  0.3071
11755SOL     OW35842   0.116   7.577   0.132  0.0981  0.4253  0.2992
11755SOL    HW135843   0.173   7.648   0.103  0.5798  1.0892  2.6322
11755SOL    HW235844   0.168   7.498   0.119  1.0128  0.8804  1.0295
11756SOL     OW35845   4.145   1.780   8.607  0.6899 -0.0976 -0.7025
11756SOL    HW135846   4.103   1.839   8.545  2.8301  0.6916 -1.5125
11756SOL    HW235847   4.187   1.838   8.670  2.4501 -0.7033 -1.2552
11757SOL     OW35848   8.835   9.315   9.873 -0.2423  0.5575  0.6171
11757SOL    HW135849   8.872   9.338   9.788 -1.4961  0.3041 -0.0227
11757SOL    HW235850   8.838   9.219   9.875 -1.6477  0.4702  0.1457
11758SOL     OW35851   9.773   5.900   9.488  0.1217 -0.4038 -0.1360
11758SOL    HW135852   9.775   5.968   9.556 -0.8257 -0.1007 -0.4040
11758SOL    HW235853   9.865   5.892   9.461  0.1497  1.3870 -0.6955
11759SOL     OW35854   1.646   4.581   1.098  0.5212 -0.2516 -0.0281
11759SOL    HW135855   1.732   4.603   1.061  0.0026  1.5621 -0.2396
11759SOL    HW235856   1.584   4.614   1.033 -0.3619  0.8563  1.3429
11760SOL     OW35857   4.064   1.800   1.186 -0.5511 -0.4785 -0.0370
11760SOL    HW135858   4.061   1.864   1.115 -0.8760 -1.3217 -0.8093
11760SOL    HW235859   4.127   1.735   1.156 -0.0760 -0.4248  0.8251
11761SOL     OW35860   6.339   5.401   0.644 -0.8844  0.0738 -0.2121
11761SOL    HW135861   6.305   5.336   0.582 -2.6965  1.1563 -0.4089
11761SOL    HW235862   6.303   5.374   0.729 -0.3526 -0.0429 -0.0151
11762SOL     OW35863   2.571   9.348   8.949 -0.0588  0.3977 -0.2584
11762SOL    HW135864   2.577   9.264   8.992  1.3823  0.3934 -0.4300
11762SOL    HW235865   2.488   9.385   8.979  0.0028 -0.4306  0.9801
11763SOL     OW35866   4.517   0.915   6.988 -0.0746  0.1323  0.2319
11763SOL    HW135867   4.460   0.909   7.064 -0.9309  0.8006 -0.3337
11763SOL    HW235868   4.507   0.831   6.944 -3.2939  1.3157 -1.6584
11764SOL     OW35869   0.557   0.267   6.210 -0.2941  0.6231 -0.5571
11764SOL    HW135870   0.515   0.353   6.204 -0.0595  0.8733  0.9250
11764SOL    HW235871   0.558   0.234   6.120 -2.5330  1.1222 -0.8162
11765SOL     OW35872   0.078   7.143   5.168 -0.2174  0.4399  0.0223
11765SOL    HW135873   0.091   7.236   5.188 -1.4234  0.6968 -0.3470
11765SOL    HW235874   0.104   7.135   5.076  1.7112  0.0051  0.5566
11766SOL     OW35875   7.462   1.013   3.421 -0.0267  0.2482  0.5670
11766SOL    HW135876   7.512   0.939   3.388 -0.9645  0.5174 -1.6376
11766SOL    HW235877   7.380   0.974   3.452 -0.1739  0.2753  0.2094
11767SOL     OW35878   1.065   7.214   4.107  0.4025 -0.6305  0.4998
11767SOL    HW135879   1.104   7.210   4.020  1.2365  0.3794  0.8005
11767SOL    HW235880   1.140   7.223   4.167 -0.2393  0.9190  1.1290
11768SOL     OW35881   3.051   8.687   4.679  0.5200  0.1890  0.4649
11768SOL    HW135882   3.027   8.599   4.710  0.9056 -1.1133 -2.5145
11768SOL    HW235883   3.140   8.700   4.710 -0.5292  0.9035  3.4522
11769SOL     OW35884   5.232   4.254   9.440  0.1923 -0.1161 -0.2175
11769SOL    HW135885   5.257   4.258   9.533 -0.4473 -0.2998 -0.0391
11769SOL    HW235886   5.221   4.346   9.415  0.6484 -0.0506 -0.1916
11770SOL     OW35887   2.811   4.184   5.370 -0.4280  0.1646  0.1457
11770SOL    HW135888   2.840   4.143   5.289  1.4620 -2.1988  1.8448
11770SOL    HW235889   2.716   4.167   5.373  0.0111 -2.8121 -0.0303
11771SOL     OW35890   1.761   0.475   9.093  0.0061  0.1997 -0.1338
11771SOL    HW135891   1.799   0.403   9.043 -0.4220 -0.8818  1.0278
11771SOL    HW235892   1.712   0.431   9.163 -0.8329  1.6197  0.1966
11772SOL     OW35893   1.635   2.133   0.824  0.2867  0.1328 -0.2709
11772SOL    HW135894   1.689   2.065   0.865  0.0461 -0.9393 -1.6420
11772SOL    HW235895   1.666   2.215   0.862  1.6474 -0.6140  0.2951
11773SOL     OW35896   0.256   1.111   3.534  0.1378  0.4316 -0.3777
11773SOL    HW135897   0.243   1.197   3.573  0.0624  0.1855  0.1567
11773SOL    HW235898   0.327   1.072   3.585  1.0142  0.6478 -1.4100
11774SOL     OW35899   5.507   6.403   5.873 -0.4437 -0.0703  0.6149
11774SOL    HW135900   5.427   6.365   5.836  0.5994 -2.2163  0.4049
11774SOL    HW235901   5.515   6.487   5.829 -1.3047 -0.8775 -1.2267
11775SOL     OW35902   2.945   4.290   3.219 -0.2294 -0.3411 -0.0478
11775SOL    HW135903   2.942   4.313   3.312  0.4780 -1.4216  0.2637
11775SOL    HW235904   2.958   4.373   3.174  1.2197  0.0134  0.9550
11776SOL     OW35905   9.688   3.987   8.132 -0.3208  0.4193  0.0415
11776SOL    HW135906   9.735   3.983   8.049 -2.6258 -0.9722 -1.3248
11776SOL    HW235907   9.602   4.024   8.109 -0.8261  0.5495  1.9333
11777SOL     OW35908   0.765   8.990   1.818  0.0979  0.3641 -0.0856
11777SOL    HW135909   0.676   8.968   1.790  0.8837 -1.3471 -1.4000
11777SOL    HW235910   0.803   9.036   1.744  0.6061  0.2881  0.1272
11778SOL     OW35911   5.999   4.605   5.301 -0.7162 -0.6007 -0.0393
11778SOL    HW135912   5.904   4.618   5.312 -0.6939 -0.9648  0.6071
11778SOL    HW235913   6.027   4.562   5.382  0.2188  0.6407  0.3280
11779SOL     OW35914   5.341   3.791   7.773 -0.3791  0.4224  0.3609
11779SOL    HW135915   5.421   3.822   7.816 -0.0043  1.0884 -0.7987
11779SOL    HW235916   5.281   3.865   7.778 -0.2316  0.6099 -0.5072
11780SOL     OW35917   6.698   3.882   5.642 -0.4459 -0.0095  0.3354
11780SOL    HW135918   6.634   3.829   5.690  0.4304 -3.3406 -1.8379
11780SOL    HW235919   6.654   3.904   5.560  0.5547 -0.7804 -0.4228
11781SOL     OW35920   1.827   3.660   8.097  0.2861 -0.5639  0.2823
11781SOL    HW135921   1.822   3.586   8.158 -0.1122 -0.5175  0.3086
11781SOL    HW235922   1.739   3.667   8.060  0.0309  0.5428  1.0386
11782SOL     OW35923   4.913   5.697   2.136  0.3069 -0.6328  0.1922
11782SOL    HW135924   4.915   5.627   2.201  0.6583  0.7433  1.7151
11782SOL    HW235925   4.849   5.668   2.071 -2.3200 -0.7904  2.6733
11783SOL     OW35926   0.001   2.355   9.055 -0.4413  0.2645  0.1190
11783SOL    HW135927   0.032   2.312   9.135 -0.6352 -1.0412 -0.4729
11783SOL    HW235928   0.059   2.430   9.044 -1.2865  1.2953  2.2207
11784SOL     OW35929   2.126   0.984   9.311  0.1956 -0.4197 -0.2834
11784SOL    HW135930   2.151   1.076   9.303  0.6110 -0.4403  0.6231
11784SOL    HW235931   2.034   0.983   9.285 -0.3489  0.5917  1.4118
11785SOL     OW35932   2.502   8.494   9.716  0.1467  0.1513 -0.5083
11785SOL    HW135933   2.593   8.465   9.709  1.7569  3.9379  1.6086
11785SOL    HW235934   2.495   8.564   9.651 -1.1215  0.2301 -0.3130
11786SOL     OW35935   1.193   4.170   8.537  0.1913  0.2656 -0.0671
11786SOL    HW135936   1.275   4.154   8.585  0.5941  0.1442 -0.7780
11786SOL    HW235937   1.178   4.088   8.489 -1.0638 -0.2189  1.0643
11787SOL     OW35938   0.425   4.712   2.374 -0.5158 -0.0878 -0.2190
11787SOL    HW135939   0.352   4.759   2.333  0.2331 -0.5001 -2.1185
11787SOL    HW235940   0.418   4.623   2.340 -0.9926 -1.0323  2.1230
11788SOL     OW35941   2.374   5.329   0.295 -0.3372  0.1300  0.4205
11788SOL    HW135942   2.356   5.241   0.263  0.3886  1.0009 -2.8015
11788SOL    HW235943   2.461   5.324   0.334  0.2144 -0.3761 -0.8265
11789SOL     OW35944   5.059   6.062   5.700  0.7695  0.2754  0.4586
11789SOL    HW135945   5.065   6.011   5.781  1.7458 -1.0591 -0.4026
11789SOL    HW235946   5.131   6.124   5.705  0.5584  0.5019  0.7885
11790SOL     OW35947   0.478   4.992   1.552  0.1034 -0.2855  0.0578
11790SOL    HW135948   0.490   4.918   1.492  0.4034 -0.1055 -0.1079
11790SOL    HW235949   0.561   5.039   1.548 -0.2126  0.2647 -0.1201
11791SOL     OW35950   4.289   4.327   5.554  0.3717 -0.1933  0.0335
11791SOL    HW135951   4.242   4.300   5.474 -2.2627  0.9319  1.0678
11791SOL    HW235952   4.245   4.279   5.624  1.2428  0.4283  1.0242
11792SOL     OW35953   7.919   2.490   8.037  0.1284  0.1572 -0.4851
11792SOL    HW135954   7.886   2.436   7.965 -0.0728  1.1819 -1.1764
11792SOL    HW235955   7.943   2.573   7.996 -0.9286  1.1306  0.7776
11793SOL     OW35956   5.374   0.180   3.540  0.2714 -0.0014  0.4950
11793SOL    HW135957   5.293   0.218   3.507 -0.8685 -1.3851  1.5536
11793SOL    HW235958   5.364   0.086   3.525  1.7563 -0.1776  0.5005
11794SOL     OW35959   7.409   7.054   9.147  0.1872 -0.1873 -0.4966
11794SOL    HW135960   7.458   7.120   9.196  0.4181  0.1620 -1.1839
11794SOL    HW235961   7.328   7.098   9.121 -0.8858 -0.9805  1.2674
11795SOL     OW35962   1.574   2.292   5.319  0.0184  0.0443 -0.6963
11795SOL    HW135963   1.539   2.359   5.261  0.5624  0.0215 -1.0575
11795SOL    HW235964   1.665   2.281   5.291  0.8817  1.3507  1.3025
11796SOL     OW35965   5.458   3.045   2.049  0.4462  0.5001 -0.1425
11796SOL    HW135966   5.370   3.038   2.012 -1.0501  1.3022  2.9371
11796SOL    HW235967   5.509   2.980   2.001 -2.2253 -1.1631 -0.9780
11797SOL     OW35968   6.674   8.742   6.010  0.1187 -0.2549  0.4800
11797SOL    HW135969   6.695   8.792   5.931 -3.6817  1.4726  0.3509
11797SOL    HW235970   6.648   8.656   5.978 -1.2182  0.3726 -0.2197
11798SOL     OW35971   6.686   2.806   1.306 -0.3220  0.1211 -0.0560
11798SOL    HW135972   6.721   2.830   1.220  0.4635  1.8266  0.6935
11798SOL    HW235973   6.629   2.879   1.330  2.4476  1.7028  2.4918
11799SOL     OW35974   2.481   8.990   3.404  0.0024  0.5020 -0.4758
11799SOL    HW135975   2.515   9.072   3.369 -0.2630  1.0251  0.4759
11799SOL    HW235976   2.511   8.924   3.341  0.6636  1.2518 -0.9769
11800SOL     OW35977   0.427   0.927   0.444 -0.3311  0.2600 -0.1820
11800SOL    HW135978   0.370   0.905   0.519 -1.7189  0.5065 -1.1251
11800SOL    HW235979   0.369   0.921   0.368  1.2129 -0.6894 -1.3462
11801SOL     OW35980   0.641   6.940   9.322 -0.2621 -0.7528  0.0471
11801SOL    HW135981   0.562   6.977   9.283  0.3587 -0.5928 -1.1023
11801SOL    HW235982   0.648   6.983   9.407 -0.4907  0.5302 -0.5523
11802SOL     OW35983   3.648   3.183   4.804  0.2758 -0.1888  0.0549
11802SOL    HW135984   3.690   3.106   4.844 -0.3031  0.1683  1.4269
11802SOL    HW235985   3.658   3.170   4.710  2.0834 -0.8786  0.2870
11803SOL     OW35986   9.255   4.526   6.869  0.1970  0.1036 -0.4162
11803SOL    HW135987   9.179   4.469   6.871 -0.2107  0.5722 -1.8640
11803SOL    HW235988   9.291   4.521   6.958 -1.4733 -0.1742  0.2703
11804SOL     OW35989   1.672   8.555   8.964 -0.0325 -0.0150  0.1298
11804SOL    HW135990   1.645   8.642   8.934 -1.7064 -0.9752 -1.3485
11804SOL    HW235991   1.664   8.560   9.059 -0.3987  1.3611  0.0575
11805SOL     OW35992   9.173   2.054   7.825 -0.0433  0.0048 -0.0703
11805SOL    HW135993   9.144   2.074   7.736 -0.2781  0.3353  0.0801
11805SOL    HW235994   9.188   2.139   7.866 -0.3408 -0.1360  0.3373
11806SOL     OW35995   7.909   1.257   8.492  0.2679 -0.1924 -0.0184
11806SOL    HW135996   7.960   1.234   8.570 -1.5777  0.4052  1.4567
11806SOL    HW235997   7.964   1.318   8.444  1.2636 -0.2045  1.0657
11807SOL     OW35998   4.065   1.434   3.270  0.0624  0.1278  0.2138
11807SOL    HW135999   4.005   1.508   3.280 -0.6201 -0.5848  1.5243
11807SOL    HW236000   4.014   1.367   3.225 -0.3585 -0.7192  1.9090
11808SOL     OW36001   1.980   4.518   2.609  0.2953 -0.3968 -0.0648
11808SOL    HW136002   2.056   4.484   2.562  1.2918  0.2811  1.0290
11808SOL    HW236003   1.984   4.612   2.596 -0.9908 -0.4345 -0.9003
11809SOL     OW36004   6.448   4.843   3.226  0.6728 -0.2670  0.0393
11809SOL    HW136005   6.536   4.866   3.195  0.6577 -0.6305 -0.2945
11809SOL    HW236006   6.389   4.880   3.159  0.6860 -1.8995 -0.9344
11810SOL     OW36007   7.262   5.564   4.464 -0.0414 -0.2663  0.0760
11810SOL    HW136008   7.252   5.565   4.559  0.3524 -1.7222  0.1573
11810SOL    HW236009   7.172   5.556   4.431 -0.1262 -0.5105  0.3548
11811SOL     OW36010   1.442   0.878   4.898 -0.7019  0.1069 -0.0999
11811SOL    HW136011   1.379   0.944   4.927 -0.5930  0.3125 -0.3314
11811SOL    HW236012   1.482   0.915   4.820  1.0796  0.8359  1.0955
11812SOL     OW36013   0.411   5.288   6.495  0.3859  0.2617  0.1892
11812SOL    HW136014   0.369   5.223   6.439  0.1926  1.4525 -1.1137
11812SOL    HW236015   0.442   5.239   6.571  0.0848 -1.2972 -0.6659
11813SOL     OW36016   5.780   9.597   1.386  0.2050 -1.1314  0.6004
11813SOL    HW136017   5.722   9.523   1.403 -1.3023  0.5727  3.6825
11813SOL    HW236018   5.860   9.577   1.434 -0.1294 -0.8720  1.2743
11814SOL     OW36019   6.196   2.783   1.935 -0.2002 -0.2765  0.0825
11814SOL    HW136020   6.254   2.816   1.865 -1.1688  0.7986 -0.2526
11814SOL    HW236021   6.130   2.851   1.945 -0.3650 -0.6390  1.7401
11815SOL     OW36022   8.681   1.525   0.898 -0.4184 -0.5724 -0.1780
11815SOL    HW136023   8.764   1.565   0.923 -0.2309  0.5045 -2.2566
11815SOL    HW236024   8.706   1.443   0.854 -0.5247 -0.7502  0.0902
11816SOL     OW36025   7.429   7.664   8.584 -0.3709  0.0565  0.5431
11816SOL    HW136026   7.506   7.686   8.637 -0.6319  0.2963  0.8261
11816SOL    HW236027   7.421   7.569   8.591  1.2681 -0.2915 -1.3689
11817SOL     OW36028   4.130   1.742   2.303  0.2592  0.3886  0.5012
11817SOL    HW136029   4.085   1.658   2.313 -1.5416  1.5635  4.5342
11817SOL    HW236030   4.108   1.771   2.215 -1.3273 -2.1405 -0.0330
11818SOL     OW36031   5.216   6.497   6.085  0.4536  0.5753  0.4154
11818SOL    HW136032   5.206   6.404   6.104  0.9322  1.1566  4.1852
11818SOL    HW236033   5.128   6.528   6.066  0.2102 -0.4935 -0.2919
11819SOL     OW36034   4.767   3.553   9.854 -0.3424  0.1913  0.2861
11819SOL    HW136035   4.863   3.545   9.851  0.0136  2.6255  1.9922
11819SOL    HW236036   4.752   3.631   9.908 -3.3177 -0.3992  0.4394
11820SOL     OW36037   4.312   6.717   6.293  0.4513 -0.3009  0.1127
11820SOL    HW136038   4.227   6.677   6.277  1.1742 -1.4000 -1.2502
11820SOL    HW236039   4.324   6.778   6.220  1.3532 -1.1144 -0.4573
11821SOL     OW36040   1.199   2.180   9.863  0.3060  0.1893  0.4843
11821SOL    HW136041   1.144   2.195   9.940  0.4069  0.1821  0.5576
11821SOL    HW236042   1.175   2.092   9.834  1.0997 -0.2728  1.1903
11822SOL     OW36043   3.465   8.806   8.496  0.6394  0.0166 -0.4487
11822SOL    HW136044   3.466   8.849   8.410 -2.4690 -1.6944 -1.4932
11822SOL    HW236045   3.476   8.712   8.476  0.8209 -0.3332  1.1463
11823SOL     OW36046   2.320   5.613   8.889  0.1100  0.0663 -0.0172
11823SOL    HW136047   2.350   5.703   8.878  2.2342 -0.6637 -0.7689
11823SOL    HW236048   2.293   5.607   8.980  4.8893  0.2157  1.6774
11824SOL     OW36049   8.369   6.804   0.776 -0.3143 -0.5389 -0.2059
11824SOL    HW136050   8.427   6.847   0.714  0.1244 -0.9681 -0.1073
11824SOL    HW236051   8.379   6.854   0.857 -0.7301 -0.1040 -0.4173
11825SOL     OW36052   7.382   8.728   4.616  0.5491  0.1422  0.4348
11825SOL    HW136053   7.323   8.679   4.559  0.0073  0.8345  0.3742
11825SOL    HW236054   7.417   8.663   4.677  1.1333 -0.6038 -0.6708
11826SOL     OW36055   8.045   1.503   8.777  0.2207  0.2672 -0.1791
11826SOL    HW136056   7.997   1.494   8.695  1.1146  1.0510 -0.8030
11826SOL    HW236057   8.132   1.470   8.758  0.3003  0.0155  0.5933
11827SOL     OW36058   0.364   3.480   1.923  0.5893  0.1965  0.3048
11827SOL    HW136059   0.363   3.552   1.860  1.3526 -0.1805 -0.1451
11827SOL    HW236060   0.274   3.446   1.922  0.0843  1.4425  0.8941
11828SOL     OW36061   0.988   3.529   0.902 -0.1880  0.6468  0.2813
11828SOL    HW136062   1.056   3.596   0.913 -0.3814  0.5176  2.7804
11828SOL    HW236063   0.912   3.565   0.947 -1.2022 -0.0527 -0.8168
11829SOL     OW36064   1.250   5.974   5.531  0.5629 -0.5415  0.2871
11829SOL    HW136065   1.267   6.036   5.461 -0.5571  0.9272  1.2531
11829SOL    HW236066   1.247   6.028   5.610  0.9800 -2.0342  1.3685
11830SOL     OW36067   8.373   0.747   5.759  0.4990 -0.6135  0.4337
11830SOL    HW136068   8.456   0.794   5.747  0.1468 -0.2809 -0.9918
11830SOL    HW236069   8.398   0.664   5.798  1.3077  0.1436  1.6101
11831SOL     OW36070   0.074   7.128   2.473  0.1081 -0.1148 -0.7542
11831SOL    HW136071   0.070   7.103   2.565 -1.0045 -1.7272 -1.2026
11831SOL    HW236072   0.080   7.045   2.425  0.5399  0.6760 -2.1589
11832SOL     OW36073   2.361   5.560   9.874 -0.4975 -0.0295  0.2942
11832SOL    HW136074   2.290   5.514   9.917 -1.0045  0.5314  0.0773
11832SOL    HW236075   2.409   5.602   9.945 -1.3264  0.8887  0.3351
11833SOL     OW36076   5.152   4.904   1.772  0.5279  0.6016  0.0934
11833SOL    HW136077   5.150   4.977   1.710  0.9046  0.4500 -0.1028
11833SOL    HW236078   5.060   4.890   1.795  0.5143  1.6035  0.6949
11834SOL     OW36079   2.193   8.947   3.369 -0.5326  1.1880 -0.1380
11834SOL    HW136080   2.277   8.988   3.352  0.2350 -0.1830  0.2495
11834SOL    HW236081   2.164   8.914   3.284 -1.0162  2.2339 -0.3959
11835SOL     OW36082   1.606   8.563   7.955 -0.3170 -0.5802  0.3487
11835SOL    HW136083   1.550   8.490   7.982 -1.3818  0.4546  1.0359
11835SOL    HW236084   1.645   8.594   8.036  1.3621 -1.3256 -0.1294
11836SOL     OW36085   3.611   0.238   3.547 -0.3069 -0.0545 -0.6379
11836SOL    HW136086   3.580   0.263   3.460  2.8899  0.6383 -1.7289
11836SOL    HW236087   3.558   0.162   3.571 -2.2671  0.6352 -2.5025
11837SOL     OW36088   8.614   6.052   7.225 -0.6576 -0.1647 -0.2424
11837SOL    HW136089   8.555   6.127   7.232 -0.2991  0.1435 -0.5156
11837SOL    HW236090   8.655   6.062   7.140 -1.1413 -1.0660 -0.5960
11838SOL     OW36091   4.877   8.995   0.110 -0.1347  0.6252 -0.0855
11838SOL    HW136092   4.856   9.013   0.019 -0.7291 -0.5535 -0.1979
11838SOL    HW236093   4.829   8.914   0.131  2.2003 -0.7061  0.4345
11839SOL     OW36094   8.576   4.461   7.167  0.0959  0.2402  0.1390
11839SOL    HW136095   8.483   4.461   7.145  0.3506 -2.5126 -1.3891
11839SOL    HW236096   8.615   4.401   7.104  3.0392  1.7720  0.3687
11840SOL     OW36097   3.341   5.321   4.808  0.4416  0.3932 -0.1292
11840SOL    HW136098   3.282   5.313   4.883  1.7855  1.1636  1.0590
11840SOL    HW236099   3.336   5.413   4.783 -1.5781 -0.2309 -2.3946
11841SOL     OW36100   8.943   7.781   9.283  0.2171 -0.0774 -0.4163
11841SOL    HW136101   8.911   7.836   9.355  2.6960  0.8693  0.0385
11841SOL    HW236102   8.929   7.691   9.314  0.6556  0.3115  0.9910
11842SOL     OW36103   3.144   6.731   0.209  0.2080  0.6461 -0.3356
11842SOL    HW136104   3.234   6.735   0.242 -0.2571 -0.2471  1.1508
11842SOL    HW236105   3.139   6.647   0.164  0.1499  0.7449 -0.5131
11843SOL     OW36106   4.128   3.288   7.341  0.3278  0.2351  0.0545
11843SOL    HW136107   4.190   3.220   7.367 -0.6136 -1.7905 -2.5947
11843SOL    HW236108   4.150   3.308   7.250 -2.2538  0.1140 -0.6812
11844SOL     OW36109   7.073   9.095   5.455  0.4727 -0.3392  0.2294
11844SOL    HW136110   7.035   9.177   5.484 -3.0328 -0.8294 -2.2920
11844SOL    HW236111   7.145   9.120   5.397 -0.8161  1.0060 -0.8423
11845SOL     OW36112   2.348   2.244   1.038 -0.3794 -0.0567 -0.2940
11845SOL    HW136113   2.385   2.172   1.089 -0.2218 -1.1872 -1.9162
11845SOL    HW236114   2.300   2.200   0.968 -0.3234  1.4221 -1.2830
11846SOL     OW36115   1.974   1.981   2.810  0.1360  0.6955  0.1480
11846SOL    HW136116   1.913   1.946   2.875  0.7713 -0.6272  0.0707
11846SOL    HW236117   1.942   1.948   2.726  2.1155 -1.9384  0.2918
11847SOL     OW36118   2.985   0.605   9.796  0.3986  0.4392 -0.0886
11847SOL    HW136119   2.941   0.534   9.749  0.4697  1.0675 -1.1508
11847SOL    HW236120   2.993   0.675   9.731 -2.6848  2.7399  1.7790
11848SOL     OW36121   2.458   5.807   2.959 -0.3256  0.1736 -0.2466
11848SOL    HW136122   2.483   5.731   2.906 -2.7730 -2.0325  1.4644
11848SOL    HW236123   2.369   5.827   2.931 -0.2808  1.4247  0.4458
11849SOL     OW36124   7.269   3.747   6.317  0.2874  0.1351 -0.0754
11849SOL    HW136125   7.212   3.746   6.394  0.5318 -1.3870  0.1212
11849SOL    HW236126   7.350   3.786   6.347  0.2325 -0.0631  0.3384
11850SOL     OW36127   4.331   2.997   6.313 -0.7961 -0.0476 -0.4059
11850SOL    HW136128   4.312   3.006   6.406 -2.2133  2.4713 -0.8541
11850SOL    HW236129   4.278   3.065   6.271  0.7473 -0.2859 -2.9371
11851SOL     OW36130   5.427   4.870   2.252 -0.4136 -0.1825  0.6108
11851SOL    HW136131   5.391   4.894   2.167 -0.2845  0.3078  0.6915
11851SOL    HW236132   5.351   4.864   2.310 -0.6125 -1.4935  0.2467
11852SOL     OW36133   1.318   5.213   7.782 -0.5501 -0.3867 -0.2307
11852SOL    HW136134   1.369   5.264   7.844  0.1256 -0.3648 -0.7889
11852SOL    HW236135   1.380   5.149   7.747 -1.5721 -2.1482  1.0507
11853SOL     OW36136   0.570   8.677   7.015  0.2280 -0.0807 -0.3231
11853SOL    HW136137   0.629   8.605   7.039  1.0620  0.3622 -0.9957
11853SOL    HW236138   0.566   8.732   7.093 -1.6225 -1.5972  0.7542
11854SOL     OW36139   3.501   9.907   7.577 -0.4825  0.8306 -0.6811
11854SOL    HW136140   3.491   9.820   7.538 -1.1466  0.2388  0.7611
11854SOL    HW236141   3.415   9.948   7.565 -0.9129  0.3848  0.7235
11855SOL     OW36142   9.622   9.028   2.632 -0.2364  0.2555 -0.0911
11855SOL    HW136143   9.557   9.092   2.661 -0.0382  0.1579  0.5961
11855SOL    HW236144   9.596   8.947   2.675  0.0519  0.0963 -0.2145
11856SOL     OW36145   8.039   8.388   1.199 -0.1249  0.1370 -0.3829
11856SOL    HW136146   7.951   8.351   1.198  0.0192 -0.2131  0.0088
11856SOL    HW236147   8.085   8.342   1.129  0.6537 -1.9032  1.3863
11857SOL     OW36148   9.002   8.027   3.946  0.0584 -0.4778  0.3734
11857SOL    HW136149   8.937   7.960   3.966 -0.8429 -0.5935 -2.5271
11857SOL    HW236150   9.061   7.986   3.883  1.5328  0.4373  1.0734
11858SOL     OW36151   8.823   9.056   8.601  1.2076  0.3193  0.4147
11858SOL    HW136152   8.851   8.966   8.588  1.2131  0.0983  1.7593
11858SOL    HW236153   8.828   9.069   8.696 -1.4241  0.8609  0.5672
11859SOL     OW36154   4.658   5.120   0.918  0.0818  0.1980  0.0838
11859SOL    HW136155   4.732   5.118   0.979  1.5226  0.1688 -1.6058
11859SOL    HW236156   4.689   5.072   0.841 -2.2594 -1.1710 -0.0947
11860SOL     OW36157   1.266   8.098   9.672 -0.1011 -0.1998  0.1269
11860SOL    HW136158   1.306   8.165   9.617  0.6964 -0.5245  0.3052
11860SOL    HW236159   1.196   8.145   9.718  0.7818  0.6586  0.6501
11861SOL     OW36160   0.784   7.258   5.365  0.6805  0.1073 -0.0386
11861SOL    HW136161   0.867   7.263   5.318  1.0591  0.5024  0.6355
11861SOL    HW236162   0.795   7.319   5.438 -0.8168  1.4397 -0.8577
11862SOL     OW36163   8.963   7.787   8.705 -0.0907  0.5716 -0.1695
11862SOL    HW136164   9.008   7.711   8.743 -1.2479 -1.0972 -1.9698
11862SOL    HW236165   8.885   7.797   8.759  1.6605  2.7622  2.2395
11863SOL     OW36166   2.451   8.927   9.214 -0.2366 -0.7489 -0.5122
11863SOL    HW136167   2.444   8.896   9.305 -1.3902  1.7274  0.3437
11863SOL    HW236168   2.405   8.860   9.163 -1.5874 -1.0998  1.0518
11864SOL     OW36169   5.741   2.703   1.012 -0.1100 -0.6137 -0.0580
11864SOL    HW136170   5.696   2.678   0.931  0.6278 -0.6064 -0.4788
11864SOL    HW236171   5.784   2.786   0.991 -0.7275 -0.1066  0.6543
11865SOL     OW36172   3.740   3.263   6.053 -0.3399  0.7322 -0.6442
11865SOL    HW136173   3.822   3.222   6.082 -0.6198 -0.5610 -1.5789
11865SOL    HW236174   3.734   3.240   5.960 -0.3591  3.2164 -1.3426
11866SOL     OW36175   7.362   2.773   0.206  1.0534 -0.3393 -0.0536
11866SOL    HW136176   7.440   2.748   0.255  0.9147 -0.4600  0.1104
11866SOL    HW236177   7.354   2.708   0.137 -0.0351 -1.5580  1.1532
11867SOL     OW36178   6.582   3.364   9.533  0.4520  0.0845  0.0911
11867SOL    HW136179   6.666   3.409   9.523  0.8795 -0.5100  0.9006
11867SOL    HW236180   6.548   3.394   9.618 -0.0866  0.2166 -0.1680
11868SOL     OW36181   6.782   3.224   1.732  0.4054 -0.0896 -0.1316
11868SOL    HW136182   6.778   3.227   1.827  1.4445 -1.0813 -0.0344
11868SOL    HW236183   6.868   3.186   1.713  1.2714  2.2996 -1.5019
11869SOL     OW36184   0.418   9.752   8.983 -0.5080 -0.3554 -0.1676
11869SOL    HW136185   0.451   9.836   8.951 -1.0693 -0.1892 -0.3143
11869SOL    HW236186   0.490   9.717   9.036 -0.6407  0.6743  0.7315
11870SOL     OW36187   0.637   4.801   8.369  0.2923 -0.0010  0.0429
11870SOL    HW136188   0.559   4.745   8.369  0.1176  0.2414  0.5023
11870SOL    HW236189   0.708   4.743   8.338  0.0505 -0.3844  0.1991
11871SOL     OW36190   3.859   7.720   1.921  0.1852  0.0002 -0.3916
11871SOL    HW136191   3.831   7.764   2.001  0.1229  1.2944 -1.1017
11871SOL    HW236192   3.905   7.642   1.952  1.5095  1.2626  0.9644
11872SOL     OW36193   9.460   6.308   2.004  0.4837 -0.1572 -0.8322
11872SOL    HW136194   9.443   6.277   2.092 -0.0745  1.5254 -0.3229
11872SOL    HW236195   9.406   6.386   1.994 -0.0226 -0.7008 -2.9243
11873SOL     OW36196   1.908   7.006   4.408 -0.1248  0.3492 -0.0981
11873SOL    HW136197   1.813   7.003   4.417 -0.1276  0.6276 -0.0302
11873SOL    HW236198   1.925   7.087   4.359 -0.0580 -0.6604 -1.8517
11874SOL     OW36199   3.663   8.958   1.109  0.3271 -0.3580 -0.4082
11874SOL    HW136200   3.571   8.931   1.105  0.6985 -1.5754 -1.0816
11874SOL    HW236201   3.712   8.876   1.118  1.3412  0.3019  0.2867
11875SOL     OW36202   0.891   6.654   2.979 -0.0174  0.2240 -0.0266
11875SOL    HW136203   0.866   6.729   2.924 -0.5707 -0.3235 -0.5400
11875SOL    HW236204   0.873   6.577   2.924  0.4228 -0.2905  0.5401
11876SOL     OW36205   2.534   3.640   3.118 -0.5050 -0.6634 -0.2565
11876SOL    HW136206   2.502   3.562   3.164  1.1858 -1.6929 -0.7426
11876SOL    HW236207   2.619   3.658   3.158  1.1266 -1.7127 -3.0081
11877SOL     OW36208   0.033   8.053   9.642 -0.2759  0.1577 -0.4502
11877SOL    HW136209   0.021   7.988   9.572 -1.8896 -0.8010  0.6464
11877SOL    HW236210   0.100   8.014   9.699 -2.6244 -1.6440  1.2893
11878SOL     OW36211   2.010   1.112   7.527 -0.2559 -0.2479  0.5904
11878SOL    HW136212   1.944   1.046   7.507  0.6373 -1.0873  0.3173
11878SOL    HW236213   2.069   1.068   7.589  2.3297 -1.0144 -2.1588
11879SOL     OW36214   9.793   2.006   3.636  0.3525  0.1773  0.1130
11879SOL    HW136215   9.794   2.085   3.581  1.8625 -0.5254 -0.9145
11879SOL    HW236216   9.810   1.934   3.576  0.3985 -0.8064  1.2644
11880SOL     OW36217   6.614   8.368   1.306  0.3790 -0.9876  0.0961
11880SOL    HW136218   6.664   8.366   1.388 -0.5944 -1.4392  0.6918
11880SOL    HW236219   6.651   8.442   1.258 -1.3462  1.6366  2.4788
11881SOL     OW36220   5.768   7.837   9.651  0.2561 -0.0463  0.0469
11881SOL    HW136221   5.724   7.921   9.638 -0.4737 -0.3542  0.4212
11881SOL    HW236222   5.731   7.803   9.733  0.0965 -0.9901 -0.3915
11882SOL     OW36223   7.231   8.697   7.867  0.2608 -0.2138  0.0237
11882SOL    HW136224   7.269   8.637   7.803  1.0185 -0.5284  0.7509
11882SOL    HW236225   7.208   8.641   7.941  0.7022  0.3411  0.5935
11883SOL     OW36226   0.457   9.715   1.565  0.6090  0.5713 -0.1819
11883SOL    HW136227   0.475   9.798   1.521 -0.0064  1.1702  0.6626
11883SOL    HW236228   0.408   9.740   1.644  1.6841 -0.4747  0.8457
11884SOL     OW36229   1.640   1.349   0.515  0.5438 -0.0904  0.0191
11884SOL    HW136230   1.708   1.390   0.567  0.7187 -0.2712 -0.0663
11884SOL    HW236231   1.687   1.296   0.451  0.3607  0.9411 -1.0067
11885SOL     OW36232   6.458   2.645   5.835 -0.4565  0.2155 -0.2249
11885SOL    HW136233   6.477   2.553   5.851 -0.9368  0.0565 -0.5554
11885SOL    HW236234   6.406   2.672   5.910  2.1593  1.0302  1.4279
11886SOL     OW36235   3.274   6.507   2.059 -0.3257 -0.0072  0.3176
11886SOL    HW136236   3.188   6.468   2.077 -0.8934  1.5582  1.1737
11886SOL    HW236237   3.336   6.451   2.106 -1.0321 -0.3004  0.9145
11887SOL     OW36238   8.881   1.279   2.740  0.1054  0.0833  0.4885
11887SOL    HW136239   8.856   1.280   2.833 -2.5157  1.5807 -0.1295
11887SOL    HW236240   8.953   1.216   2.736 -2.7662 -3.8901  2.8106
11888SOL     OW36241   0.527   1.230   9.280 -0.4135 -0.2380 -0.4984
11888SOL    HW136242   0.569   1.249   9.196 -1.0196 -0.2928 -0.8144
11888SOL    HW236243   0.565   1.146   9.307 -1.2624 -0.9421 -1.4132
11889SOL     OW36244   8.770   5.233   0.685 -0.5077  0.3245  0.0548
11889SOL    HW136245   8.792   5.200   0.598  0.6677 -0.0601  0.4849
11889SOL    HW236246   8.825   5.183   0.745 -2.4048 -0.5261  1.1866
11890SOL     OW36247   1.888   2.327   9.131  0.6861  0.0969  0.3979
11890SOL    HW136248   1.955   2.279   9.180  0.5213  1.6604  2.2826
11890SOL    HW236249   1.833   2.259   9.092  0.8973 -1.2621  2.3360
11891SOL     OW36250   1.483   5.698   3.681 -0.3764  0.3773 -0.0515
11891SOL    HW136251   1.508   5.634   3.748  0.0676 -0.2997 -0.8514
11891SOL    HW236252   1.508   5.783   3.718  1.3301 -0.1172 -0.0107
11892SOL     OW36253   6.598   1.423   7.960  0.6303  0.4689 -0.4389
11892SOL    HW136254   6.582   1.409   8.053 -0.9175  0.1757 -0.7147
11892SOL    HW236255   6.622   1.515   7.953  0.3585  0.5960  0.2104
11893SOL     OW36256   4.844   5.656   4.341  0.2718 -0.3944 -0.0015
11893SOL    HW136257   4.927   5.660   4.294  0.8284 -0.0521  0.9891
11893SOL    HW236258   4.790   5.596   4.289  1.0240 -0.3795 -0.8171
11894SOL     OW36259   9.651   6.935   7.347 -0.2583 -0.0062  0.5256
11894SOL    HW136260   9.695   6.895   7.272  0.4809  0.0059  0.9396
11894SOL    HW236261   9.609   6.861   7.391 -0.1046 -0.1175  0.4884
11895SOL     OW36262   1.181   5.594   9.332  0.3580  0.4588  0.1467
11895SOL    HW136263   1.164   5.539   9.256 -1.3551  2.2142 -0.8407
11895SOL    HW236264   1.263   5.560   9.369  1.0939 -0.6385 -2.2894
11896SOL     OW36265   1.181   5.396   3.749  0.1991  0.8157  0.2836
11896SOL    HW136266   1.221   5.314   3.723 -0.3564  0.8832 -0.8420
11896SOL    HW236267   1.250   5.443   3.797  0.1798 -0.7485  1.9540
11897SOL     OW36268   4.235   2.123   5.227  0.1930 -0.8069 -0.0449
11897SOL    HW136269   4.312   2.067   5.242  0.5104 -0.5119 -0.5549
11897SOL    HW236270   4.199   2.137   5.315 -0.7513 -2.9947 -0.0088
11898SOL     OW36271   4.539   6.987   0.276  0.7709 -0.1286 -0.1215
11898SOL    HW136272   4.543   6.973   0.182  1.5586  3.5133 -0.8006
11898SOL    HW236273   4.623   6.955   0.309  0.8601 -0.6120 -0.8072
11899SOL     OW36274   3.031   6.618   8.313 -0.2028  0.0898 -0.1161
11899SOL    HW136275   3.064   6.571   8.390 -0.6460 -0.9197 -0.5209
11899SOL    HW236276   3.087   6.588   8.241 -0.1864  0.5564 -0.3041
11900SOL     OW36277   5.474   0.798   3.510  0.1819 -0.2519  0.2423
11900SOL    HW136278   5.551   0.743   3.495  0.0876 -0.2622 -0.2240
11900SOL    HW236279   5.500   0.857   3.580  0.8204  0.1154 -0.2897
11901SOL     OW36280   4.544   2.194   3.319  0.3859 -0.3636 -0.0146
11901SOL    HW136281   4.480   2.127   3.295  0.8817 -0.8511  0.0072
11901SOL    HW236282   4.586   2.159   3.398 -0.7790  0.9140  1.2439
11902SOL     OW36283   3.360   1.317   5.476  0.2321  0.7300  0.1903
11902SOL    HW136284   3.392   1.394   5.429  0.7918 -0.4732 -1.4947
11902SOL    HW236285   3.312   1.353   5.551  1.5458  2.6703  0.1667
11903SOL     OW36286   2.819   9.833   0.436  0.3068  0.5725 -0.0937
11903SOL    HW136287   2.737   9.878   0.414 -0.7684 -1.0039  0.5497
11903SOL    HW236288   2.818   9.827   0.531  0.3811 -0.8528 -0.1614
11904SOL     OW36289   4.783   1.994   7.172 -0.2565  0.2366  0.7701
11904SOL    HW136290   4.741   2.070   7.212 -1.5573  0.3458 -0.6857
11904SOL    HW236291   4.710   1.933   7.156  0.5501 -0.6876  0.5429
11905SOL     OW36292   6.490   7.242   5.594  0.0161 -0.1453  0.5145
11905SOL    HW136293   6.482   7.196   5.511  1.0477 -1.1051  0.9230
11905SOL    HW236294   6.462   7.332   5.575 -0.9871 -0.6637 -0.5484
11906SOL     OW36295   1.337   0.829   4.189  0.2713  0.1349 -0.0261
11906SOL    HW136296   1.418   0.788   4.160  1.1690  2.1859 -0.5433
11906SOL    HW236297   1.360   0.871   4.272 -0.7361 -0.6859  0.6977
11907SOL     OW36298   3.213   8.233   2.551  0.2599 -0.3128 -0.3261
11907SOL    HW136299   3.296   8.253   2.507  1.2653 -0.0756  1.5826
11907SOL    HW236300   3.239   8.185   2.630 -1.5705 -1.9017 -0.6224
11908SOL     OW36301   3.299   5.334   2.281 -0.2332 -0.4818  0.3879
11908SOL    HW136302   3.208   5.309   2.297 -0.2509 -0.8393 -0.2679
11908SOL    HW236303   3.341   5.327   2.367 -0.8277 -0.2926  0.6965
11909SOL     OW36304   3.481   6.986   0.168 -0.1937  0.1839  0.5839
11909SOL    HW136305   3.404   6.997   0.112 -0.0574 -0.7422  0.1985
11909SOL    HW236306   3.500   7.074   0.200 -1.1790  0.4869  0.3773
11910SOL     OW36307   2.676   0.442   1.943  0.7899 -0.0005 -0.2496
11910SOL    HW136308   2.619   0.368   1.921  0.8942 -0.5072  1.0920
11910SOL    HW236309   2.714   0.469   1.859  0.9033 -1.5938 -0.7373
11911SOL     OW36310   7.764   6.693   5.027 -0.3631  1.0352 -0.4185
11911SOL    HW136311   7.854   6.705   5.058 -0.8864  0.7809  1.2935
11911SOL    HW236312   7.735   6.612   5.067 -1.4876  1.2986 -0.6590
11912SOL     OW36313   3.169   2.924   9.510  0.2206  0.0614 -0.7243
11912SOL    HW136314   3.166   2.937   9.416 -0.2864  1.5855 -0.5251
11912SOL    HW236315   3.083   2.886   9.532  0.8249 -1.5622 -1.0077
11913SOL     OW36316   7.163   8.038   1.793  0.1513  0.0762 -0.0247
11913SOL    HW136317   7.217   7.974   1.747  1.3794  0.1306  1.2788
11913SOL    HW236318   7.223   8.110   1.814 -0.6796  0.6328  0.5246
11914SOL     OW36319   3.701   0.780   4.203  0.1884  0.0289 -0.2553
11914SOL    HW136320   3.707   0.716   4.131  0.3190 -0.7545  0.4386
11914SOL    HW236321   3.786   0.774   4.247 -0.4044 -0.5733  0.8491
11915SOL     OW36322   7.435   2.186   1.846 -0.0758 -0.1139  0.4284
11915SOL    HW136323   7.479   2.260   1.887  0.2333 -0.2789  0.4031
11915SOL    HW236324   7.377   2.152   1.913 -0.3031  0.2189  0.4030
11916SOL     OW36325   6.476   5.864   2.635  0.2739  0.4673  0.1200
11916SOL    HW136326   6.499   5.918   2.559 -0.2738 -0.4762 -0.7339
11916SOL    HW236327   6.386   5.836   2.619  0.5786 -0.7931  0.4803
11917SOL     OW36328   9.556   3.182   8.564 -0.1973 -0.0295 -0.6108
11917SOL    HW136329   9.494   3.134   8.617  0.7381 -1.1952 -0.5264
11917SOL    HW236330   9.572   3.125   8.488 -1.0950  1.3542 -1.9019
11918SOL     OW36331   4.570   4.088   9.592  0.0903  0.0346 -0.0926
11918SOL    HW136332   4.490   4.044   9.562 -0.6236 -0.1150  1.8521
11918SOL    HW236333   4.540   4.148   9.660  1.3934  1.6561 -0.8916
11919SOL     OW36334   9.266   3.390   4.845 -0.1116 -0.1998  0.8331
11919SOL    HW136335   9.200   3.321   4.858 -0.3070  0.0863  1.3824
11919SOL    HW236336   9.260   3.411   4.752 -1.5655  0.5804  1.0719
11920SOL     OW36337   9.808   6.067   0.209 -0.2825 -0.1890 -0.5168
11920SOL    HW136338   9.810   6.149   0.259 -0.0822  0.1735 -1.1021
11920SOL    HW236339   9.837   6.000   0.270 -0.9023  0.0990  0.1112
11921SOL     OW36340   1.390   9.412   0.083  0.0100 -1.0621  0.2138
11921SOL    HW136341   1.389   9.499   0.043 -0.7327 -0.9194  0.5256
11921SOL    HW236342   1.365   9.352   0.013 -1.4531 -0.7949  0.4858
11922SOL     OW36343   9.070   0.276   8.027 -0.1689 -0.6268 -0.3731
11922SOL    HW136344   9.146   0.302   7.976  1.3223 -3.6979  0.0746
11922SOL    HW236345   9.076   0.328   8.107  0.5838  0.2262 -0.9638
11923SOL     OW36346   5.898   7.064   2.336 -0.0847 -0.7103 -0.6886
11923SOL    HW136347   5.822   7.022   2.295 -1.1137  0.5348 -0.1192
11923SOL    HW236348   5.874   7.069   2.429  0.6417 -0.1607 -0.5274
11924SOL     OW36349   2.698   5.010   8.200  0.1967  0.1018 -0.1977
11924SOL    HW136350   2.751   5.087   8.182 -0.9706  1.4540  1.7833
11924SOL    HW236351   2.701   5.000   8.295 -1.7385 -0.7399 -0.1716
11925SOL     OW36352   9.571   8.247   6.841 -0.5772 -0.2681 -0.1784
11925SOL    HW136353   9.635   8.217   6.776  0.1557  0.9451 -0.0432
11925SOL    HW236354   9.524   8.168   6.867  0.8684 -1.1924 -0.2843
11926SOL     OW36355   1.492   8.721   3.397 -0.2197  0.6098  0.7187
11926SOL    HW136356   1.567   8.771   3.365  0.2705 -0.8888 -0.6421
11926SOL    HW236357   1.500   8.723   3.492  1.2409  0.9410  0.6084
11927SOL     OW36358   9.292   5.816   7.429  0.0599  0.2630 -0.2566
11927SOL    HW136359   9.342   5.878   7.483 -0.7838  0.7855 -0.0534
11927SOL    HW236360   9.303   5.732   7.473  1.0883  0.2857 -0.4437
11928SOL     OW36361   3.101   0.759   1.270 -0.1475 -0.3536  0.1187
11928SOL    HW136362   3.186   0.766   1.225  0.8468 -2.0885  1.5665
11928SOL    HW236363   3.103   0.827   1.336  0.1040 -0.3518  0.1102
11929SOL     OW36364   2.175   4.232   6.969  0.2034  0.0158 -0.1697
11929SOL    HW136365   2.165   4.264   7.059 -0.9786  1.7912 -0.8988
11929SOL    HW236366   2.244   4.287   6.931 -0.9195  0.8678 -1.0295
11930SOL     OW36367   1.956   3.750   4.881  0.0561 -0.5550 -0.2572
11930SOL    HW136368   1.992   3.687   4.818  0.6976  0.1745 -0.6362
11930SOL    HW236369   1.920   3.820   4.827  1.4211  0.5167  0.1768
11931SOL     OW36370   3.701   5.951   0.702 -0.2419  0.8737 -0.3778
11931SOL    HW136371   3.762   5.927   0.772 -2.1272  0.7213  1.3075
11931SOL    HW236372   3.661   6.033   0.733 -2.9390 -0.4735  0.0569
11932SOL     OW36373   1.909   4.818   5.166  0.0979 -0.4540 -0.2594
11932SOL    HW136374   1.999   4.811   5.135 -0.0651 -0.0874 -0.8365
11932SOL    HW236375   1.865   4.873   5.100 -0.1849  0.6153  0.7828
11933SOL     OW36376   9.585   7.858   5.693  0.7589  0.0891  0.2673
11933SOL    HW136377   9.589   7.942   5.647  1.2614  0.6985  1.3728
11933SOL    HW236378   9.675   7.825   5.691  0.7149 -0.0457  0.5109
11934SOL     OW36379   6.926   5.636   7.665 -0.4924 -0.8560  0.3443
11934SOL    HW136380   6.909   5.729   7.682 -0.3509 -1.0489  1.6350
11934SOL    HW236381   6.960   5.603   7.748  2.1474 -1.4577 -0.9095
11935SOL     OW36382   5.774   8.532   9.407 -0.2000  0.0717 -0.4476
11935SOL    HW136383   5.702   8.475   9.377 -0.0795 -0.5202  0.3494
11935SOL    HW236384   5.749   8.557   9.495  1.0117 -0.9407  0.2243
11936SOL     OW36385   2.443   7.057   3.723 -0.4117 -0.1379  0.1570
11936SOL    HW136386   2.510   6.995   3.693 -0.5605  0.5132 -1.6214
11936SOL    HW236387   2.360   7.014   3.703 -0.5139  0.5399 -0.9218
11937SOL     OW36388   2.871   8.188   5.584  0.3139 -0.2146 -1.0465
11937SOL    HW136389   2.804   8.239   5.628  2.5248  2.4450 -0.4991
11937SOL    HW236390   2.886   8.113   5.642  0.6659  1.3533  1.0062
11938SOL     OW36391   0.516   1.015   3.668 -0.2754 -0.0444 -0.7808
11938SOL    HW136392   0.552   0.931   3.640 -0.8680 -0.3494 -0.6367
11938SOL    HW236393   0.590   1.076   3.661  0.2528 -0.6481 -0.5373
11939SOL     OW36394   1.391   9.482   3.928 -0.4036  0.4387  0.0789
11939SOL    HW136395   1.475   9.465   3.971 -0.6580 -0.1274  0.3660
11939SOL    HW236396   1.399   9.571   3.893  0.3332  0.3664  0.0551
11940SOL     OW36397   1.392   6.390   0.516  0.4898 -0.0524 -0.0820
11940SOL    HW136398   1.333   6.315   0.523  0.0736  0.0802 -1.7132
11940SOL    HW236399   1.452   6.380   0.590 -0.0865 -1.5203  0.2278
11941SOL     OW36400   0.718   8.797   6.586 -0.0699  0.1568 -0.4262
11941SOL    HW136401   0.753   8.773   6.672  0.6105 -0.8692 -0.9699
11941SOL    HW236402   0.657   8.869   6.604 -1.1503 -1.0827  1.1157
11942SOL     OW36403   9.124   3.904   6.053  0.8436  0.5457 -0.0984
11942SOL    HW136404   9.146   3.828   5.998 -0.5744  0.4072 -0.5250
11942SOL    HW236405   9.032   3.921   6.033  0.2802  0.5073  2.2182
11943SOL     OW36406   5.848   4.475   4.811 -0.3582 -0.3132  0.1026
11943SOL    HW136407   5.890   4.451   4.894 -0.3657 -0.1716  0.1478
11943SOL    HW236408   5.797   4.397   4.786 -1.6845  0.2180  1.0637
11944SOL     OW36409   4.022   5.754   7.895  0.3447  0.4473  0.1463
11944SOL    HW136410   3.933   5.723   7.912 -0.0087  1.1264 -0.4313
11944SOL    HW236411   4.060   5.765   7.982 -1.8007  4.9360  0.8125
11945SOL     OW36412   9.207   8.442   0.905  0.1624 -0.2686  0.2201
11945SOL    HW136413   9.224   8.366   0.851  1.5151 -0.1063  0.3796
11945SOL    HW236414   9.243   8.419   0.991  0.7372  0.5875  0.2282
11946SOL     OW36415   9.281   9.575   9.598  0.7926 -0.4006  0.5713
11946SOL    HW136416   9.367   9.534   9.606  0.4643 -0.9287  1.6737
11946SOL    HW236417   9.299   9.669   9.591  1.4530 -0.4616  1.3145
11947SOL     OW36418   2.036   1.684   9.903  0.1284 -0.2649 -0.6092
11947SOL    HW136419   1.961   1.739   9.881  0.8986  0.7151 -0.8465
11947SOL    HW236420   2.068   1.651   9.819 -0.8982 -1.8800 -0.4057
11948SOL     OW36421   7.843   9.534   4.252  0.1026 -0.2529  0.0449
11948SOL    HW136422   7.787   9.603   4.289 -0.2162  0.3554 -1.4895
11948SOL    HW236423   7.848   9.555   4.159  2.0194 -0.9350 -0.0332
11949SOL     OW36424   1.580   1.725   3.588  0.2865  0.0845  0.1723
11949SOL    HW136425   1.536   1.775   3.656 -1.2232  1.6567 -1.8382
11949SOL    HW236426   1.629   1.790   3.538 -0.1492 -0.7097 -1.3400
11950SOL     OW36427   8.810   2.363   1.603 -0.3077  0.0112 -0.3992
11950SOL    HW136428   8.720   2.396   1.606 -1.1783 -2.0654 -1.4886
11950SOL    HW236429   8.806   2.279   1.648  1.4595  0.5346  0.8433
11951SOL     OW36430   6.459   5.676   9.908 -0.4120  0.3721 -0.9703
11951SOL    HW136431   6.384   5.624   9.936  0.5109 -0.3935  0.1693
11951SOL    HW236432   6.484   5.638   9.823 -0.5692 -0.1631 -0.7810
11952SOL     OW36433   7.779   4.085   7.237 -0.2298 -0.4100  0.1032
11952SOL    HW136434   7.830   4.160   7.266  0.1616 -0.2442 -0.9551
11952SOL    HW236435   7.708   4.123   7.185  1.6317 -0.7853 -3.0057
11953SOL     OW36436   2.256   1.756   6.553  0.0110  0.4588 -0.5920
11953SOL    HW136437   2.266   1.846   6.521 -0.9466  0.5501 -0.6596
11953SOL    HW236438   2.258   1.764   6.648 -0.0580  0.5449 -0.5979
11954SOL     OW36439   6.693   7.561   4.012 -0.2965 -0.1428  0.4413
11954SOL    HW136440   6.650   7.642   3.983 -1.2884 -0.7243  0.2396
11954SOL    HW236441   6.624   7.513   4.057  0.2175 -0.9927  0.3329
11955SOL     OW36442   1.211   5.988   9.033  0.3942 -0.3280 -0.2955
11955SOL    HW136443   1.230   6.067   9.084 -0.1337  0.2896 -1.0473
11955SOL    HW236444   1.268   5.921   9.071  0.7083  0.3626  0.4732
11956SOL     OW36445   8.554   7.784   9.995  0.5753  0.7276  0.4460
11956SOL    HW136446   8.477   7.733  10.017 -0.3094  2.4713  1.6644
11956SOL    HW236447   8.602   7.731   9.932 -0.9196 -0.9924  0.7025
11957SOL     OW36448   6.232   4.867   8.765 -0.4179 -0.4517 -0.0108
11957SOL    HW136449   6.300   4.927   8.735  1.9814 -2.4317  1.1895
11957SOL    HW236450   6.170   4.864   8.692  0.0794  2.3124 -0.6775
11958SOL     OW36451   0.956   0.756   6.196  1.0784  0.3374  0.3353
11958SOL    HW136452   0.910   0.693   6.251 -2.9515  2.2651 -0.4585
11958SOL    HW236453   0.942   0.723   6.106 -2.0805  2.6863 -0.1855
11959SOL     OW36454   7.789   2.829   4.262 -0.0620  0.7603 -0.3166
11959SOL    HW136455   7.856   2.764   4.285 -0.0497  0.3191 -1.5203
11959SOL    HW236456   7.835   2.913   4.265  0.2483  0.5815 -0.0097
11960SOL     OW36457   4.320   8.779   1.188  0.3234 -0.0975 -0.3961
11960SOL    HW136458   4.236   8.777   1.234  1.1137  0.0900  1.1164
11960SOL    HW236459   4.381   8.736   1.248  1.3686  0.0285 -1.3424
11961SOL     OW36460   6.080   1.248   9.861  0.0363 -0.0202  0.2618
11961SOL    HW136461   6.099   1.272   9.771 -1.2607 -0.2373 -0.0949
11961SOL    HW236462   6.018   1.314   9.891 -0.3237 -0.5263  0.6525
11962SOL     OW36463   9.443   0.214   4.535  0.4677 -0.3329 -0.0898
11962SOL    HW136464   9.439   0.306   4.508  0.1120 -0.5045 -0.6292
11962SOL    HW236465   9.451   0.217   4.630  2.2023  0.2961 -0.2202
11963SOL     OW36466   4.990   6.912   2.795 -0.1184  0.4149 -0.0849
11963SOL    HW136467   5.002   6.874   2.708  0.3279 -1.3341  0.6869
11963SOL    HW236468   4.905   6.955   2.791 -0.4865 -0.3690 -1.1539
11964SOL     OW36469   7.093   4.840   5.029  0.2361 -0.3927 -0.0448
11964SOL    HW136470   7.035   4.841   5.106  0.4278 -1.2628  0.1182
11964SOL    HW236471   7.064   4.764   4.978  1.0553 -0.6773 -0.0980
11965SOL     OW36472   8.268   2.174   1.695  0.5696  0.6389 -0.0443
11965SOL    HW136473   8.269   2.163   1.790  1.4433  0.9532 -0.0054
11965SOL    HW236474   8.201   2.241   1.679  0.9271  1.1228  0.4280
11966SOL     OW36475   4.707   1.998   0.872  0.0809 -0.2558 -0.7550
11966SOL    HW136476   4.787   1.953   0.844  0.8905  0.3589  0.4685
11966SOL    HW236477   4.723   2.090   0.852 -0.2781 -0.1138 -0.3977
11967SOL     OW36478   0.711   3.615   7.195  0.3968 -0.0110 -0.0796
11967SOL    HW136479   0.796   3.627   7.154 -0.0654  0.8372 -0.8268
11967SOL    HW236480   0.661   3.694   7.172 -1.4863 -1.6097 -1.9041
11968SOL     OW36481   5.435   7.013   9.256 -0.6797  0.0643 -0.1464
11968SOL    HW136482   5.475   6.927   9.253  1.1434  0.8254  0.9940
11968SOL    HW236483   5.411   7.026   9.348 -2.1301  0.2860 -0.5286
11969SOL     OW36484   3.656   4.539   7.725  0.0409 -0.0717 -0.4679
11969SOL    HW136485   3.695   4.626   7.741 -0.2298 -0.0492  0.0771
11969SOL    HW236486   3.564   4.558   7.704  0.0571 -0.2063 -0.6575
11970SOL     OW36487   7.626   4.969   3.215  0.2517  0.3508 -0.5562
11970SOL    HW136488   7.614   4.914   3.138  1.2037 -0.7683  0.0482
11970SOL    HW236489   7.689   5.035   3.188  1.2609 -0.5661 -0.5163
11971SOL     OW36490   3.999   6.908   7.869 -0.4806 -0.1593 -0.5701
11971SOL    HW136491   3.966   6.980   7.924  0.1595  0.9193 -1.5738
11971SOL    HW236492   4.050   6.854   7.930 -2.6748 -0.9912  0.6762
11972SOL     OW36493   8.226   2.975   9.197 -0.5234 -0.0601 -0.0972
11972SOL    HW136494   8.215   2.952   9.105 -0.4664 -0.1222 -0.0886
11972SOL    HW236495   8.180   2.906   9.244 -0.0331 -0.3657 -0.0593
11973SOL     OW36496   7.619   8.425   2.050 -0.0708 -0.2408  0.4635
11973SOL    HW136497   7.627   8.348   2.106 -0.3917 -0.7325 -0.1633
11973SOL    HW236498   7.581   8.392   1.969  0.1000  0.5208  0.0678
11974SOL     OW36499   9.256   3.866   9.432 -0.1184 -0.1152 -0.2714
11974SOL    HW136500   9.173   3.893   9.392  0.8222  0.8393 -1.6380
11974SOL    HW236501   9.252   3.903   9.520 -1.0490  0.1210 -0.3921
11975SOL     OW36502   0.003   7.023   5.891  0.0174  0.2166 -1.0339
11975SOL    HW136503   0.092   7.035   5.858  0.5978 -0.5401  0.1701
11975SOL    HW236504  -0.023   7.110   5.922  0.9800  0.1468  0.0603
11976SOL     OW36505   5.813   3.534   0.592 -0.3972 -0.2320  0.1183
11976SOL    HW136506   5.825   3.629   0.590  0.5525 -0.3466 -0.0130
11976SOL    HW236507   5.857   3.502   0.513  1.0227 -0.9420  1.1418
11977SOL     OW36508   1.368   6.855   4.307  0.9326  0.5965  0.0996
11977SOL    HW136509   1.394   6.764   4.298  0.1249  0.3297  0.4258
11977SOL    HW236510   1.286   6.862   4.258 -1.3130  0.1087  3.5183
11978SOL     OW36511   9.656   1.989   0.153 -0.0485 -0.0445 -0.4138
11978SOL    HW136512   9.647   2.014   0.061  0.1916 -0.9915 -0.6990
11978SOL    HW236513   9.637   1.895   0.155  1.3845 -0.3415  0.2731
11979SOL     OW36514   4.642   2.541   2.006 -0.3579  0.1061  0.4404
11979SOL    HW136515   4.643   2.528   2.101 -0.0335 -0.5112  0.3514
11979SOL    HW236516   4.732   2.529   1.979 -0.6464 -0.9792 -0.1076
11980SOL     OW36517   4.556   2.798   0.816  0.3320  0.6290  0.1333
11980SOL    HW136518   4.462   2.805   0.801  0.3697 -1.3267 -1.4503
11980SOL    HW236519   4.564   2.787   0.911 -1.1306 -0.2974  0.1862
11981SOL     OW36520   4.649   4.174   0.390  0.8237  0.6341 -0.0456
11981SOL    HW136521   4.718   4.116   0.422 -0.1065 -0.5815 -0.1903
11981SOL    HW236522   4.574   4.156   0.447  0.8596  2.6006  0.6965
11982SOL     OW36523   9.649   4.585   6.740  0.7400  0.1257 -0.3308
11982SOL    HW136524   9.626   4.619   6.827  0.0026 -0.6907 -0.1888
11982SOL    HW236525   9.672   4.663   6.689  0.2257  0.7195  0.3227
11983SOL     OW36526   5.240   3.378   3.835 -0.3126 -0.1228  0.1829
11983SOL    HW136527   5.185   3.336   3.770  0.1258 -2.0809  1.0012
11983SOL    HW236528   5.203   3.466   3.845 -2.7756 -1.0823  0.1244
11984SOL     OW36529   0.100   9.528   3.192  0.1832  0.5846  0.1749
11984SOL    HW136530   0.166   9.468   3.157 -0.8252 -0.1549 -0.5182
11984SOL    HW236531   0.099   9.601   3.130  1.1741  1.1874  0.8375
11985SOL     OW36532   5.674   0.873   1.755  0.0573  0.4621 -0.5811
11985SOL    HW136533   5.761   0.838   1.775 -0.0775  0.0019 -0.7832
11985SOL    HW236534   5.682   0.967   1.769 -0.1222  0.1604  2.0432
11986SOL     OW36535   7.435   4.895   0.432 -0.6561 -0.0468 -0.8255
11986SOL    HW136536   7.407   4.929   0.346 -4.3196 -1.7924 -0.5314
11986SOL    HW236537   7.500   4.828   0.411 -1.2138 -0.1841 -2.2561
11987SOL     OW36538   5.875   5.494   2.828 -0.3948 -0.7081  0.0568
11987SOL    HW136539   5.789   5.487   2.785 -0.1225 -1.2744 -0.4026
11987SOL    HW236540   5.854   5.507   2.920 -1.0702  2.8020 -0.4208
11988SOL     OW36541   7.702   9.456   3.543 -0.2662 -0.8241 -0.4487
11988SOL    HW136542   7.760   9.390   3.581  0.8823  0.7895  0.7844
11988SOL    HW236543   7.734   9.468   3.453 -1.4609 -2.9688 -1.2078
11989SOL     OW36544   9.309   1.368   7.209  0.0101  0.0974  0.4106
11989SOL    HW136545   9.229   1.366   7.156  0.2583  1.3045 -0.0495
11989SOL    HW236546   9.278   1.361   7.299 -0.5204 -0.6186  0.1853
11990SOL     OW36547   0.856   3.628   1.166 -0.4563  0.1653 -0.0249
11990SOL    HW136548   0.857   3.720   1.143 -1.9445  0.8662  2.3820
11990SOL    HW236549   0.948   3.606   1.182 -0.0469  1.0890 -1.0300
11991SOL     OW36550   5.552   3.200   5.867  0.3169  0.1335  0.5050
11991SOL    HW136551   5.553   3.190   5.771  0.6678 -0.6708  0.5809
11991SOL    HW236552   5.644   3.191   5.892 -0.0754 -3.3553  1.2281
11992SOL     OW36553   0.913   5.670   4.012 -0.2650  0.1905  0.2126
11992SOL    HW136554   0.904   5.674   3.917  3.8040 -0.2452 -0.3444
11992SOL    HW236555   0.880   5.755   4.042 -2.1679  0.1225 -1.4350
11993SOL     OW36556   3.982   4.092   2.282 -0.1567  0.2470 -0.1373
11993SOL    HW136557   3.915   4.066   2.218 -1.2311  0.4409  0.8754
11993SOL    HW236558   3.933   4.134   2.352  1.0328  0.3252  0.6766
11994SOL     OW36559   5.687   8.092   7.867  0.0838 -0.2524 -0.8084
11994SOL    HW136560   5.612   8.037   7.887 -1.4169  2.0792  0.3234
11994SOL    HW236561   5.677   8.114   7.774 -0.1062 -0.6984 -0.8940
11995SOL     OW36562   4.963   8.439   2.079  0.0947 -0.1239 -0.1731
11995SOL    HW136563   5.053   8.461   2.103  1.2689 -2.8014 -1.6824
11995SOL    HW236564   4.930   8.388   2.153  0.0681  0.2008  0.0439
11996SOL     OW36565   3.798   5.701   4.639 -0.4948  0.1530  0.0501
11996SOL    HW136566   3.785   5.639   4.568  3.3268 -1.4841  0.5432
11996SOL    HW236567   3.867   5.759   4.608 -0.4549  0.9590  1.5160
11997SOL     OW36568   3.914   1.317   4.095  0.1322  0.3373  0.1008
11997SOL    HW136569   3.820   1.304   4.109 -0.5193  3.1464 -0.9898
11997SOL    HW236570   3.940   1.246   4.036 -1.9657  0.9903 -1.7289
11998SOL     OW36571   8.852   6.294   1.917 -0.5372  0.2687 -0.1004
11998SOL    HW136572   8.922   6.246   1.961 -0.3385  0.8912  0.2797
11998SOL    HW236573   8.776   6.285   1.975 -0.1472  1.4887  0.6468
11999SOL     OW36574   5.391   6.819   7.532  0.1014 -0.1338  0.5011
11999SOL    HW136575   5.390   6.726   7.554  0.6321  0.2941  2.5501
11999SOL    HW236576   5.422   6.862   7.612  1.0548  1.7010 -0.7885
12000SOL     OW36577   5.398   2.678   5.227  0.1054 -0.0647  0.0491
12000SOL    HW136578   5.319   2.676   5.172 -0.1758 -0.1164  0.4491
12000SOL    HW236579   5.420   2.586   5.241  0.8040 -0.0463 -0.8559
12001SOL     OW36580   7.516   2.074   4.513 -0.0333  0.1370  0.1475
12001SOL    HW136581   7.442   2.094   4.455  0.5305  0.4793 -0.4672
12001SOL    HW236582   7.591   2.065   4.454  0.1384 -1.7652  0.6029
12002SOL     OW36583   3.596   4.713   7.066  0.3267  0.0906  0.8412
12002SOL    HW136584   3.596   4.789   7.008  0.0870 -0.5280  0.0187
12002SOL    HW236585   3.655   4.738   7.137  0.0900  1.1258  0.6937
12003SOL     OW36586   3.343   9.314   5.637 -0.7148  0.0942  0.0991
12003SOL    HW136587   3.331   9.274   5.551  0.5803 -0.3917  0.1209
12003SOL    HW236588   3.343   9.408   5.619  1.3368 -0.0119 -0.7480
12004SOL     OW36589   6.123   0.087   6.217  0.1916  0.0707 -0.1282
12004SOL    HW136590   6.205   0.099   6.266 -0.2366  1.8356  0.1926
12004SOL    HW236591   6.139   0.130   6.133 -0.1612 -0.2241 -0.3484
12005SOL     OW36592   5.245   4.314   6.202  0.3741 -0.5832 -0.0459
12005SOL    HW136593   5.320   4.367   6.173  1.6598 -2.0940  0.3980
12005SOL    HW236594   5.185   4.316   6.128 -0.5489  3.0147  0.5983
12006SOL     OW36595   6.532   5.839   5.647  0.2999 -0.2281  0.6588
12006SOL    HW136596   6.492   5.869   5.729 -0.9794  0.3005 -0.1254
12006SOL    HW236597   6.539   5.744   5.657  0.8786 -0.0950  1.6720
12007SOL     OW36598   4.542   4.529   4.386  0.4380  0.1683  0.5302
12007SOL    HW136599   4.452   4.505   4.411  0.3614  1.8083  2.0416
12007SOL    HW236600   4.595   4.502   4.460  0.6352  2.4901  1.3117
12008SOL     OW36601   1.664   6.637   7.212  0.2309 -0.6026 -0.5592
12008SOL    HW136602   1.699   6.724   7.195  0.7887 -0.9958 -1.5267
12008SOL    HW236603   1.570   6.649   7.221  0.3242  0.1205 -0.5237
12009SOL     OW36604   6.268   6.362   1.175 -0.3255 -0.0866 -0.4389
12009SOL    HW136605   6.311   6.303   1.113 -0.8469  0.1052 -0.9968
12009SOL    HW236606   6.179   6.328   1.182  0.1543 -1.0866  1.4860
12010SOL     OW36607   9.369   8.206   5.965  0.3156  0.4684 -0.0090
12010SOL    HW136608   9.337   8.121   5.994  1.4834 -0.4539 -1.2859
12010SOL    HW236609   9.446   8.223   6.019 -1.3239  1.9678  2.0046
12011SOL     OW36610   7.743   4.280   1.220  0.1252 -0.0926 -0.7850
12011SOL    HW136611   7.800   4.294   1.296  0.5790  0.3774 -1.2066
12011SOL    HW236612   7.726   4.368   1.187 -1.2724 -0.1845 -0.3635
12012SOL     OW36613   1.901   2.847   2.371  0.4425  0.2473  0.2850
12012SOL    HW136614   1.847   2.909   2.421 -0.1854  0.2403 -0.3563
12012SOL    HW236615   1.845   2.770   2.361  1.0370 -0.2355  0.6519
12013SOL     OW36616   8.992   7.397   1.907  0.3126  0.8677  0.4945
12013SOL    HW136617   9.016   7.317   1.953 -2.1546 -0.3399 -0.1598
12013SOL    HW236618   8.991   7.465   1.975  0.9359  0.0200  1.3593
12014SOL     OW36619   8.214   4.329   0.326 -0.4482 -0.0059  0.8247
12014SOL    HW136620   8.165   4.412   0.321  0.5724  0.5544 -0.5697
12014SOL    HW236621   8.151   4.263   0.296 -0.8881  0.4483  0.7349
12015SOL     OW36622   2.655   7.914   2.869 -0.0216 -0.4964  0.1664
12015SOL    HW136623   2.651   7.914   2.965 -0.9419 -0.2748  0.1352
12015SOL    HW236624   2.653   7.822   2.845  0.4706 -0.5627  0.3657
12016SOL     OW36625   9.090   0.297   1.393  0.2121 -0.3160 -0.5273
12016SOL    HW136626   9.112   0.220   1.445 -1.0504 -0.1287  0.3079
12016SOL    HW236627   8.995   0.295   1.385 -0.1796  2.5265  1.7635
12017SOL     OW36628   9.109   6.942   1.987  0.2015  0.3218 -0.4003
12017SOL    HW136629   9.083   6.921   1.897 -0.6511  1.6427 -0.4970
12017SOL    HW236630   9.025   6.954   2.033  0.6354  0.5442  0.3443
12018SOL     OW36631   2.963   0.952   8.549 -0.3054 -0.2892  0.0110
12018SOL    HW136632   2.943   0.903   8.469  1.8839  1.1484 -1.5180
12018SOL    HW236633   2.916   1.034   8.538  1.6630  0.7826 -0.9003
12019SOL     OW36634   6.633   2.264   7.798 -0.4347 -0.0904  0.2868
12019SOL    HW136635   6.681   2.254   7.880 -0.4552  1.6706  0.5561
12019SOL    HW236636   6.548   2.223   7.814  0.0685 -1.0218  0.6444
12020SOL     OW36637   7.659   6.534   0.031 -0.1448  0.0185 -0.1485
12020SOL    HW136638   7.608   6.467   0.077 -0.0567 -0.5552 -0.8702
12020SOL    HW236639   7.619   6.540  -0.056 -1.2281  2.1146  0.4161
12021SOL     OW36640   4.891   8.426   5.914 -0.2375 -0.2176 -0.1720
12021SOL    HW136641   4.973   8.458   5.950 -0.3755  0.5071 -0.4805
12021SOL    HW236642   4.912   8.400   5.824  0.0401 -1.7356  0.3015
12022SOL     OW36643   4.732   6.984   9.579 -0.2147 -0.6243 -0.7325
12022SOL    HW136644   4.775   6.981   9.493 -0.9652 -1.3000 -1.0981
12022SOL    HW236645   4.641   7.004   9.559 -0.1979  0.2007 -0.0070
12023SOL     OW36646   7.277   7.514   6.122  0.1605 -0.5714  0.5602
12023SOL    HW136647   7.329   7.434   6.133  1.1302 -0.4028 -2.1892
12023SOL    HW236648   7.191   7.491   6.159  0.7873 -2.4340  1.0041
12024SOL     OW36649   8.282   0.269   0.393  0.1300 -0.1442 -0.3334
12024SOL    HW136650   8.280   0.180   0.357  1.5753 -0.3621  0.0448
12024SOL    HW236651   8.203   0.311   0.358 -0.9199 -1.7548 -0.0080
12025SOL     OW36652   5.596   1.057   9.362 -0.2754  0.3172 -0.7554
12025SOL    HW136653   5.527   1.104   9.409 -0.6892 -0.6937 -0.3259
12025SOL    HW236654   5.586   0.966   9.389  0.3541 -0.0683 -1.7509
12026SOL     OW36655   3.197   4.224   2.323  0.1960  0.4172  0.2072
12026SOL    HW136656   3.228   4.137   2.347  0.0647 -0.0493 -1.2324
12026SOL    HW236657   3.228   4.281   2.394  2.1091 -0.4431  0.1189
12027SOL     OW36658   6.228   5.985   4.223  0.4733 -0.0429 -0.5229
12027SOL    HW136659   6.323   6.000   4.215  0.7630 -0.9897  0.8439
12027SOL    HW236660   6.221   5.908   4.279 -1.1285  1.2664  1.1923
12028SOL     OW36661   4.559   0.536   2.344  0.1022 -0.7424  0.3365
12028SOL    HW136662   4.626   0.590   2.302  0.4164 -1.5960 -0.2956
12028SOL    HW236663   4.560   0.454   2.294  0.1180 -1.5936  1.6890
12029SOL     OW36664   0.645   3.276   8.739  0.4730  0.3860  0.1107
12029SOL    HW136665   0.596   3.206   8.695  0.5854  0.8223 -0.7320
12029SOL    HW236666   0.643   3.349   8.678  1.9058  0.5235  0.1894
12030SOL     OW36667   7.047   2.335   7.195 -0.3121 -0.1790  0.2133
12030SOL    HW136668   7.001   2.251   7.202  0.8941 -0.7444  2.3913
12030SOL    HW236669   7.060   2.362   7.286  0.3227  1.8312 -0.4318
12031SOL     OW36670   4.431   9.539   9.535 -0.1706 -0.2527  0.0479
12031SOL    HW136671   4.360   9.599   9.560  0.7099  1.8489 -2.0684
12031SOL    HW236672   4.480   9.526   9.616 -0.5739  1.7238  0.6764
12032SOL     OW36673   9.694   0.500   9.472 -0.1311  0.1403 -0.7222
12032SOL    HW136674   9.606   0.538   9.468 -0.0191  0.5996  0.6682
12032SOL    HW236675   9.745   0.563   9.523  1.1712  0.1650 -2.0064
12033SOL     OW36676   4.642   3.581   2.456  0.4882  0.1316 -0.2362
12033SOL    HW136677   4.687   3.497   2.461 -0.7210 -0.4559  2.1386
12033SOL    HW236678   4.587   3.583   2.534 -2.8835  1.2024 -2.4320
12034SOL     OW36679   9.268   2.561   9.145  0.2984 -0.2650  0.0928
12034SOL    HW136680   9.327   2.520   9.209  1.4544  0.4257 -0.4987
12034SOL    HW236681   9.204   2.609   9.198 -0.6271 -2.1488  0.7855
12035SOL     OW36682   2.793   9.046   6.520  0.7375 -0.0836 -0.0168
12035SOL    HW136683   2.860   9.064   6.586  1.1409  1.3275 -0.7709
12035SOL    HW236684   2.710   9.058   6.565  1.0106  1.2136  0.1668
12036SOL     OW36685   2.446   4.816   9.203  0.2596 -0.1846 -0.1176
12036SOL    HW136686   2.351   4.823   9.214  0.2464 -0.0648 -0.3035
12036SOL    HW236687   2.474   4.905   9.179  0.2454 -0.5067 -1.4007
12037SOL     OW36688   1.648   3.580   7.433 -0.1802  0.8458  0.3538
12037SOL    HW136689   1.633   3.488   7.454  1.5067  0.9211  2.2502
12037SOL    HW236690   1.562   3.614   7.411 -0.9368 -1.0307  0.2431
12038SOL     OW36691   6.360   7.244   0.528 -0.5508 -0.0491  0.0242
12038SOL    HW136692   6.350   7.266   0.621  0.2874 -0.9650  0.3467
12038SOL    HW236693   6.321   7.318   0.481 -0.8520  0.4903  1.1022
12039SOL     OW36694   4.259   4.441   3.027  0.2280 -0.2747  0.3314
12039SOL    HW136695   4.207   4.445   3.108 -0.7106  0.0708 -0.2703
12039SOL    HW236696   4.199   4.471   2.959  1.6862  1.7569 -0.1761
12040SOL     OW36697   4.525   3.263   9.600  0.9684 -0.1680 -0.1731
12040SOL    HW136698   4.437   3.247   9.634  0.7008  0.4157 -0.5607
12040SOL    HW236699   4.510   3.305   9.515  1.6256 -1.0920 -0.7523
12041SOL     OW36700   0.819   8.535   2.312 -0.8265 -0.3837 -0.3223
12041SOL    HW136701   0.879   8.462   2.327  0.0826  0.2383 -0.8568
12041SOL    HW236702   0.836   8.595   2.384  0.3544  0.5304 -1.3229
12042SOL     OW36703   9.509   8.867   2.376  0.4186 -0.1343  0.3082
12042SOL    HW136704   9.511   8.775   2.350  2.1001 -0.2554  0.7174
12042SOL    HW236705   9.571   8.872   2.449  2.3824  1.7792 -1.3747
12043SOL     OW36706   0.495   4.091   0.981 -0.6615  0.7893  0.0295
12043SOL    HW136707   0.435   4.152   1.024 -1.6770  0.9608 -1.5634
12043SOL    HW236708   0.447   4.008   0.979  0.5258 -0.0017  1.7598
12044SOL     OW36709   4.627   5.476   1.762 -0.3837 -0.1085 -0.2555
12044SOL    HW136710   4.637   5.381   1.770  0.6775  0.0647  0.8734
12044SOL    HW236711   4.535   5.493   1.785 -0.5035 -0.8385 -0.1733
12045SOL     OW36712   6.539   2.013   0.322 -0.0340  0.2239  0.0313
12045SOL    HW136713   6.471   1.949   0.301 -0.0669 -0.1867  1.3438
12045SOL    HW236714   6.574   2.039   0.237 -2.4893  1.1909 -0.7714
12046SOL     OW36715   5.843   1.907   3.599  0.4088 -0.2383 -0.3056
12046SOL    HW136716   5.914   1.875   3.544  0.0405 -0.8420 -0.4474
12046SOL    HW236717   5.792   1.965   3.541 -1.2981 -2.6261 -1.3889
12047SOL     OW36718   3.953   9.623   1.639 -0.0144 -0.0207  0.1976
12047SOL    HW136719   4.002   9.660   1.713  2.7086  0.0861 -1.5292
12047SOL    HW236720   3.953   9.693   1.574 -1.0281 -0.6513 -0.5006
12048SOL     OW36721   7.579   2.490   6.461  0.1810  0.1976 -0.2589
12048SOL    HW136722   7.622   2.571   6.486  0.2981 -0.4465  1.8864
12048SOL    HW236723   7.604   2.428   6.530 -2.3286 -0.8024 -0.1346
12049SOL     OW36724   0.884   6.321   1.424 -0.1799 -0.7592 -0.1994
12049SOL    HW136725   0.913   6.249   1.367 -2.2976 -1.7521 -0.1374
12049SOL    HW236726   0.842   6.277   1.498  0.6293  0.5545  1.0799
12050SOL     OW36727   8.904   8.364   9.421 -0.2937 -0.1380 -0.1236
12050SOL    HW136728   8.911   8.448   9.377 -2.3613 -0.3683 -1.0261
12050SOL    HW236729   8.987   8.354   9.468  1.3227  0.9256 -2.5407
12051SOL     OW36730   7.012   2.733   7.445  0.1162  0.2312  0.0069
12051SOL    HW136731   7.009   2.791   7.520  0.7693 -0.6682  0.7578
12051SOL    HW236732   7.027   2.791   7.370  1.4439  0.9929  0.8133
12052SOL     OW36733   8.020   8.349   4.488 -0.5317  0.1923  0.1771
12052SOL    HW136734   8.001   8.425   4.433  1.4566  1.1894  0.7744
12052SOL    HW236735   8.098   8.310   4.449 -0.3712 -0.3617  1.0263
12053SOL     OW36736   4.664   0.705   9.191 -0.0423  0.7024 -0.3716
12053SOL    HW136737   4.635   0.652   9.265 -0.5572  0.4335 -0.7623
12053SOL    HW236738   4.611   0.675   9.117  0.9950  0.4383 -1.0327
12054SOL     OW36739   3.963   2.573   6.907  0.6602  0.3324 -0.4401
12054SOL    HW136740   3.882   2.587   6.858  0.9597 -0.7585 -1.2744
12054SOL    HW236741   4.032   2.606   6.850  0.8513  0.9947  0.1501
12055SOL     OW36742   9.956   5.740   7.547 -0.2021  0.3260  0.9355
12055SOL    HW136743   9.955   5.696   7.631  0.5183  0.4176  0.9948
12055SOL    HW236744  10.033   5.796   7.550  0.1944 -0.1500 -0.0326
12056SOL     OW36745   2.077   9.283   1.679 -0.3935  0.1200  0.2554
12056SOL    HW136746   2.125   9.351   1.727  3.2752 -1.3675 -0.9774
12056SOL    HW236747   2.023   9.240   1.745  1.0269  1.0346  2.1008
12057SOL     OW36748   3.277   4.603   4.198 -0.3743 -0.1393 -0.3400
12057SOL    HW136749   3.196   4.579   4.243  0.4411  0.0496  1.3139
12057SOL    HW236750   3.277   4.699   4.199 -1.3467 -0.0582 -2.6883
12058SOL     OW36751   9.185   0.389   6.072  0.1752  0.8284  0.0920
12058SOL    HW136752   9.169   0.387   5.978  1.3297  1.6597 -0.1442
12058SOL    HW236753   9.195   0.482   6.093  2.6631  0.5410  0.5027
12059SOL     OW36754   8.889   0.571   8.996 -0.6740  0.1373 -0.1556
12059SOL    HW136755   8.803   0.579   9.037 -1.4106 -2.2085 -1.0992
12059SOL    HW236756   8.951   0.590   9.067 -1.9442 -0.0888  1.0598
12060SOL     OW36757   4.050   8.063   8.838 -0.0011 -0.0125  0.5102
12060SOL    HW136758   4.090   8.058   8.925 -1.9993 -0.5768  1.4421
12060SOL    HW236759   4.085   8.145   8.801  2.1324 -0.5601  1.1355
12061SOL     OW36760   1.079   6.840   4.152 -0.4561 -0.1232 -1.2400
12061SOL    HW136761   1.034   6.906   4.205  1.1219  0.0574 -0.0593
12061SOL    HW236762   1.110   6.888   4.075 -0.7338  0.1392 -1.1923
12062SOL     OW36763   9.983   9.710   6.651  0.1949  0.1889 -0.0952
12062SOL    HW136764   9.892   9.735   6.638 -0.1680 -0.7156  0.5786
12062SOL    HW236765  10.029   9.745   6.575 -0.8487 -0.0153 -0.8323
12063SOL     OW36766   9.832   8.091   0.882  0.2207 -0.0574 -0.8433
12063SOL    HW136767   9.883   8.010   0.879  1.9336  0.9134  0.4359
12063SOL    HW236768   9.880   8.152   0.826 -1.4609 -0.0869 -2.3998
12064SOL     OW36769   6.601   6.012   8.857  0.1219 -0.1503  0.2644
12064SOL    HW136770   6.672   6.032   8.918  0.3973 -0.7317  0.1376
12064SOL    HW236771   6.530   6.071   8.883  0.6241  0.3862  0.4319
12065SOL     OW36772   4.636   5.906   1.242  0.1314  0.1690 -0.5890
12065SOL    HW136773   4.591   5.848   1.304 -0.3928  2.2179  1.0398
12065SOL    HW236774   4.580   5.982   1.234  1.7929  1.4079 -1.0150
12066SOL     OW36775   4.358   3.899   0.226 -0.6395  0.1483 -0.1599
12066SOL    HW136776   4.279   3.938   0.188 -1.2681 -0.8591  0.0826
12066SOL    HW236777   4.325   3.836   0.290  0.3729 -0.0047  0.2312
12067SOL     OW36778   4.521   2.630   3.175 -0.7785  0.5320  0.0548
12067SOL    HW136779   4.508   2.722   3.152 -1.9738  0.6509  1.0916
12067SOL    HW236780   4.459   2.614   3.247 -1.8732 -1.5505 -1.2559
12068SOL     OW36781   6.666   3.412   4.505  0.5933  0.6125 -0.2155
12068SOL    HW136782   6.582   3.368   4.493  0.8700  0.1381 -0.3997
12068SOL    HW236783   6.651   3.471   4.579  0.3382 -0.0823  0.2959
12069SOL     OW36784   7.380   7.065   6.938  0.1880  0.1493 -0.3052
12069SOL    HW136785   7.449   7.032   6.995  0.5000 -0.5194 -1.0471
12069SOL    HW236786   7.400   7.158   6.927  0.5166  0.1304  0.1153
12070SOL     OW36787   8.135   1.146   0.548 -0.4336  0.2065  0.1564
12070SOL    HW136788   8.068   1.081   0.527 -1.6801  0.6667  2.4507
12070SOL    HW236789   8.090   1.230   0.535 -0.1672  0.5249  1.2503
12071SOL     OW36790   4.453   7.430   9.948  0.3363 -0.0421 -0.8069
12071SOL    HW136791   4.429   7.495  10.013  1.3468 -0.8051  0.3687
12071SOL    HW236792   4.372   7.411   9.900 -0.6866 -0.2752  0.9535
12072SOL     OW36793   2.507   1.975   6.249  0.0101 -0.1059 -0.0051
12072SOL    HW136794   2.473   1.938   6.168  0.3133 -0.9609  0.2447
12072SOL    HW236795   2.602   1.974   6.239  0.0290  1.2704 -0.2653
12073SOL     OW36796   7.473   4.880   1.786  0.4841 -0.1005  0.0486
12073SOL    HW136797   7.498   4.972   1.799 -0.6837  0.1292  0.8792
12073SOL    HW236798   7.379   4.878   1.808  0.7775 -1.7420  1.3292
12074SOL     OW36799   1.267   3.311   2.524  0.3851  0.5077 -0.0643
12074SOL    HW136800   1.179   3.343   2.542  0.3491  1.5690 -1.8851
12074SOL    HW236801   1.269   3.299   2.429  2.4070  1.2110 -0.1601
12075SOL     OW36802   3.349   3.815   2.169  0.2405  0.3425  0.4934
12075SOL    HW136803   3.360   3.752   2.240 -1.6800  0.5706  1.0714
12075SOL    HW236804   3.434   3.858   2.160  0.4421  0.5621  2.8985
12076SOL     OW36805   3.215   8.203   6.351 -0.3909 -0.1619  0.0448
12076SOL    HW136806   3.133   8.228   6.308 -0.0396 -0.9309 -1.1113
12076SOL    HW236807   3.284   8.227   6.289  0.1485 -1.0454  0.2849
12077SOL     OW36808   3.298   9.540   3.668 -0.1819 -0.7399  0.0365
12077SOL    HW136809   3.333   9.459   3.706  0.1070 -0.7057 -0.1535
12077SOL    HW236810   3.285   9.598   3.743 -0.4828 -0.9952  0.1845
12078SOL     OW36811   9.307   6.993   2.208 -0.3542 -0.0997  0.3254
12078SOL    HW136812   9.299   7.026   2.297  0.2031 -0.7989  0.6508
12078SOL    HW236813   9.221   7.007   2.169 -0.9560 -0.7971  1.3381
12079SOL     OW36814   9.523   8.563   3.780  0.3680  0.1351 -0.0267
12079SOL    HW136815   9.442   8.607   3.753 -0.1451 -1.0912 -0.5652
12079SOL    HW236816   9.493   8.479   3.816  1.2741  0.4016  1.4448
12080SOL     OW36817   6.342   3.429   4.454  0.0255  0.3219  0.0837
12080SOL    HW136818   6.300   3.391   4.530 -0.4243  1.8726  0.6564
12080SOL    HW236819   6.350   3.522   4.475  2.0516  0.4057 -0.7774
12081SOL     OW36820   7.916   8.331   8.955  0.1720 -0.1501  0.1662
12081SOL    HW136821   7.972   8.254   8.966 -0.7670 -0.6675  1.6173
12081SOL    HW236822   7.867   8.336   9.037 -0.4063  1.5022 -0.2534
12082SOL     OW36823   2.452   9.703   1.352  0.0034  0.7730  0.4725
12082SOL    HW136824   2.357   9.720   1.352  0.2835  2.8889  2.4304
12082SOL    HW236825   2.459   9.608   1.347 -2.2495  0.5267  0.7886
12083SOL     OW36826   7.272   7.253   5.938  0.5409 -0.5031 -0.1114
12083SOL    HW136827   7.337   7.257   6.008  1.6196 -0.9875 -1.0443
12083SOL    HW236828   7.232   7.167   5.947 -0.2674 -0.0588  0.6971
12084SOL     OW36829   1.586   1.999   2.826  0.7532 -0.2127  0.3326
12084SOL    HW136830   1.499   2.007   2.866 -0.0970 -1.4919 -1.1529
12084SOL    HW236831   1.636   1.948   2.889  0.7223  1.2461  1.5934
12085SOL     OW36832   7.855   4.153   4.859 -0.4670 -0.0858  0.3090
12085SOL    HW136833   7.796   4.094   4.812 -0.2515 -1.5025  1.7663
12085SOL    HW236834   7.806   4.181   4.936  1.1894 -2.5277  2.4018
12086SOL     OW36835   8.665   7.718   4.450  0.1323  0.4226  0.0903
12086SOL    HW136836   8.709   7.803   4.451  0.7924  0.1378 -1.6112
12086SOL    HW236837   8.734   7.655   4.472 -0.0978  0.2247  0.2521
12087SOL     OW36838   6.685   6.153   6.864 -0.5447  0.3262  0.3397
12087SOL    HW136839   6.724   6.068   6.882 -2.0952 -0.1708  1.5146
12087SOL    HW236840   6.703   6.169   6.771 -0.2143 -1.2411  0.1152
12088SOL     OW36841   5.393   3.091   7.981 -0.7018 -0.6103  0.2149
12088SOL    HW136842   5.438   3.006   7.975  0.5936  0.0339  0.3606
12088SOL    HW236843   5.300   3.069   7.979 -0.3968 -2.0443  0.3616
12089SOL     OW36844   5.006   1.643   1.502 -0.2640 -0.1658 -0.0765
12089SOL    HW136845   4.947   1.698   1.553 -0.2245  0.5315 -0.7709
12089SOL    HW236846   4.952   1.608   1.431  0.1647  0.5424 -0.7661
12090SOL     OW36847   0.569   6.093   9.428  0.4015  0.3697 -0.3250
12090SOL    HW136848   0.607   6.180   9.419 -0.3450  0.6252 -1.1100
12090SOL    HW236849   0.616   6.039   9.364  0.5798  0.2844 -0.1252
12091SOL     OW36850   7.048   4.420   2.437  0.3524  0.0857  0.0423
12091SOL    HW136851   7.132   4.400   2.396  0.4729  1.3919 -0.4068
12091SOL    HW236852   7.033   4.513   2.417 -1.8606 -0.4431 -1.1137
12092SOL     OW36853   4.816   2.977   6.447 -0.3072 -0.7220  0.2384
12092SOL    HW136854   4.832   3.012   6.534  0.6660  0.6285 -0.4405
12092SOL    HW236855   4.724   2.996   6.429 -0.1663  0.2028  0.4587
12093SOL     OW36856   8.534   3.294   1.434 -0.3210  0.2052  0.1888
12093SOL    HW136857   8.624   3.309   1.461 -0.5015  0.6321  0.5660
12093SOL    HW236858   8.519   3.357   1.363  0.2005 -1.0166 -1.0412
12094SOL     OW36859   6.694   6.710   3.121 -0.1592 -0.1267 -0.1187
12094SOL    HW136860   6.703   6.621   3.088  0.9269 -0.0586 -0.0443
12094SOL    HW236861   6.767   6.721   3.182 -0.7163  0.5668  0.4522
12095SOL     OW36862   9.080   8.630   9.032 -0.4186  0.5555  0.0521
12095SOL    HW136863   9.148   8.659   8.970 -0.2011 -1.1736 -0.5936
12095SOL    HW236864   9.005   8.687   9.014 -0.1985  0.3983 -1.4963
12096SOL     OW36865   1.778   0.261   8.914  0.6897 -0.2491  0.0490
12096SOL    HW136866   1.860   0.278   8.867  0.4803  0.5581 -0.0499
12096SOL    HW236867   1.792   0.177   8.957  1.2062 -0.5850 -0.7611
12097SOL     OW36868   0.182   4.754   4.813  0.1392  0.2175 -0.6515
12097SOL    HW136869   0.150   4.830   4.763  1.0818  0.8857 -0.2765
12097SOL    HW236870   0.192   4.786   4.902  2.9517  0.4465 -0.9517
12098SOL     OW36871   7.192   0.275   4.987  0.9532 -0.4923  0.0169
12098SOL    HW136872   7.216   0.266   4.895  1.8325  1.9359 -0.0617
12098SOL    HW236873   7.254   0.219   5.034  2.0182  0.0498 -0.7193
12099SOL     OW36874   9.364   3.502   7.694  0.6958  0.4365  0.2973
12099SOL    HW136875   9.271   3.502   7.715  0.3006  1.2096 -1.3064
12099SOL    HW236876   9.369   3.464   7.607  2.3408 -3.3647  1.8186
12100SOL     OW36877   5.332   4.679   5.565 -0.0760 -0.3694 -0.1360
12100SOL    HW136878   5.348   4.618   5.493  0.3271 -0.0638 -0.3090
12100SOL    HW236879   5.419   4.702   5.597 -0.2629 -1.1343  0.9988
12101SOL     OW36880   2.270   4.378   6.105  0.3352  0.1934  0.0959
12101SOL    HW136881   2.266   4.331   6.021 -2.1951 -0.4316  0.4812
12101SOL    HW236882   2.212   4.453   6.093  0.5147  0.5007  1.0823
12102SOL     OW36883   5.962   0.323   9.003  0.1873  0.0170 -0.9065
12102SOL    HW136884   6.018   0.340   9.079  0.0018 -1.9437 -0.2807
12102SOL    HW236885   6.022   0.322   8.929  0.8659 -1.0758 -0.3687
12103SOL     OW36886   5.826   4.438   3.498 -0.4884 -0.4359  0.2068
12103SOL    HW136887   5.888   4.420   3.569  0.7282 -0.8216 -0.8956
12103SOL    HW236888   5.877   4.489   3.435 -1.2535 -0.8964 -0.8112
12104SOL     OW36889   9.550   2.714   8.424 -0.2270  0.5354 -0.3435
12104SOL    HW136890   9.633   2.709   8.472  0.0345 -3.8624 -0.8854
12104SOL    HW236891   9.485   2.736   8.491  0.6400 -1.7624  1.3831
12105SOL     OW36892   3.434   2.584   4.834  0.5342 -0.2626 -0.2481
12105SOL    HW136893   3.525   2.576   4.806  0.1970  0.5587 -1.7017
12105SOL    HW236894   3.436   2.646   4.907  1.4454 -2.5062  1.7763
12106SOL     OW36895   8.412   3.446   4.672 -0.2938  0.0636  0.1677
12106SOL    HW136896   8.483   3.423   4.732  0.6221  0.5212 -0.7201
12106SOL    HW236897   8.452   3.443   4.585 -2.0101 -2.2652 -0.6253
12107SOL     OW36898   0.851   4.522   5.875 -0.0166 -0.6564 -0.1686
12107SOL    HW136899   0.888   4.521   5.963 -1.2991 -0.6891  0.3898
12107SOL    HW236900   0.918   4.566   5.822  0.2857  0.4391  1.0464
12108SOL     OW36901   8.789   6.491   5.775  0.5836  0.1193  0.3355
12108SOL    HW136902   8.737   6.506   5.853 -1.6090 -0.5027 -0.9345
12108SOL    HW236903   8.729   6.450   5.713  1.9019  1.5748 -2.0887
12109SOL     OW36904   7.986   8.276   3.380 -0.2238  0.0277  0.3224
12109SOL    HW136905   7.920   8.334   3.419  0.0973  0.2308  0.5737
12109SOL    HW236906   8.067   8.298   3.427 -0.2758 -1.2605  1.0461
12110SOL     OW36907   0.657   9.042   4.816  0.0600 -0.1358 -0.5795
12110SOL    HW136908   0.590   9.006   4.757 -0.1927 -1.2695  0.3585
12110SOL    HW236909   0.677   8.970   4.875 -1.6391  1.6862  2.4419
12111SOL     OW36910   0.726   1.639   8.310 -0.4583  0.5500  0.0597
12111SOL    HW136911   0.732   1.708   8.376  0.5868  0.2183  0.3319
12111SOL    HW236912   0.796   1.658   8.248 -0.7664  0.2630 -0.3838
12112SOL     OW36913   0.468   4.977   3.840 -0.3489  0.6729  0.0212
12112SOL    HW136914   0.483   4.923   3.918 -2.2658  2.1316  1.5161
12112SOL    HW236915   0.405   4.927   3.788 -0.8210  0.7155  0.5502
12113SOL     OW36916   8.382   7.782   3.739 -0.5772 -0.5742  0.3876
12113SOL    HW136917   8.473   7.755   3.750 -0.8760 -1.6649  0.3547
12113SOL    HW236918   8.337   7.744   3.815 -0.8199  0.9208  1.0191
12114SOL     OW36919   2.729   0.160   3.297  0.3596  0.3212 -0.1644
12114SOL    HW136920   2.647   0.136   3.254  0.5945  0.2066 -0.5509
12114SOL    HW236921   2.704   0.228   3.359 -0.1080 -0.0355  0.0533
12115SOL     OW36922   2.844   1.149   6.825 -0.2490  0.0226 -0.6202
12115SOL    HW136923   2.758   1.129   6.862 -0.7911  0.9040 -1.3474
12115SOL    HW236924   2.867   1.234   6.861  0.9070 -0.7421  0.5298
12116SOL     OW36925   4.099   1.703   9.330 -0.2669  0.0837 -0.4284
12116SOL    HW136926   4.037   1.692   9.402  1.8355 -1.3994  1.2973
12116SOL    HW236927   4.157   1.774   9.359  1.4612 -1.4635  0.0720
12117SOL     OW36928   0.886   9.620   1.054 -0.1086 -0.2327  0.1107
12117SOL    HW136929   0.803   9.605   1.010  0.6000  0.4681 -1.5209
12117SOL    HW236930   0.877   9.706   1.096 -0.1437 -0.0721 -0.2269
12118SOL     OW36931   3.351   0.624   6.073  0.2969 -0.2293  0.0565
12118SOL    HW136932   3.296   0.677   6.015 -0.2772  0.0891  0.8653
12118SOL    HW236933   3.426   0.681   6.092 -0.0175  0.0672  0.4333
12119SOL     OW36934   8.313   3.235   8.685  0.3647  0.2622  0.5359
12119SOL    HW136935   8.236   3.280   8.652 -0.7764 -1.3364  0.8761
12119SOL    HW236936   8.300   3.230   8.780 -1.3995 -3.6999  0.3062
12120SOL     OW36937   5.502   8.063   8.478  0.7250  0.9639 -0.0585
12120SOL    HW136938   5.492   8.093   8.569 -0.1498  0.1535  0.1255
12120SOL    HW236939   5.416   8.080   8.438  0.9177  0.7576 -0.5634
12121SOL     OW36940   5.409   8.918   9.288 -0.1014 -0.2159  0.7453
12121SOL    HW136941   5.354   8.996   9.294 -0.7658 -0.7346  1.5398
12121SOL    HW236942   5.497   8.949   9.310 -0.5610  0.0923  2.2329
12122SOL     OW36943   9.047   2.178   1.554 -0.1860 -0.6809 -0.1384
12122SOL    HW136944   9.007   2.260   1.524  1.1447 -0.2266 -0.7505
12122SOL    HW236945   9.004   2.111   1.501 -2.1462 -0.5590  1.1887
12123SOL     OW36946   7.843   1.184   6.809 -0.2921 -0.0610 -0.1291
12123SOL    HW136947   7.896   1.173   6.729  0.3519 -0.1045  0.2979
12123SOL    HW236948   7.765   1.230   6.779  0.6977  1.4455 -0.4992
12124SOL     OW36949   8.410   8.010   9.154  0.6877  0.1767  0.3214
12124SOL    HW136950   8.349   7.939   9.173 -0.0975  0.3978 -1.2174
12124SOL    HW236951   8.459   7.980   9.077 -0.0393  1.4710 -0.6989
12125SOL     OW36952   1.138   7.173   6.372  0.1533  0.0287  0.0153
12125SOL    HW136953   1.070   7.223   6.328 -0.2652  0.2664  0.9215
12125SOL    HW236954   1.092   7.097   6.408  0.4756 -0.1132  0.1296
12126SOL     OW36955   6.411   1.766   1.192 -0.2816 -0.0802  0.6996
12126SOL    HW136956   6.377   1.855   1.186 -0.6663 -0.2595  0.0933
12126SOL    HW236957   6.344   1.717   1.239 -0.8700 -0.4290 -0.4761
12127SOL     OW36958   3.218   1.690   5.469 -0.1371 -0.2764 -0.0059
12127SOL    HW136959   3.142   1.653   5.424 -0.4014 -1.6959  1.4834
12127SOL    HW236960   3.293   1.660   5.419 -0.4530 -1.2717  0.0840
12128SOL     OW36961   5.009   2.576   8.903  0.1109  0.2159 -0.6268
12128SOL    HW136962   4.933   2.581   8.845  0.3093  1.6788 -0.7922
12128SOL    HW236963   5.029   2.482   8.908 -0.4192 -0.0075 -2.2420
12129SOL     OW36964   5.926   9.194   2.658 -0.0521 -0.0270  1.1417
12129SOL    HW136965   5.862   9.265   2.668 -0.2183  0.1889 -0.9146
12129SOL    HW236966   5.875   9.122   2.621  0.7810 -0.0265 -0.0325
12130SOL     OW36967   0.661   0.142   4.121  0.5840 -0.3468 -0.5148
12130SOL    HW136968   0.690   0.228   4.149  0.4430 -0.6929  0.7324
12130SOL    HW236969   0.570   0.136   4.149  1.7984 -2.6492  3.9320
12131SOL     OW36970   8.054   3.175   6.936  0.2536  0.2025  0.3137
12131SOL    HW136971   8.049   3.201   6.844 -0.7041  0.8172  0.5254
12131SOL    HW236972   8.147   3.183   6.957  0.4502  0.2978 -0.5297
12132SOL     OW36973   0.735   2.342   8.319  0.6501  0.2773 -0.1335
12132SOL    HW136974   0.676   2.416   8.303 -0.3440 -0.6401 -0.9293
12132SOL    HW236975   0.698   2.298   8.396 -1.9589 -2.2912 -2.5437
12133SOL     OW36976   9.056   5.455   8.702 -0.2658  0.2895 -0.8217
12133SOL    HW136977   9.082   5.370   8.667 -0.2538  0.1114 -0.3844
12133SOL    HW236978   8.978   5.479   8.651  0.4971  0.6353 -1.8437
12134SOL     OW36979   0.977   7.651   4.507 -0.0285 -0.1613 -0.7920
12134SOL    HW136980   1.025   7.645   4.424 -0.5033 -0.1964 -1.0681
12134SOL    HW236981   0.964   7.745   4.521  1.1534 -0.0810 -0.1080
12135SOL     OW36982   8.103   6.021   0.917 -0.2559 -0.7341  0.4182
12135SOL    HW136983   8.124   6.114   0.916 -0.9738 -0.5323  1.7193
12135SOL    HW236984   8.187   5.977   0.903  0.1686  0.0956  0.3085
12136SOL     OW36985   9.472   7.173   1.995 -0.0102 -0.2274 -0.5363
12136SOL    HW136986   9.457   7.264   2.018  0.0969 -0.1297 -0.8598
12136SOL    HW236987   9.417   7.157   1.918 -0.7556 -0.6959  0.0715
12137SOL     OW36988   2.382   2.310   3.410  0.3440 -0.6200  0.4467
12137SOL    HW136989   2.306   2.359   3.440 -2.0992 -1.9095 -3.0154
12137SOL    HW236990   2.363   2.219   3.432  1.7074 -0.8188  0.9402
12138SOL     OW36991   6.399   9.172   8.145 -0.1685  0.1763 -0.2578
12138SOL    HW136992   6.309   9.140   8.136  0.4812 -1.6135 -0.7622
12138SOL    HW236993   6.394   9.264   8.121 -1.7779 -0.0139 -0.7830
12139SOL     OW36994   3.857   8.164   9.573  0.0858 -0.2438  0.4508
12139SOL    HW136995   3.787   8.229   9.576 -1.5318 -1.9064  1.2096
12139SOL    HW236996   3.898   8.178   9.488 -2.2270 -0.1793 -0.7609
12140SOL     OW36997   5.684   0.618   3.484  0.3287 -0.3283 -0.2478
12140SOL    HW136998   5.640   0.555   3.541  0.9450  0.6983  1.4630
12140SOL    HW236999   5.727   0.565   3.417  2.7877 -2.0482  2.4162
12141SOL     OW37000   7.426   3.737   8.180  0.1432  0.2496  0.9971
12141SOL    HW137001   7.502   3.777   8.139 -1.7712  0.6680 -2.5205
12141SOL    HW237002   7.443   3.642   8.174  0.1830  0.3211 -0.3101
12142SOL     OW37003   0.382   8.091   5.599 -0.1850  0.0577  0.0929
12142SOL    HW137004   0.337   8.164   5.641 -0.4832 -0.7416  1.1879
12142SOL    HW237005   0.390   8.118   5.507 -0.0871  1.5540  0.5184
12143SOL     OW37006   8.532   3.959   6.366  0.5070 -0.3262 -0.1463
12143SOL    HW137007   8.600   3.920   6.421 -0.6061 -1.5397  0.4388
12143SOL    HW237008   8.469   3.997   6.428  0.1648 -0.0726 -0.6402
12144SOL     OW37009   2.463   0.337   6.465  0.1200 -0.0386  0.1364
12144SOL    HW137010   2.551   0.315   6.435  0.4339  1.2383  0.0810
12144SOL    HW237011   2.405   0.297   6.400  0.6999  0.2666 -0.5809
12145SOL     OW37012   5.209   1.811   2.577 -0.1341  0.2320 -0.3321
12145SOL    HW137013   5.142   1.750   2.607  0.5747 -1.7415 -2.4201
12145SOL    HW237014   5.167   1.862   2.508  0.4288 -1.0205 -1.6567
12146SOL     OW37015   1.985   4.920   0.126 -0.0441  0.4142 -0.2951
12146SOL    HW137016   1.954   4.870   0.050 -0.7193 -1.6964  1.2758
12146SOL    HW237017   2.074   4.888   0.141 -0.6280 -0.6980  0.9711
12147SOL     OW37018   1.963   9.328   8.100 -0.4742  0.0770 -0.1777
12147SOL    HW137019   1.985   9.239   8.129 -2.2447 -0.1743  0.5508
12147SOL    HW237020   1.971   9.381   8.179 -1.9191  0.0486  0.0192
12148SOL     OW37021   6.262   9.535   9.262  0.1636  0.1924  0.2749
12148SOL    HW137022   6.196   9.507   9.199 -0.5067 -1.6750  1.7009
12148SOL    HW237023   6.294   9.619   9.229 -2.5446  0.9042 -0.7553
12149SOL     OW37024   4.852   9.518   4.884  0.6172  0.3808  1.2063
12149SOL    HW137025   4.940   9.485   4.864 -0.3701 -0.7277 -1.9838
12149SOL    HW237026   4.821   9.462   4.954  1.1589 -1.7401 -0.1499
12150SOL     OW37027   3.673   0.484   8.344 -0.1529 -0.2448 -0.4793
12150SOL    HW137028   3.586   0.472   8.307 -0.1374  0.1955 -0.6651
12150SOL    HW237029   3.728   0.507   8.269 -0.3749  1.9511 -0.0327
12151SOL     OW37030   3.282   3.218   5.039 -0.5438 -0.3006  0.2104
12151SOL    HW137031   3.286   3.180   4.952 -1.1076  2.6281 -1.2246
12151SOL    HW237032   3.358   3.277   5.042 -1.5896  1.0453  0.9532
12152SOL     OW37033   8.784  10.011   8.863  0.2405  0.2085 -0.0294
12152SOL    HW137034   8.740   9.927   8.844  2.5657 -0.4299 -3.4272
12152SOL    HW237035   8.873   9.999   8.830  1.8351  2.8063  2.9125
12153SOL     OW37036   7.011   1.018   1.649 -0.0198 -0.2681 -0.3120
12153SOL    HW137037   7.042   1.084   1.711  2.8656 -0.2739 -1.6077
12153SOL    HW237038   7.012   1.062   1.564  0.4295 -1.5057 -0.9800
12154SOL     OW37039   2.395   8.069   9.284 -0.1611  0.0253  0.2608
12154SOL    HW137040   2.470   8.011   9.296 -0.9330 -0.6916  2.0331
12154SOL    HW237041   2.434   8.154   9.265  1.1997 -0.0584  2.2829
12155SOL     OW37042   0.800   1.698   7.759  0.4649 -0.1321  0.2232
12155SOL    HW137043   0.816   1.648   7.679  1.2119  3.6009 -2.1751
12155SOL    HW237044   0.887   1.727   7.787 -0.0557  1.2825  0.4542
12156SOL     OW37045   7.255   7.902   9.094 -0.0734  0.2945  0.3756
12156SOL    HW137046   7.346   7.931   9.080  0.1515 -0.3917  0.3840
12156SOL    HW237047   7.218   7.897   9.006 -0.1691  0.7673  0.3838
12157SOL     OW37048   5.622   0.806   8.757 -0.4314  0.5510 -0.2832
12157SOL    HW137049   5.536   0.836   8.728  0.3887  1.5236 -1.8558
12157SOL    HW237050   5.677   0.811   8.679  1.5883  2.0492  1.1315
12158SOL     OW37051   4.325   9.507   8.197 -0.3186  0.3793  0.2200
12158SOL    HW137052   4.334   9.420   8.158 -2.3851  0.4744 -0.5990
12158SOL    HW237053   4.295   9.562   8.125 -1.2458  1.2595  1.2534
12159SOL     OW37054   4.941   8.798   7.887  0.1497  0.8130  0.3663
12159SOL    HW137055   4.932   8.807   7.982  0.9490  2.4445  0.3255
12159SOL    HW237056   4.977   8.882   7.858  0.1807  0.2520 -1.3532
12160SOL     OW37057   4.811   0.124   3.414 -0.3155  0.7645  0.5773
12160SOL    HW137058   4.784   0.145   3.504 -2.0226 -0.5668  0.4373
12160SOL    HW237059   4.895   0.079   3.425 -0.9927 -0.3154  1.6384
12161SOL     OW37060   5.857   0.027   2.363  0.5515 -0.1327 -0.4661
12161SOL    HW137061   5.918   0.100   2.370  0.0838  0.4478 -2.0076
12161SOL    HW237062   5.896  -0.042   2.417  0.3988  1.6136  2.0669
12162SOL     OW37063   1.314   9.420   5.596  0.1109 -0.1512 -0.0809
12162SOL    HW137064   1.391   9.434   5.541  0.7885  0.7902  1.0715
12162SOL    HW237065   1.285   9.508   5.621 -1.0767 -0.5068 -0.1138
12163SOL     OW37066   0.392   7.139   4.945 -0.3501 -0.0667  0.3864
12163SOL    HW137067   0.440   7.156   4.864  1.3473  2.4079  1.7891
12163SOL    HW237068   0.300   7.142   4.919  0.1216  1.6101 -1.3228
12164SOL     OW37069   8.807   1.131   3.488 -0.3332  0.3876  0.1966
12164SOL    HW137070   8.740   1.091   3.433 -3.2808  1.8222  2.4665
12164SOL    HW237071   8.800   1.225   3.471 -0.1761  0.7117  1.7136
12165SOL     OW37072   8.273   5.901   4.628  0.2664 -0.5346  0.4267
12165SOL    HW137073   8.276   5.911   4.723 -2.2951 -1.2287  0.6421
12165SOL    HW237074   8.247   5.987   4.595  1.8762 -0.0820  0.2369
12166SOL     OW37075   8.628   4.948   4.269  0.1011 -0.0821 -0.2559
12166SOL    HW137076   8.663   4.986   4.349  1.6926 -0.7018 -0.6307
12166SOL    HW237077   8.642   5.014   4.201 -2.0771  0.8269  0.0838
12167SOL     OW37078   0.868   9.348   2.929 -0.5620  0.5394  0.5932
12167SOL    HW137079   0.847   9.398   3.008 -1.2788 -0.4805  1.0869
12167SOL    HW237080   0.959   9.370   2.910 -0.8470  1.9946  0.7844
12168SOL     OW37081   2.205   9.752   2.032  0.2280  0.2591 -0.3421
12168SOL    HW137082   2.268   9.781   2.098 -0.6372 -0.3388  0.7746
12168SOL    HW237083   2.217   9.814   1.959  1.1917  0.9398  0.3702
12169SOL     OW37084   0.987   3.199   0.391  0.0073 -0.4511  0.0250
12169SOL    HW137085   0.975   3.112   0.353  2.2471 -0.9963  0.4114
12169SOL    HW237086   1.062   3.235   0.345 -1.7161  1.9230 -1.1069
12170SOL     OW37087   1.207   8.852   5.756  0.0081 -0.1029 -0.0851
12170SOL    HW137088   1.174   8.912   5.822 -1.6919 -2.7205  1.6080
12170SOL    HW237089   1.277   8.900   5.712 -0.3741  2.5695  2.0341
12171SOL     OW37090   9.620   0.511  -0.016  0.3982  0.0155 -0.1712
12171SOL    HW137091   9.546   0.526   0.043  0.3974 -0.5333 -0.0197
12171SOL    HW237092   9.692   0.561   0.023  0.0999  0.5702 -0.3346
12172SOL     OW37093   1.016   3.885   9.192  0.0275 -0.7099 -0.0763
12172SOL    HW137094   1.066   3.816   9.236  1.6206  0.8489  0.6482
12172SOL    HW237095   0.925   3.868   9.218  0.4998 -1.9624  0.8817
12173SOL     OW37096   1.271   6.549   0.770  0.0524 -0.2997 -0.0119
12173SOL    HW137097   1.311   6.554   0.683 -0.8663 -1.1843 -0.5018
12173SOL    HW237098   1.243   6.638   0.788  0.1920 -0.1179 -0.6523
12174SOL     OW37099   1.467   9.211   4.941  0.2774 -0.0854  0.0672
12174SOL    HW137100   1.511   9.194   4.858  1.5438 -0.2112  0.7206
12174SOL    HW237101   1.449   9.305   4.940 -0.6296 -0.2572 -0.7515
12175SOL     OW37102   2.122   9.708   0.137 -0.3663  0.0514  0.0879
12175SOL    HW137103   2.119   9.768   0.063 -0.6375  0.7102  0.6218
12175SOL    HW237104   2.210   9.720   0.174 -0.4634  0.2182  0.2687
12176SOL     OW37105   2.869   3.337   8.121  0.4077  0.5762  0.1999
12176SOL    HW137106   2.836   3.337   8.211  0.3429  0.2357  0.1753
12176SOL    HW237107   2.821   3.407   8.078  2.0161  2.2842  1.0178
12177SOL     OW37108   7.049   0.933   1.122 -0.2876 -0.2088 -0.3641
12177SOL    HW137109   7.127   0.976   1.157 -0.7992 -0.0897  0.6808
12177SOL    HW237110   7.069   0.840   1.125 -0.0554 -0.1628 -0.4392
12178SOL     OW37111   2.530   8.223   3.002  0.3426  0.1907  0.0838
12178SOL    HW137112   2.620   8.251   3.016  0.9493 -0.9101 -1.4296
12178SOL    HW237113   2.514   8.157   3.069  0.7750  0.1295  0.1254
12179SOL     OW37114   3.216   7.417   1.897 -0.0275 -1.1009  0.0125
12179SOL    HW137115   3.207   7.359   1.972  1.1256 -0.3899  0.7385
12179SOL    HW237116   3.137   7.403   1.846 -3.0188  1.3764  3.4599
12180SOL     OW37117   3.568   6.296   1.058  0.4046 -0.2822 -0.4093
12180SOL    HW137118   3.627   6.359   1.017  1.1143 -1.0105 -0.5273
12180SOL    HW237119   3.498   6.350   1.096 -0.4713  0.4072 -2.8170
12181SOL     OW37120   8.532   4.556   5.878 -0.1167  0.2061 -0.3992
12181SOL    HW137121   8.530   4.509   5.795  2.0609 -0.5762 -0.1052
12181SOL    HW237122   8.601   4.511   5.928 -1.6865  0.3219  2.0355
12182SOL     OW37123   5.455   9.554   3.168  0.4578 -0.3648  0.7376
12182SOL    HW137124   5.491   9.554   3.080  2.6267 -0.2568  1.5703
12182SOL    HW237125   5.370   9.512   3.159  0.0899  0.7055 -1.5864
12183SOL     OW37126   1.438   8.819   2.817  0.1159 -0.0424  0.0215
12183SOL    HW137127   1.405   8.740   2.775 -1.8946 -0.5718  2.3980
12183SOL    HW237128   1.412   8.890   2.758  0.7094 -0.9926 -1.4441
12184SOL     OW37129   6.689   5.677   2.292  0.0869 -0.0088  0.2572
12184SOL    HW137130   6.602   5.716   2.305  0.4441  0.4677  1.3423
12184SOL    HW237131   6.748   5.734   2.341  1.3549  0.9469 -2.2218
12185SOL     OW37132   5.304   9.492   2.853  0.1818  0.1054 -0.8174
12185SOL    HW137133   5.230   9.486   2.792  0.2858 -0.1404 -0.9189
12185SOL    HW237134   5.358   9.416   2.834 -0.5734 -0.8310  0.6296
12186SOL     OW37135   6.555   1.197   6.227 -0.3662 -0.7494 -0.0553
12186SOL    HW137136   6.514   1.265   6.173 -0.0628  1.4427  2.3048
12186SOL    HW237137   6.494   1.185   6.300 -0.5170 -3.2520 -0.5120
12187SOL     OW37138   4.934   7.989   1.411  0.4590  0.1398 -0.2643
12187SOL    HW137139   4.878   7.933   1.465  0.7324 -1.6477 -1.7363
12187SOL    HW237140   5.023   7.961   1.432  0.6615  0.8018 -0.2188
12188SOL     OW37141   0.294   8.977   9.456 -0.3309  0.5780 -0.1883
12188SOL    HW137142   0.253   9.049   9.504 -2.8587 -0.1196 -1.1465
12188SOL    HW237143   0.233   8.904   9.465  2.0018 -1.4331  0.4952
12189SOL     OW37144   2.224   2.824   4.039  0.5441  0.6196  0.0281
12189SOL    HW137145   2.258   2.854   3.955  1.4894 -2.1800 -0.6827
12189SOL    HW237146   2.155   2.762   4.017 -1.9533  2.6986  1.4381
12190SOL     OW37147   5.389   3.793   2.962  0.0078 -0.7147  0.5206
12190SOL    HW137148   5.315   3.799   2.902  0.9629 -1.4847 -0.7810
12190SOL    HW237149   5.423   3.882   2.967 -0.7661 -0.4243  0.8471
12191SOL     OW37150   6.476   9.122   8.762  0.6613  0.4619 -0.3767
12191SOL    HW137151   6.528   9.099   8.685  0.7068  1.7148 -0.7297
12191SOL    HW237152   6.522   9.196   8.801  0.1149  0.4405  0.3295
12192SOL     OW37153   7.059   8.333   5.646  0.3584 -0.1806 -0.2032
12192SOL    HW137154   7.061   8.399   5.577 -0.4090  1.3130  1.1351
12192SOL    HW237155   7.064   8.249   5.599 -3.1238  0.6080 -2.3522
12193SOL     OW37156   0.172   9.476   8.604  0.2166 -0.4845 -0.3091
12193SOL    HW137157   0.187   9.541   8.672 -0.2849  0.3307 -0.9555
12193SOL    HW237158   0.147   9.396   8.650  2.4149 -0.7288  0.6028
12194SOL     OW37159   1.790   6.540   9.900  0.3065  0.3462  0.2149
12194SOL    HW137160   1.697   6.524   9.889  0.6547 -0.5246 -1.8445
12194SOL    HW237161   1.811   6.501   9.985 -1.2013  0.6953  0.7737
12195SOL     OW37162   5.010   3.020   4.014 -0.2506 -0.1039 -0.0548
12195SOL    HW137163   4.984   2.969   4.091 -1.4327 -0.8375 -0.8990
12195SOL    HW237164   5.077   2.967   3.971  0.1189  0.1125  0.2573
12196SOL     OW37165   3.649   4.059   8.769  0.2460 -0.1258  0.7717
12196SOL    HW137166   3.629   4.042   8.677  0.4544  0.6311  0.5837
12196SOL    HW237167   3.617   4.148   8.785 -0.3395 -0.4692  1.5968
12197SOL     OW37168   0.807   4.457   5.118  0.0633 -0.2625 -0.1036
12197SOL    HW137169   0.807   4.427   5.209  1.7596  0.9426  0.3425
12197SOL    HW237170   0.715   4.471   5.098 -0.2501  2.4827  2.5227
12198SOL     OW37171   1.605   0.496   8.085 -0.1598  0.3702  0.1116
12198SOL    HW137172   1.602   0.419   8.028  0.6246 -0.1718  0.7819
12198SOL    HW237173   1.698   0.516   8.094 -0.1864 -0.2457  2.0999
12199SOL     OW37174   1.683   1.386   3.827 -0.1385  0.2035  0.0003
12199SOL    HW137175   1.649   1.471   3.854  0.6153  0.3743  0.4426
12199SOL    HW237176   1.616   1.351   3.768 -0.2188  1.3382 -0.6101
12200SOL     OW37177   8.304   4.514   1.422 -0.4267  0.1657 -0.7602
12200SOL    HW137178   8.223   4.553   1.389 -0.7299 -0.0298 -0.2742
12200SOL    HW237179   8.353   4.489   1.344 -0.5068  0.9502 -1.0682
12201SOL     OW37180   7.283   2.617   9.685  0.1912  0.4184 -0.0090
12201SOL    HW137181   7.211   2.655   9.634  0.8284  0.9536 -0.5338
12201SOL    HW237182   7.248   2.609   9.774  0.0251  2.2328  0.1157
12202SOL     OW37183   3.690   0.024   9.872 -0.4762 -0.5829 -0.5587
12202SOL    HW137184   3.714   0.116   9.865  1.4775 -0.9006  1.0592
12202SOL    HW237185   3.631   0.020   9.948  0.4923 -0.8048  0.2035
12203SOL     OW37186   3.108   5.084   9.657 -0.1791  0.7430  0.4857
12203SOL    HW137187   3.136   4.992   9.655  2.1641  1.4049 -1.1182
12203SOL    HW237188   3.057   5.095   9.577 -0.7758  0.7816  0.8634
12204SOL     OW37189   9.043   0.748   1.693  0.0235 -0.2453 -0.1336
12204SOL    HW137190   9.020   0.840   1.706 -1.3634 -0.3727 -1.3412
12204SOL    HW237191   9.078   0.720   1.777  2.7067  1.9643 -0.3826
12205SOL     OW37192   0.340   1.771   0.231 -0.2384  0.4034 -0.0844
12205SOL    HW137193   0.408   1.837   0.213  1.7041 -1.4673 -0.0274
12205SOL    HW237194   0.308   1.745   0.144 -1.0999  1.4569 -0.1027
12206SOL     OW37195   1.338   5.558   4.822  0.3472  0.0811  0.1021
12206SOL    HW137196   1.330   5.525   4.911  0.6056  0.6891  0.3559
12206SOL    HW237197   1.304   5.488   4.767 -1.2120  0.2821  0.7637
12207SOL     OW37198   7.025   8.946   4.112  0.0796  0.4370  0.0213
12207SOL    HW137199   7.077   9.008   4.061  0.0618  0.8556  0.5085
12207SOL    HW237200   7.055   8.860   4.083 -0.7086  0.6384 -1.5213
12208SOL     OW37201   5.852   1.546   8.066 -0.0407 -0.4356  0.3529
12208SOL    HW137202   5.873   1.458   8.036  0.5662 -0.4414  0.7860
12208SOL    HW237203   5.780   1.534   8.127  0.9180 -0.7852  1.4365
12209SOL     OW37204   1.399   0.424   9.491 -0.2511  0.4458 -0.2673
12209SOL    HW137205   1.448   0.370   9.429 -0.7847 -0.1547 -0.1693
12209SOL    HW237206   1.391   0.509   9.447  0.5409  0.4394 -0.4466
12210SOL     OW37207   6.106   8.594   6.507 -0.1569  0.3290  0.3000
12210SOL    HW137208   6.108   8.689   6.491  0.2635  0.2624 -0.0356
12210SOL    HW237209   6.101   8.555   6.420  1.9091 -0.0215  0.2790
12211SOL     OW37210   0.544   7.225   6.861  0.5584  0.4490  0.2805
12211SOL    HW137211   0.486   7.195   6.931 -0.1500 -0.2486 -0.5882
12211SOL    HW237212   0.506   7.309   6.834 -0.0178  0.0410 -0.2194
12212SOL     OW37213   5.943   4.972   4.142 -0.3457  0.1501 -0.6989
12212SOL    HW137214   5.955   5.009   4.230 -1.1593 -1.2655  0.0432
12212SOL    HW237215   5.909   5.044   4.090  2.0681  1.6036 -0.4316
12213SOL     OW37216   1.382   2.963   9.455 -0.0106  0.0613 -0.7010
12213SOL    HW137217   1.421   3.049   9.469  0.4368  0.3197 -3.1387
12213SOL    HW237218   1.325   2.974   9.379  0.9148 -2.0196 -1.7788
12214SOL     OW37219   6.287   8.585   2.831  0.1651  0.3398  0.3013
12214SOL    HW137220   6.221   8.642   2.871 -0.5960 -0.3283  0.0373
12214SOL    HW237221   6.328   8.540   2.904 -1.0461 -0.6890  0.3788
12215SOL     OW37222   2.716   7.085   0.671  0.0015  0.2062 -0.4862
12215SOL    HW137223   2.638   7.036   0.643  0.7186  0.0766 -2.4068
12215SOL    HW237224   2.707   7.171   0.629  0.7205  0.3023 -0.4582
12216SOL     OW37225   4.308   3.997   9.579  0.2989  0.2539 -0.3112
12216SOL    HW137226   4.309   3.991   9.675 -0.6023 -1.5887 -0.3696
12216SOL    HW237227   4.257   3.921   9.551  1.4367  0.1577 -2.3083
12217SOL     OW37228   5.936   3.612   2.909 -0.2480 -0.3399 -0.3441
12217SOL    HW137229   5.962   3.521   2.922  0.5832 -0.1869 -0.8194
12217SOL    HW237230   5.905   3.641   2.994 -0.5296 -1.0708 -0.1917
12218SOL     OW37231   0.133   9.821   4.258 -0.7971  0.6622 -0.0108
12218SOL    HW137232   0.116   9.876   4.334 -2.0300 -0.0029  0.2268
12218SOL    HW237233   0.221   9.786   4.272 -0.2361  2.0818  0.1200
12219SOL     OW37234   3.539   4.961   8.270  0.0958  0.4125 -0.0997
12219SOL    HW137235   3.577   4.884   8.312  0.9129  0.2460 -1.1278
12219SOL    HW237236   3.612   5.023   8.262 -0.3140  0.8860 -0.2459
12220SOL     OW37237   5.065   9.535   3.639 -0.3014  0.2765  0.0610
12220SOL    HW137238   5.075   9.629   3.655  3.1230  0.0487  0.1508
12220SOL    HW237239   5.084   9.525   3.545 -1.6789 -0.2742 -0.1854
12221SOL     OW37240   4.500   4.544   8.022 -0.2679  0.0857 -0.2029
12221SOL    HW137241   4.475   4.476   8.084  2.7049 -0.6579  0.3381
12221SOL    HW237242   4.491   4.626   8.070 -1.0708 -0.1708  0.1013
12222SOL     OW37243   6.987   9.065   6.499 -0.5754  0.0200  0.4359
12222SOL    HW137244   7.021   9.049   6.587 -0.9115  0.0606  0.5736
12222SOL    HW237245   6.894   9.042   6.504 -0.2372 -1.6629 -0.3553
12223SOL     OW37246   8.544   4.147   3.817 -0.4906  0.2556  0.0638
12223SOL    HW137247   8.620   4.206   3.817 -0.5433  0.3249 -0.1439
12223SOL    HW237248   8.488   4.181   3.886  0.4357 -0.7922  1.3861
12224SOL     OW37249   2.056   8.498   4.694 -0.2238  0.6181  0.5817
12224SOL    HW137250   2.055   8.470   4.602  1.3521  0.8202  0.4823
12224SOL    HW237251   2.053   8.593   4.689  0.2556  0.6409  0.7261
12225SOL     OW37252   4.499   2.514   6.949 -0.1746  0.1899  0.0225
12225SOL    HW137253   4.540   2.434   6.980  2.1328  1.1390 -0.3745
12225SOL    HW237254   4.408   2.490   6.932  0.3746 -2.2448  0.2157
12226SOL     OW37255   7.472   9.931   7.483 -0.3150 -0.1306 -0.3600
12226SOL    HW137256   7.499   9.846   7.448 -0.7463 -0.3061 -0.2655
12226SOL    HW237257   7.418   9.911   7.558  0.4822  0.2493  0.3375
12227SOL     OW37258   4.203   6.052   9.273 -0.3852  0.0429 -0.8010
12227SOL    HW137259   4.155   6.003   9.206  0.2554 -1.9137  0.0780
12227SOL    HW237260   4.254   5.985   9.319  1.2761  1.6935 -0.0968
12228SOL     OW37261   4.890   1.236   1.256  0.0447  0.3203  0.3492
12228SOL    HW137262   4.910   1.227   1.349 -1.2615  1.3645  0.7532
12228SOL    HW237263   4.969   1.205   1.212  1.0185  0.6239  1.8119
12229SOL     OW37264   9.908   3.903   7.082  0.0646  0.2907 -0.0923
12229SOL    HW137265   9.926   3.818   7.122  3.1176  0.0916 -1.6291
12229SOL    HW237266   9.866   3.883   6.999  1.5418  0.1937 -0.8362
12230SOL     OW37267   3.022   3.225   4.739  0.2928  0.5068 -0.3111
12230SOL    HW137268   3.033   3.132   4.760  0.2843  0.3810 -0.8451
12230SOL    HW237269   2.957   3.226   4.669 -0.8509  1.0214  0.7149
12231SOL     OW37270   0.194   2.164   4.361  0.1237 -0.0729  1.0898
12231SOL    HW137271   0.193   2.081   4.410  1.3517 -0.2716  0.7843
12231SOL    HW237272   0.115   2.209   4.391 -0.7271 -1.4688  1.0449
12232SOL     OW37273   2.944   8.628   9.968 -0.5624  1.0239 -0.1423
12232SOL    HW137274   2.849   8.615   9.970 -0.6115  1.1092 -1.2370
12232SOL    HW237275   2.980   8.539   9.968 -0.6294  0.9935  0.5265
12233SOL     OW37276   0.370   9.096   3.736 -0.4145  0.4761 -0.1068
12233SOL    HW137277   0.375   9.033   3.808  0.2721 -0.0856 -0.6273
12233SOL    HW237278   0.295   9.151   3.757 -0.6517 -0.1303  0.6778
12234SOL     OW37279   2.938   8.495   5.375  0.4419  0.4707  0.2632
12234SOL    HW137280   2.904   8.529   5.293 -0.9427 -3.0579 -0.7986
12234SOL    HW237281   2.869   8.515   5.439 -0.0522  0.2185 -0.1830
12235SOL     OW37282   0.848   1.107   3.624 -0.0245  0.1940  0.6957
12235SOL    HW137283   0.911   1.067   3.684  1.9338  0.1363 -1.2382
12235SOL    HW237284   0.822   1.036   3.565 -0.4637  0.6333  0.3479
12236SOL     OW37285   3.510   3.070   2.299 -0.4671 -0.1293 -0.2720
12236SOL    HW137286   3.587   3.049   2.246  0.5830  0.1902  1.0757
12236SOL    HW237287   3.469   2.985   2.316  0.3204 -0.4498  0.0759
12237SOL     OW37288   2.000   4.436   8.414 -0.3785  0.3994  0.1293
12237SOL    HW137289   2.029   4.503   8.475 -0.7579  1.3625 -0.7133
12237SOL    HW237290   1.914   4.467   8.383  0.9028  1.3401 -2.8500
12238SOL     OW37291   2.257   9.767   4.161  0.1150 -0.3262 -0.0954
12238SOL    HW137292   2.189   9.831   4.185 -0.4154 -1.0444  0.3452
12238SOL    HW237293   2.339   9.807   4.193 -0.0926  0.5256 -0.5910
12239SOL     OW37294   5.080   6.165   7.875 -0.1429  0.4637 -0.6518
12239SOL    HW137295   5.083   6.076   7.840 -1.0358  0.2354 -0.1791
12239SOL    HW237296   5.170   6.183   7.903 -0.1557 -0.6562  0.1560
12240SOL     OW37297   1.026   0.442   8.050 -0.1260  0.3583  0.5841
12240SOL    HW137298   1.045   0.386   8.125 -0.2961  1.3384  1.3967
12240SOL    HW237299   1.111   0.454   8.006 -0.3590 -1.7737 -0.5386
12241SOL     OW37300   7.924   6.610   6.469  0.3472 -0.0373 -1.0185
12241SOL    HW137301   7.959   6.631   6.555  1.3850  1.9872 -1.8594
12241SOL    HW237302   7.990   6.642   6.408 -0.6820 -0.7896 -2.5852
12242SOL     OW37303   7.954   3.189   8.100  0.1935 -0.1101  0.2430
12242SOL    HW137304   7.871   3.203   8.145  0.1506 -2.2077  0.9314
12242SOL    HW237305   7.929   3.170   8.009 -0.0284 -0.0107  0.2832
12243SOL     OW37306   2.692   8.638   7.462 -0.4996 -0.2612 -0.7099
12243SOL    HW137307   2.649   8.665   7.381 -1.5737 -0.5788 -0.2695
12243SOL    HW237308   2.778   8.678   7.458 -1.0195  0.8450 -1.3900
12244SOL     OW37309   0.607   5.315   4.185 -0.1494  0.1892 -0.6326
12244SOL    HW137310   0.645   5.252   4.123 -0.5671 -0.8856  0.1791
12244SOL    HW237311   0.677   5.378   4.200  0.2717 -0.0505 -1.4870
12245SOL     OW37312   7.660   5.764   2.757  0.3414  0.3128 -0.7631
12245SOL    HW137313   7.606   5.738   2.832  1.5611  0.6607  0.2692
12245SOL    HW237314   7.633   5.705   2.686 -1.7578  0.8204 -0.4595
12246SOL     OW37315   0.035   8.535   7.026 -0.0742 -0.0848  0.0392
12246SOL    HW137316  -0.041   8.590   7.045 -0.3659 -0.3653 -0.3171
12246SOL    HW237317   0.096   8.554   7.098  0.8132  2.4514 -1.2484
12247SOL     OW37318   5.196   5.082   8.050 -0.4274  0.3192 -0.2893
12247SOL    HW137319   5.218   5.174   8.036  0.2718  0.0040 -1.3977
12247SOL    HW237320   5.139   5.060   7.975 -0.1756 -0.2795 -0.3091
12248SOL     OW37321   2.696   2.499   0.213 -0.2802  0.2076 -0.2527
12248SOL    HW137322   2.760   2.494   0.142  0.1594 -0.7186  0.1829
12248SOL    HW237323   2.678   2.592   0.224  0.5193  0.4308 -0.8134
12249SOL     OW37324   2.152   0.209   6.558 -0.6231 -0.2558  0.2352
12249SOL    HW137325   2.246   0.222   6.568 -0.6492 -0.5450  0.8592
12249SOL    HW237326   2.144   0.121   6.522 -0.5445  0.6492 -2.1914
12250SOL     OW37327   1.630   4.894   4.360 -0.6798  0.0204  0.0189
12250SOL    HW137328   1.546   4.848   4.364 -0.5960 -0.0768  1.2074
12250SOL    HW237329   1.652   4.912   4.452 -0.8837  2.7750 -0.3950
12251SOL     OW37330   5.757   2.682   6.398  0.6005 -0.6524 -0.4477
12251SOL    HW137331   5.679   2.732   6.420  0.9012 -0.4073  0.0605
12251SOL    HW237332   5.744   2.658   6.306  1.6174  2.5155 -1.5419
12252SOL     OW37333   4.871   5.441   5.366 -0.0337  0.0698 -0.4461
12252SOL    HW137334   4.819   5.453   5.287 -0.3316  1.5149 -0.0574
12252SOL    HW237335   4.813   5.393   5.425 -0.0282 -0.4764 -0.8735
12253SOL     OW37336   1.434   4.042   2.022  0.3314 -0.1582 -0.1452
12253SOL    HW137337   1.498   4.030   2.092  0.3000 -0.7484 -0.2058
12253SOL    HW237338   1.372   4.107   2.056 -0.5157 -1.5032  0.9963
12254SOL     OW37339   0.201   7.214   6.847 -0.4113  0.0774  0.0618
12254SOL    HW137340   0.209   7.259   6.931  1.1682 -1.5150  0.8105
12254SOL    HW237341   0.107   7.203   6.835 -0.7942  2.2755  0.4980
12255SOL     OW37342   7.881   6.381   0.995 -0.0891  0.0417  0.4453
12255SOL    HW137343   7.887   6.472   0.968  2.0377  0.2463  1.4158
12255SOL    HW237344   7.796   6.374   1.039  0.4868  2.0592  2.0425
12256SOL     OW37345   5.051   8.619   8.207 -0.1760  0.6891 -0.1378
12256SOL    HW137346   4.960   8.640   8.191  0.0311  2.2507  0.5785
12256SOL    HW237347   5.053   8.586   8.297 -0.2803 -1.1705 -0.7743
12257SOL     OW37348   8.010   5.374   5.256  0.3383 -0.5696 -0.1532
12257SOL    HW137349   7.978   5.423   5.180  1.6467 -2.2070 -1.8361
12257SOL    HW237350   7.942   5.308   5.272  0.3611 -0.6318 -0.3115
12258SOL     OW37351   5.533   9.703   1.947 -0.5665  0.2080  0.2341
12258SOL    HW137352   5.515   9.788   1.988 -0.9300  0.2595 -0.0170
12258SOL    HW237353   5.575   9.725   1.864 -1.0092  0.1673 -0.0087
12259SOL     OW37354   7.241   1.281   9.852  0.4592 -0.1761  0.3684
12259SOL    HW137355   7.299   1.244   9.785 -0.8789  1.1336 -1.6519
12259SOL    HW237356   7.268   1.373   9.858 -2.4232  1.0104 -2.0519
12260SOL     OW37357   2.656   8.819   5.229 -0.3132 -0.2714  0.6394
12260SOL    HW137358   2.575   8.831   5.279 -0.4783  3.1285 -0.1958
12260SOL    HW237359   2.627   8.792   5.142 -0.5993  0.8559  0.3684
12261SOL     OW37360   6.687   7.198   3.250  0.4708  0.1708  0.4097
12261SOL    HW137361   6.679   7.186   3.345  1.9132 -0.6784  0.4401
12261SOL    HW237362   6.746   7.272   3.240  0.2711  0.2999  0.1568
12262SOL     OW37363   6.950   7.220   3.784 -0.9570 -0.1155 -0.3963
12262SOL    HW137364   6.871   7.275   3.785 -0.1718  1.1034 -1.6593
12262SOL    HW237365   7.014   7.272   3.736 -0.1725 -2.1732 -1.6714
12263SOL     OW37366   1.950   5.942   7.251  0.3430  0.4661  0.0418
12263SOL    HW137367   1.870   5.982   7.286 -0.2664 -0.8342  0.2259
12263SOL    HW237368   1.962   5.982   7.165 -0.5302  0.6662 -0.0010
12264SOL     OW37369   2.404   9.250   8.049 -0.0620 -0.5978 -0.4493
12264SOL    HW137370   2.494   9.268   8.078  0.0474  2.5579 -2.2947
12264SOL    HW237371   2.408   9.162   8.013  2.8864  0.1579 -2.3771
12265SOL     OW37372   2.699   1.563   9.883  0.1665  0.5357  0.3939
12265SOL    HW137373   2.762   1.566   9.811  0.5020 -1.1140  0.5624
12265SOL    HW237374   2.634   1.630   9.862  0.2568  0.1047 -1.4605
12266SOL     OW37375   2.642   4.894   5.434 -0.1039 -0.3268  0.2801
12266SOL    HW137376   2.618   4.910   5.526  1.2151  0.1918  0.5530
12266SOL    HW237377   2.659   4.980   5.398 -1.0015 -0.4927 -0.5986
12267SOL     OW37378   3.602   1.848   0.070 -0.3130  0.0929  0.6310
12267SOL    HW137379   3.540   1.897   0.015  0.7299  1.0751  0.2894
12267SOL    HW237380   3.644   1.915   0.124  0.1488 -0.6145  1.1632
12268SOL     OW37381   6.035   7.366   6.217  0.3898 -0.3623 -0.5866
12268SOL    HW137382   6.009   7.286   6.172  0.3904  0.2716 -1.7495
12268SOL    HW237383   6.117   7.392   6.175  1.2881 -0.6357  0.9132
12269SOL     OW37384   5.264   2.221   9.299  0.1353 -0.2404  0.5184
12269SOL    HW137385   5.276   2.165   9.376 -0.7217 -0.0357  0.8204
12269SOL    HW237386   5.279   2.164   9.224 -1.3799 -1.0697  0.8039
12270SOL     OW37387   7.950   1.520   1.893 -0.0063  0.2053 -0.2363
12270SOL    HW137388   7.890   1.594   1.910 -0.9756 -0.7884  0.8069
12270SOL    HW237389   8.019   1.558   1.839 -0.4793  1.8860  0.2676
12271SOL     OW37390   4.786   4.104   2.412  0.5388 -0.3628  0.2439
12271SOL    HW137391   4.765   4.099   2.319 -0.4194  0.4247  0.3957
12271SOL    HW237392   4.786   4.198   2.432 -1.0807 -0.5688  1.4169
12272SOL     OW37393   3.690   8.966   3.873  0.0858  0.2565  0.2450
12272SOL    HW137394   3.700   9.035   3.939 -1.9841 -0.6214  1.5840
12272SOL    HW237395   3.700   8.884   3.922  0.4511 -0.4339 -0.9320
12273SOL     OW37396   5.351   5.063   2.940  0.3431  0.5501 -0.1316
12273SOL    HW137397   5.441   5.092   2.922 -0.2760  3.7677  1.2442
12273SOL    HW237398   5.361   4.995   3.007  1.7672 -0.0741 -0.9286
12274SOL     OW37399   0.003   2.456   8.299 -0.1418  0.1155  1.1349
12274SOL    HW137400  -0.016   2.362   8.299 -2.8220  0.5543  0.1726
12274SOL    HW237401   0.082   2.464   8.352 -0.6851 -2.5316  2.5847
12275SOL     OW37402   1.286   2.667   5.374  0.6147  0.5726  0.5455
12275SOL    HW137403   1.224   2.734   5.402 -1.5337 -0.6102 -1.0075
12275SOL    HW237404   1.260   2.589   5.423  1.4034  0.2539  0.4631
12276SOL     OW37405   6.559   2.249   2.022  0.0315 -0.0986  0.3724
12276SOL    HW137406   6.518   2.169   2.055 -0.2676 -0.0568  0.1092
12276SOL    HW237407   6.551   2.242   1.927  0.7905 -0.1705  0.3106
12277SOL     OW37408   1.232   7.594   1.062 -0.1682  0.0855 -0.2483
12277SOL    HW137409   1.235   7.627   1.152  0.9960 -2.2976  0.6780
12277SOL    HW237410   1.212   7.671   1.009  2.8240  2.3752  1.6219
12278SOL     OW37411   3.544   3.300   9.345 -0.1269  0.0984  0.1640
12278SOL    HW137412   3.526   3.211   9.376  2.8574 -1.1140 -1.1457
12278SOL    HW237413   3.631   3.320   9.380 -0.0313  1.8083 -0.9697
12279SOL     OW37414   2.031   8.669   7.555  0.1985 -0.5139  0.0280
12279SOL    HW137415   2.047   8.620   7.635 -1.4721 -1.0376  0.0832
12279SOL    HW237416   1.966   8.617   7.507  0.8842 -0.0280 -1.4986
12280SOL     OW37417   4.713   8.805   2.967  0.0003 -0.3792  0.0518
12280SOL    HW137418   4.735   8.716   2.994 -1.7080 -0.4457  1.3614
12280SOL    HW237419   4.708   8.855   3.049 -1.1766  0.3975 -0.4616
12281SOL     OW37420   1.356   9.016   2.660  0.3281  0.1912  0.3759
12281SOL    HW137421   1.288   8.993   2.596  1.1313 -1.2287 -0.0218
12281SOL    HW237422   1.407   9.084   2.617  0.0920  0.1490  0.0227
12282SOL     OW37423   8.171   4.189   9.751 -0.3192 -0.0595  0.6417
12282SOL    HW137424   8.179   4.106   9.799  0.9257 -1.4957 -1.8681
12282SOL    HW237425   8.120   4.245   9.810 -0.0592 -2.1176  3.0193
12283SOL     OW37426   3.760   0.512   0.458  0.2471 -0.4884  0.0224
12283SOL    HW137427   3.821   0.585   0.469  0.5493 -0.4089 -1.8196
12283SOL    HW237428   3.783   0.475   0.372 -1.2151 -1.5037  0.0358
12284SOL     OW37429   8.074   1.155   4.834 -0.4007  0.5653 -0.2028
12284SOL    HW137430   8.022   1.231   4.858 -0.8070  0.7135 -1.4689
12284SOL    HW237431   8.114   1.126   4.916 -0.5015  1.9318  0.3529
12285SOL     OW37432   2.353   7.710   8.273  0.0739  0.4297  0.0016
12285SOL    HW137433   2.361   7.655   8.351  0.0286  0.7588  0.2397
12285SOL    HW237434   2.265   7.747   8.279  0.2235  0.7881  0.0139
12286SOL     OW37435   2.140   3.657   1.462 -0.4559 -0.0949 -0.0721
12286SOL    HW137436   2.090   3.731   1.497 -1.2708 -0.4909 -0.3671
12286SOL    HW237437   2.127   3.587   1.527  0.4370  0.0539  0.2833
12287SOL     OW37438   5.400   7.810   9.875 -0.1848 -0.0966  0.1967
12287SOL    HW137439   5.489   7.842   9.885 -0.2400 -0.1328  0.8930
12287SOL    HW237440   5.404   7.719   9.906  0.0593 -0.9397 -2.1234
12288SOL     OW37441   8.824   6.601   4.853 -0.8470  0.2205  0.0215
12288SOL    HW137442   8.800   6.548   4.930 -2.2856  0.9325  0.0955
12288SOL    HW237443   8.780   6.684   4.867 -0.6690  0.5549 -1.3287
12289SOL     OW37444   9.296   7.945   2.113  0.1673 -0.0380 -0.5020
12289SOL    HW137445   9.227   7.893   2.154  0.7046 -0.2642  0.1403
12289SOL    HW237446   9.313   7.901   2.030 -2.3013  1.5391 -1.9722
12290SOL     OW37447   4.658   6.514   3.086 -0.0122  0.3702  0.0742
12290SOL    HW137448   4.563   6.504   3.089 -0.1111  0.2833 -1.9753
12290SOL    HW237449   4.673   6.584   3.023  1.2850  0.9599  0.9821
12291SOL     OW37450   4.289   3.537   9.941 -0.1857 -0.2150 -0.3325
12291SOL    HW137451   4.356   3.524   9.873  1.0511 -0.7798  0.9430
12291SOL    HW237452   4.337   3.530  10.023 -2.0207 -2.0090  0.6829
12292SOL     OW37453   4.274   8.227   2.507  0.0717  0.5466  0.3919
12292SOL    HW137454   4.332   8.289   2.463 -0.2958  1.5643  1.2815
12292SOL    HW237455   4.193   8.230   2.456  0.1557  0.5642  0.2580
12293SOL     OW37456   5.527   2.817   6.438  0.9067  0.1698  0.0202
12293SOL    HW137457   5.556   2.825   6.529  0.7610 -0.5953  0.1355
12293SOL    HW237458   5.445   2.867   6.435 -0.4021 -1.8098  0.9209
12294SOL     OW37459   8.772   8.125   0.579 -0.4957  0.7771 -0.7177
12294SOL    HW137460   8.746   8.211   0.546  0.8400  0.8431 -1.6803
12294SOL    HW237461   8.859   8.139   0.616 -0.6002 -0.0044 -0.1474
12295SOL     OW37462   2.605   5.765   5.582 -0.2095 -0.4315 -0.8138
12295SOL    HW137463   2.550   5.726   5.650  0.1887  0.8576  0.3139
12295SOL    HW237464   2.638   5.691   5.532  1.5045 -1.7023  1.9465
12296SOL     OW37465   2.070   5.059   3.631  0.0657 -1.0461  0.3790
12296SOL    HW137466   2.155   5.059   3.587 -0.0730 -1.6584  0.1032
12296SOL    HW237467   2.011   5.102   3.568 -0.0685 -1.6523  0.0820
12297SOL     OW37468   9.481   4.356   8.904  0.1629  0.0892  0.4262
12297SOL    HW137469   9.534   4.379   8.980  0.0327  0.5916  0.3719
12297SOL    HW237470   9.541   4.362   8.830  0.4543 -1.0582  0.5607
12298SOL     OW37471   9.675   4.147   3.031  0.4133 -0.2970  0.0928
12298SOL    HW137472   9.701   4.055   3.019 -2.2460 -1.3260  1.3636
12298SOL    HW237473   9.676   4.160   3.125 -0.2805  0.6495 -0.0234
12299SOL     OW37474   1.270   5.135   9.715  1.0046 -0.2662 -0.1086
12299SOL    HW137475   1.226   5.158   9.797 -2.6627 -0.1282 -1.9053
12299SOL    HW237476   1.239   5.201   9.653  2.5991 -1.1496 -1.9367
12300SOL     OW37477   1.546   4.606   8.289 -0.0400 -0.4058  0.3014
12300SOL    HW137478   1.574   4.694   8.313  1.0361 -0.7085  0.2009
12300SOL    HW237479   1.627   4.557   8.278 -0.6143 -1.2913 -0.1081
12301SOL     OW37480   2.754   7.501   3.787  0.4355 -0.9090  0.4504
12301SOL    HW137481   2.682   7.508   3.850 -0.1185 -0.0475 -0.2485
12301SOL    HW237482   2.734   7.422   3.737  0.0990 -0.8082  0.4214
12302SOL     OW37483   3.646   1.283   4.095 -0.3317 -0.4073  0.1686
12302SOL    HW137484   3.602   1.279   4.179 -0.4058 -0.3411  0.1326
12302SOL    HW237485   3.675   1.193   4.079  0.0102 -0.3489  0.4399
12303SOL     OW37486   5.367   0.101   5.835  0.3931 -0.1348 -0.1954
12303SOL    HW137487   5.453   0.123   5.871 -0.6604  1.1076  1.7866
12303SOL    HW237488   5.318   0.183   5.840 -1.0868 -0.9551 -0.7119
12304SOL     OW37489   7.739   3.164   7.437  0.1215 -0.3163  0.1230
12304SOL    HW137490   7.800   3.167   7.363 -0.9802 -0.8756 -0.8559
12304SOL    HW237491   7.658   3.129   7.399  0.1141 -2.6109  2.0405
12305SOL     OW37492   1.211   2.115   0.177 -0.2886  0.2784  0.2916
12305SOL    HW137493   1.183   2.111   0.269 -0.5164  0.5351  0.2298
12305SOL    HW237494   1.296   2.159   0.180  0.6727 -1.4936  0.6085
12306SOL     OW37495   8.425   9.192   5.102 -0.0020 -0.5371 -0.6402
12306SOL    HW137496   8.376   9.219   5.025 -0.0985 -2.3217 -1.2630
12306SOL    HW237497   8.433   9.097   5.093  0.4702 -0.7217  1.2753
12307SOL     OW37498   3.950   3.494   4.384  0.2930 -0.5172  0.1662
12307SOL    HW137499   4.016   3.453   4.440  1.6118 -0.8502 -1.5401
12307SOL    HW237500   3.977   3.585   4.379 -0.7060 -0.1386  1.2546
12308SOL     OW37501   3.962   0.921   0.631 -0.0663  0.2833 -0.7195
12308SOL    HW137502   3.897   0.968   0.578  0.4197 -0.3622 -1.9153
12308SOL    HW237503   4.032   0.984   0.644 -0.3745  0.5806 -0.4817
12309SOL     OW37504   8.219   4.804   9.898  0.4679  0.0628 -0.1017
12309SOL    HW137505   8.134   4.790   9.940  1.2513 -0.0781  1.5503
12309SOL    HW237506   8.216   4.749   9.820  0.1856 -2.5979  1.6216
12310SOL     OW37507   5.035   4.206   0.372  0.7376 -0.0818 -0.4445
12310SOL    HW137508   5.041   4.210   0.468 -3.0318  1.3988 -0.1211
12310SOL    HW237509   5.012   4.116   0.353  0.5038 -0.1533  0.1461
12311SOL     OW37510   1.610   9.892   8.091 -0.2768  0.5335  0.4467
12311SOL    HW137511   1.622   9.840   8.170  0.3246 -0.3029 -0.1774
12311SOL    HW237512   1.599   9.981   8.122 -0.8858  0.1019  1.5158
12312SOL     OW37513   3.458   7.648   8.414 -0.5256 -0.2295  0.7679
12312SOL    HW137514   3.473   7.655   8.320 -2.3118 -0.8901  0.4047
12312SOL    HW237515   3.493   7.563   8.438  1.0973  0.4576  0.9849
12313SOL     OW37516   4.566   7.201   6.385  0.3967  0.0621 -0.0590
12313SOL    HW137517   4.601   7.278   6.341 -1.6043  1.7192  1.1134
12313SOL    HW237518   4.485   7.181   6.338 -0.0587 -0.1698  0.8034
12314SOL     OW37519   9.449   9.227   6.257  0.2853 -0.4424  0.4695
12314SOL    HW137520   9.378   9.224   6.192  1.7336 -1.1526 -1.1473
12314SOL    HW237521   9.498   9.306   6.235  1.6338 -1.4486 -0.2921
12315SOL     OW37522   4.986   0.934   7.201 -0.0257  0.0166  0.2890
12315SOL    HW137523   5.047   1.006   7.184  1.0324  0.3210  4.3816
12315SOL    HW237524   4.906   0.976   7.229  0.4130 -0.3099  2.1531
12316SOL     OW37525   4.200   6.958   7.680 -0.1591 -0.3245  0.3796
12316SOL    HW137526   4.140   6.912   7.739 -1.7383 -1.6597 -2.0824
12316SOL    HW237527   4.161   7.045   7.670  0.0379 -0.1422  1.1791
12317SOL     OW37528   3.007   8.824   1.184  0.2667  0.3223 -0.1783
12317SOL    HW137529   2.957   8.755   1.228  1.3345 -0.4724 -0.1559
12317SOL    HW237530   3.046   8.875   1.255  0.4807  0.1813 -0.1926
12318SOL     OW37531   0.968   5.032   1.378  0.8442  0.4970 -0.2107
12318SOL    HW137532   1.022   5.061   1.305  0.8474  2.4428  0.5096
12318SOL    HW237533   1.031   5.006   1.445  0.9553  2.4341  0.4993
12319SOL     OW37534   9.425   9.120   2.351  0.3900  0.7619  0.2446
12319SOL    HW137535   9.462   9.033   2.365  0.7054  0.7757 -0.4531
12319SOL    HW237536   9.336   9.115   2.386  1.1651  0.8427  2.3527
12320SOL     OW37537   4.023   6.645   3.851  0.3670 -0.0138  0.9671
12320SOL    HW137538   4.036   6.611   3.939  1.0947 -1.0108  0.4898
12320SOL    HW237539   3.976   6.575   3.805 -0.4869  0.7134  0.6935
12321SOL     OW37540   2.624   5.723   7.005  0.5551  0.2849 -0.0306
12321SOL    HW137541   2.605   5.714   6.911 -2.6968 -2.2119  0.7181
12321SOL    HW237542   2.582   5.804   7.030  1.4406  0.9699 -0.6948
12322SOL     OW37543   9.445   8.199   8.407 -0.3992  0.1873 -1.1457
12322SOL    HW137544   9.422   8.173   8.496 -0.6011 -2.2864 -1.8696
12322SOL    HW237545   9.501   8.276   8.419 -0.6800  0.1083  1.0813
12323SOL     OW37546   5.174   1.026   6.559  0.0362  0.2152 -0.3646
12323SOL    HW137547   5.255   0.976   6.572 -2.0402 -3.1123  1.0238
12323SOL    HW237548   5.144   1.000   6.472 -1.5089 -1.8875  0.7093
12324SOL     OW37549   8.227   2.658   8.749 -0.1740 -0.5601 -0.1418
12324SOL    HW137550   8.139   2.671   8.782  0.0197 -1.2279  0.6568
12324SOL    HW237551   8.238   2.563   8.745  1.0729 -0.5067  1.3294
12325SOL     OW37552   0.766   2.469   0.623  0.1736 -0.0286  0.0017
12325SOL    HW137553   0.780   2.460   0.529  0.7446  0.0961  0.0748
12325SOL    HW237554   0.759   2.379   0.655 -4.0633 -0.1740 -0.7239
12326SOL     OW37555   6.710   8.841   5.763  0.0507 -0.0048  0.2141
12326SOL    HW137556   6.684   8.932   5.745 -0.6485 -0.2622 -0.0945
12326SOL    HW237557   6.775   8.821   5.695 -0.5882 -0.0828 -0.3829
12327SOL     OW37558   3.099   2.774   9.908  0.0005 -0.3591 -0.1999
12327SOL    HW137559   3.143   2.755   9.990  2.0694  1.7401 -0.7123
12327SOL    HW237560   3.069   2.865   9.917 -2.1661 -0.9360 -0.8166
12328SOL     OW37561   5.996   4.591   4.012  0.2136 -0.1717  0.4369
12328SOL    HW137562   5.942   4.623   4.084  0.4450 -0.1368  0.5955
12328SOL    HW237563   6.084   4.622   4.032  0.4909 -1.1123  0.7299
12329SOL     OW37564   2.636   5.355   3.948  0.0776 -0.3892 -0.0201
12329SOL    HW137565   2.567   5.392   3.893 -0.0191  0.1822  0.4732
12329SOL    HW237566   2.697   5.315   3.887 -0.5259 -0.6077 -0.4816
12330SOL     OW37567   5.397   6.351   8.250 -0.0363 -0.1834  0.7665
12330SOL    HW137568   5.446   6.401   8.316  0.9855  2.2104 -1.5906
12330SOL    HW237569   5.358   6.418   8.194 -1.3690 -2.0884 -0.7141
12331SOL     OW37570   3.871   6.001   6.617  0.7256 -0.5565 -0.0837
12331SOL    HW137571   3.960   6.030   6.596  1.3623 -0.0335  2.9070
12331SOL    HW237572   3.875   5.906   6.612  0.7346 -0.4973 -2.3006
12332SOL     OW37573   7.628   7.990   7.227  0.3795 -0.5968 -0.1565
12332SOL    HW137574   7.578   8.070   7.244  0.5566 -0.9125  2.1014
12332SOL    HW237575   7.689   7.983   7.300  1.2842 -2.1253 -0.9956
12333SOL     OW37576   0.528   0.875   9.148 -0.1905  0.3901  0.1710
12333SOL    HW137577   0.614   0.905   9.118 -0.3467  1.4553  0.7610
12333SOL    HW237578   0.544   0.842   9.237 -0.3920  0.5874  0.2804
12334SOL     OW37579   8.534   7.762   1.270 -0.3723 -0.3538  0.5532
12334SOL    HW137580   8.540   7.732   1.179  0.8324  0.1991  0.4219
12334SOL    HW237581   8.456   7.816   1.273  0.1458  0.4935 -0.4405
12335SOL     OW37582   7.433   6.171   9.333  0.1971 -0.2600  0.1592
12335SOL    HW137583   7.484   6.109   9.282 -2.0369 -0.7353 -1.6457
12335SOL    HW237584   7.451   6.256   9.293  2.9893  0.3544  2.4167
12336SOL     OW37585   2.116   6.464   1.848 -0.6656 -0.4831  0.3061
12336SOL    HW137586   2.200   6.480   1.892  0.5162  0.3479 -2.0873
12336SOL    HW237587   2.058   6.533   1.880  0.2041  0.1957  0.4491
12337SOL     OW37588   9.202   0.543   4.584 -0.1019  0.2068  0.0776
12337SOL    HW137589   9.292   0.512   4.573  0.1735  1.6051 -2.4499
12337SOL    HW237590   9.211   0.631   4.622 -0.2441  0.8721 -1.3346
12338SOL     OW37591   3.145   2.279   4.143 -0.6005 -0.0891  0.8744
12338SOL    HW137592   3.176   2.226   4.217 -1.2622  0.5698  1.6427
12338SOL    HW237593   3.182   2.366   4.159  0.1637 -0.2001 -0.1739
12339SOL     OW37594   0.326   2.342   8.855 -0.1859 -0.0643 -0.5483
12339SOL    HW137595   0.343   2.248   8.847 -1.4066 -0.2059 -2.0317
12339SOL    HW237596   0.407   2.384   8.826  0.3437 -0.6452  0.0595
12340SOL     OW37597   8.211   9.733   8.420  0.1012  0.1005 -0.6605
12340SOL    HW137598   8.305   9.750   8.425  0.2649 -0.7664 -0.6605
12340SOL    HW237599   8.186   9.763   8.333  0.0970  1.6198 -0.1650
12341SOL     OW37600   9.871   7.026   9.895  0.0215  0.2631 -0.1407
12341SOL    HW137601   9.850   7.083   9.821 -1.6652 -1.4622 -1.0885
12341SOL    HW237602   9.827   6.944   9.875 -0.1627 -0.4072  2.6283
12342SOL     OW37603   6.328   8.775   1.350  0.3940 -0.1380 -0.3162
12342SOL    HW137604   6.294   8.761   1.438 -0.5729 -0.4395 -0.7233
12342SOL    HW237605   6.398   8.710   1.341  0.7603  0.1499  0.3546
12343SOL     OW37606   5.661   4.411   1.325 -0.0913  0.1813 -0.2618
12343SOL    HW137607   5.566   4.409   1.338 -0.2831  0.3293 -1.5028
12343SOL    HW237608   5.698   4.407   1.413 -1.2419 -0.3302  0.2137
12344SOL     OW37609   9.807   6.778   8.021  0.0680 -0.2449 -0.3254
12344SOL    HW137610   9.896   6.785   8.055  0.0276  3.4137 -0.5561
12344SOL    HW237611   9.819   6.768   7.927  0.2938  0.8207 -0.4270
12345SOL     OW37612   3.981   9.850   5.291  0.3511 -0.0962 -0.1199
12345SOL    HW137613   4.018   9.814   5.210  0.9900 -1.6169  0.7962
12345SOL    HW237614   3.887   9.851   5.277  0.4915  0.2402 -1.0988
12346SOL     OW37615   7.720   7.622   2.014 -0.4275 -0.0830  0.1710
12346SOL    HW137616   7.688   7.633   2.104 -0.5430 -3.2041  0.6054
12346SOL    HW237617   7.787   7.553   2.020  0.9876  0.9758 -1.8896
12347SOL     OW37618   9.381   8.311   3.810 -0.6589 -0.5048 -0.0756
12347SOL    HW137619   9.397   8.327   3.903  3.0735  1.0526 -0.8039
12347SOL    HW237620   9.421   8.227   3.792  0.1078 -0.0517 -0.5474
12348SOL     OW37621   6.662   1.401   8.956  0.3201  0.4544  0.4012
12348SOL    HW137622   6.673   1.306   8.959 -3.1758 -0.0765  1.2972
12348SOL    HW237623   6.625   1.419   8.870  1.5702  1.1522 -0.0217
12349SOL     OW37624   4.237   5.284   6.261  0.0880  0.3355 -0.1973
12349SOL    HW137625   4.315   5.295   6.315 -1.2585  1.2430  1.6855
12349SOL    HW237626   4.236   5.361   6.204 -0.3480  1.3005  1.0595
12350SOL     OW37627   8.409   7.628   5.203 -0.1370  0.4374 -0.0847
12350SOL    HW137628   8.342   7.604   5.139  0.8873 -0.0920 -0.9977
12350SOL    HW237629   8.473   7.556   5.199  1.2571  1.6276 -0.3574
12351SOL     OW37630   9.519   1.487   7.612 -0.0413 -0.1314 -0.6030
12351SOL    HW137631   9.510   1.445   7.527  1.8428 -3.9072  0.8501
12351SOL    HW237632   9.434   1.474   7.654  0.0207 -1.1631 -0.7641
12352SOL     OW37633   5.238   0.690   0.821  0.2824 -0.2912 -0.2956
12352SOL    HW137634   5.151   0.651   0.808 -0.1955  0.3807  0.7521
12352SOL    HW237635   5.284   0.629   0.878  0.3751 -0.4880 -0.5837
12353SOL     OW37636   1.519   4.243   1.384  0.1774 -0.1326  0.1339
12353SOL    HW137637   1.588   4.308   1.370  0.7956 -0.2753  2.1865
12353SOL    HW237638   1.439   4.295   1.397  0.2364  0.1101 -0.4458
12354SOL     OW37639   0.597   2.620   5.105  0.6238 -0.5033 -0.2683
12354SOL    HW137640   0.544   2.548   5.072  3.6526 -1.2060 -4.4738
12354SOL    HW237641   0.550   2.699   5.079  0.7917 -1.0968 -2.5596
12355SOL     OW37642   2.288   7.831   0.812  0.7492  0.6116  0.4855
12355SOL    HW137643   2.272   7.926   0.806 -0.0962  0.4854  0.6308
12355SOL    HW237644   2.357   7.823   0.877 -0.1371  1.0504  1.5137
12356SOL     OW37645   5.759   1.863   1.408  0.1779  0.0822 -0.1790
12356SOL    HW137646   5.818   1.838   1.337  1.3573  0.3401  0.6841
12356SOL    HW237647   5.734   1.953   1.386  1.3102  0.5091  0.2154
12357SOL     OW37648   0.173   9.075   3.343 -0.3729 -0.0293  0.5323
12357SOL    HW137649   0.098   9.123   3.309  0.5004  1.1189  0.1317
12357SOL    HW237650   0.138   9.018   3.411 -1.7358 -0.2332 -0.3115
12358SOL     OW37651   7.481   4.906   7.771 -0.3714  0.6354  0.1069
12358SOL    HW137652   7.415   4.836   7.773  0.1956  0.0020  3.1612
12358SOL    HW237653   7.561   4.861   7.745  0.0336 -0.0145  2.2480
12359SOL     OW37654   3.969   7.043   1.640  0.0744 -0.3799  0.4925
12359SOL    HW137655   4.032   7.001   1.699 -0.5908 -1.1264  0.6928
12359SOL    HW237656   3.888   6.994   1.654  0.0843 -1.0686 -1.5698
12360SOL     OW37657   2.313   7.689   6.465 -0.4174 -0.0719  0.1194
12360SOL    HW137658   2.272   7.627   6.405 -0.4599 -0.4711  0.5614
12360SOL    HW237659   2.333   7.638   6.543  0.6692  0.1786  0.0269
12361SOL     OW37660   6.053   7.908   6.616 -0.0219 -0.1891 -0.6623
12361SOL    HW137661   6.129   7.957   6.584  0.4310 -0.0265  0.5998
12361SOL    HW237662   6.091   7.827   6.652 -0.7073 -1.2776 -2.2729
12362SOL     OW37663   2.764   1.503   7.273  0.0130  0.1704  0.3155
12362SOL    HW137664   2.699   1.432   7.273 -0.2786  0.3879  2.0893
12362SOL    HW237665   2.721   1.574   7.321  0.1804  1.7115 -1.6815
12363SOL     OW37666   2.616   0.520   5.644  0.0323 -0.1084 -0.1500
12363SOL    HW137667   2.567   0.589   5.599  1.3728  1.5491  0.7645
12363SOL    HW237668   2.567   0.440   5.628 -2.0440  1.1870 -0.6205
12364SOL     OW37669   7.971   7.303   2.369 -0.6254  0.5631  0.0161
12364SOL    HW137670   7.943   7.381   2.416  0.7919  0.9127  0.3238
12364SOL    HW237671   7.960   7.232   2.432 -2.8139  0.3168 -0.5681
12365SOL     OW37672   1.125   8.333   2.506 -0.3415 -0.2077 -0.7183
12365SOL    HW137673   1.203   8.372   2.467 -0.7116 -1.0334 -2.3831
12365SOL    HW237674   1.070   8.309   2.431 -1.2731 -1.5325  0.3303
12366SOL     OW37675   6.798   7.763   8.050 -0.0948 -0.1328 -0.7893
12366SOL    HW137676   6.794   7.801   8.138  1.2656 -2.5460  0.4278
12366SOL    HW237677   6.737   7.816   7.999 -0.9004  1.4178  1.5757
12367SOL     OW37678   1.228   3.005   9.263 -0.7654 -0.0521  0.3248
12367SOL    HW137679   1.190   3.092   9.272 -0.5092  0.0742  0.1926
12367SOL    HW237680   1.210   2.979   9.173  0.0961  0.3131  0.0407
12368SOL     OW37681   3.937   1.406   1.180  0.5407  0.0583  0.3147
12368SOL    HW137682   3.882   1.482   1.198  0.8889 -0.1107  2.4670
12368SOL    HW237683   4.024   1.432   1.211  1.5537  0.0357 -2.2742
12369SOL     OW37684   6.019   6.884   0.636 -0.4081  0.5078 -0.1035
12369SOL    HW137685   5.957   6.891   0.563  0.0963 -0.8141 -0.6951
12369SOL    HW237686   5.999   6.800   0.677  1.7052 -0.5268 -1.0341
12370SOL     OW37687   6.201   2.324   5.505 -0.3603  0.6888 -0.0300
12370SOL    HW137688   6.169   2.315   5.595 -0.7686  2.6038  0.0542
12370SOL    HW237689   6.272   2.388   5.511 -0.4264  0.8799 -1.0822
12371SOL     OW37690   9.511   0.695   1.622 -0.3538  0.0033  0.3743
12371SOL    HW137691   9.559   0.613   1.635  1.0497  0.6487 -0.4392
12371SOL    HW237692   9.430   0.668   1.578  0.3682 -0.9166 -0.4670
12372SOL     OW37693   7.331   2.324   2.939 -0.0831  0.4184 -0.0503
12372SOL    HW137694   7.349   2.263   3.011  0.7283 -0.4410 -0.9454
12372SOL    HW237695   7.237   2.337   2.940 -0.1540 -0.1343  0.7278
12373SOL     OW37696   7.512   7.980   4.587 -0.5626 -0.0291  0.0560
12373SOL    HW137697   7.460   7.919   4.535 -1.9102  1.0708  0.0726
12373SOL    HW237698   7.531   7.932   4.668  2.2382 -2.0748 -1.6074
12374SOL     OW37699   8.313   0.686   4.694 -0.0370 -0.2425  0.0645
12374SOL    HW137700   8.339   0.721   4.609 -1.7045  1.9721  0.3665
12374SOL    HW237701   8.231   0.641   4.677 -0.7842  0.8822  0.5864
12375SOL     OW37702   6.164   3.668   9.155  0.1333  0.0490 -0.3649
12375SOL    HW137703   6.200   3.599   9.211  3.1920  1.3918 -0.4570
12375SOL    HW237704   6.199   3.749   9.192 -0.9144  1.3156 -1.9971
12376SOL     OW37705   4.777   7.541   1.843 -0.0100 -0.3292 -0.2372
12376SOL    HW137706   4.702   7.524   1.786 -0.9758 -0.5373  1.0407
12376SOL    HW237707   4.831   7.462   1.836 -0.3862 -0.5687 -0.4780
12377SOL     OW37708   3.244   5.714   6.271  0.8087 -0.4564 -0.2586
12377SOL    HW137709   3.332   5.746   6.291  1.2262 -1.7222  0.0380
12377SOL    HW237710   3.244   5.623   6.302 -0.1100 -0.9555 -1.6161
12378SOL     OW37711   1.306   8.180   1.306  0.0956  0.7963  0.0458
12378SOL    HW137712   1.231   8.161   1.249 -0.0960  0.3915  0.4341
12378SOL    HW237713   1.335   8.267   1.277  0.6888  0.1471 -1.4332
12379SOL     OW37714   6.693   9.087   6.816  0.7989 -0.1330  0.1662
12379SOL    HW137715   6.654   9.152   6.758 -0.6778 -0.5720  0.6022
12379SOL    HW237716   6.637   9.009   6.805  1.5922 -0.8103  0.8031
12380SOL     OW37717   6.410   3.410   1.611  0.4306 -0.4561  0.0449
12380SOL    HW137718   6.387   3.376   1.697  0.3990 -1.3583 -0.3146
12380SOL    HW237719   6.326   3.425   1.567  0.4130  0.8929  0.4936
12381SOL     OW37720   4.896   2.120   3.360  0.3997  0.0286 -0.4158
12381SOL    HW137721   4.837   2.087   3.428 -1.2363  0.0598 -1.7686
12381SOL    HW237722   4.864   2.209   3.343  2.1556  0.8469  0.2461
12382SOL     OW37723   0.734   5.102   1.563  0.2437 -0.0140 -0.0634
12382SOL    HW137724   0.793   5.069   1.494 -1.2012 -1.1467 -0.8030
12382SOL    HW237725   0.778   5.078   1.645  1.8046  1.0093 -0.5504
12383SOL     OW37726   3.338   4.075   7.564 -0.1904  0.4096  0.8768
12383SOL    HW137727   3.267   4.070   7.628 -1.2756  1.2319 -0.2092
12383SOL    HW237728   3.324   4.158   7.519  0.8730  0.1111 -0.0652
12384SOL     OW37729   1.196   8.840   1.236 -0.4176 -0.2052  0.3257
12384SOL    HW137730   1.187   8.914   1.176  0.6007  0.4013  0.8695
12384SOL    HW237731   1.143   8.865   1.312 -1.6460 -0.9381 -0.2626
12385SOL     OW37732   9.980   7.445   7.046  0.6500 -0.4883  0.3300
12385SOL    HW137733   9.892   7.408   7.034 -0.3294  1.4934  1.0259
12385SOL    HW237734   9.969   7.539   7.029  2.6445 -0.2002  0.4374
12386SOL     OW37735   3.246   8.469   3.361  0.1515 -0.5681  0.3524
12386SOL    HW137736   3.249   8.463   3.457  0.7874  0.2114  0.3947
12386SOL    HW237737   3.153   8.460   3.340 -0.2158  0.9397  1.1842
12387SOL     OW37738   6.242   6.250   3.485  0.0077  0.3513 -0.1415
12387SOL    HW137739   6.311   6.185   3.499 -0.1661  0.1898 -0.0253
12387SOL    HW237740   6.192   6.249   3.567 -1.2251 -0.8394 -0.8527
12388SOL     OW37741   1.852   8.702   0.552 -0.0034 -0.1379 -0.0921
12388SOL    HW137742   1.912   8.717   0.624  1.0046  1.2621 -1.1570
12388SOL    HW237743   1.907   8.663   0.483 -0.5964 -0.0345 -0.6321
12389SOL     OW37744   4.302   6.976   5.503 -0.1429  0.4896  0.2795
12389SOL    HW137745   4.232   6.916   5.531  0.7846  0.0375  1.7319
12389SOL    HW237746   4.380   6.921   5.497  0.1000  0.9744 -1.3945
12390SOL     OW37747   3.446   4.098   3.047  0.2961  0.0551  0.3012
12390SOL    HW137748   3.410   4.009   3.051  0.4499 -0.0480 -0.4767
12390SOL    HW237749   3.460   4.114   2.954 -0.2099  1.0875  0.3872
12391SOL     OW37750   7.591   3.502   1.480  0.5737 -0.2826  0.1085
12391SOL    HW137751   7.610   3.510   1.386 -1.3689  0.1091 -0.2900
12391SOL    HW237752   7.562   3.411   1.491 -1.2287  0.2338 -0.1063
12392SOL     OW37753   3.647   2.513   8.888 -0.1038  0.0686  0.0883
12392SOL    HW137754   3.654   2.603   8.920 -0.6742  0.3364 -0.5182
12392SOL    HW237755   3.727   2.470   8.918  0.5670  0.9961 -0.3244
12393SOL     OW37756   0.562   2.991   9.958  0.1326  0.0924  0.4889
12393SOL    HW137757   0.564   3.061   9.893  0.6393 -1.9052 -1.8325
12393SOL    HW237758   0.474   2.954   9.951  0.6203 -1.0170 -0.1614
12394SOL     OW37759   9.828   5.591   3.883 -0.0180  0.5005 -0.1875
12394SOL    HW137760   9.898   5.618   3.823 -0.0041  0.5789 -0.1372
12394SOL    HW237761   9.875   5.550   3.956 -0.0787 -0.3938 -0.6328
12395SOL     OW37762   2.873   3.864   5.489 -0.2006  0.3398  0.3823
12395SOL    HW137763   2.803   3.847   5.427  3.6907 -1.2105 -4.2021
12395SOL    HW237764   2.872   3.789   5.548 -0.9117 -0.9900 -1.2283
12396SOL     OW37765   8.323   1.063   0.385  0.2540 -0.0441  0.2757
12396SOL    HW137766   8.259   1.113   0.435 -0.4280  1.5250 -2.0157
12396SOL    HW237767   8.272   1.018   0.318  1.3032 -0.6179 -0.1666
12397SOL     OW37768   4.490   5.166   9.821  0.1141  0.3700 -0.1472
12397SOL    HW137769   4.454   5.135   9.738 -0.0472  3.0835 -1.1741
12397SOL    HW237770   4.431   5.131   9.888 -0.1466 -1.2854 -1.2000
12398SOL     OW37771   7.612   4.906   9.645  0.3969  0.2534  0.0902
12398SOL    HW137772   7.592   4.839   9.579 -1.0538  0.8534 -0.1079
12398SOL    HW237773   7.632   4.985   9.593  1.5502  0.1354  0.3331
12399SOL     OW37774   3.443   0.217   2.782 -0.4650 -0.0543  0.5566
12399SOL    HW137775   3.494   0.197   2.704 -0.9617 -1.7347  0.6213
12399SOL    HW237776   3.418   0.309   2.772  0.2719  0.0160 -0.7847
12400SOL     OW37777   8.483   1.203   1.335 -0.3888  0.7663 -0.3149
12400SOL    HW137778   8.458   1.259   1.262 -0.2485  0.4048 -0.6449
12400SOL    HW237779   8.574   1.180   1.319 -0.2107  1.0681  0.2300
12401SOL     OW37780   0.091   3.649   8.345 -0.9227 -0.1377 -0.5544
12401SOL    HW137781   0.076   3.743   8.331 -2.7977 -0.4130 -0.6443
12401SOL    HW237782   0.168   3.629   8.291 -0.9541  1.1953 -1.1271
12402SOL     OW37783   1.960   8.040   4.762 -0.4122 -0.2846 -0.4059
12402SOL    HW137784   1.992   7.967   4.709  1.2313  0.3161 -0.3276
12402SOL    HW237785   2.034   8.101   4.765 -1.2878  0.7812  0.6138
12403SOL     OW37786   0.997   1.274   5.994 -0.2088  0.0699  0.3969
12403SOL    HW137787   1.082   1.317   5.982  0.6270 -0.6818  3.0063
12403SOL    HW237788   0.966   1.305   6.079 -3.8259  2.2270 -1.5035
12404SOL     OW37789   7.038   7.653   8.734  0.1319 -0.1015  0.4408
12404SOL    HW137790   6.957   7.626   8.776  0.8973  1.3992  3.1539
12404SOL    HW237791   7.090   7.572   8.728 -0.0255 -0.4067  2.5117
12405SOL     OW37792   5.368   5.049   0.566  0.0945 -0.2936  0.7556
12405SOL    HW137793   5.348   4.974   0.510  0.5375 -0.2663  0.5607
12405SOL    HW237794   5.284   5.093   0.577  0.1228  0.0799 -0.4340
12406SOL     OW37795   1.393   8.012   6.919 -0.1958  0.1191 -0.5845
12406SOL    HW137796   1.317   8.070   6.919  0.8380  1.5361  0.3778
12406SOL    HW237797   1.468   8.070   6.913  0.8465 -1.2626 -1.7737
12407SOL     OW37798   5.061   7.162   9.523 -0.1120  0.0383 -0.5308
12407SOL    HW137799   5.027   7.251   9.525  2.0095  0.9172 -0.7662
12407SOL    HW237800   4.994   7.111   9.477 -0.8247  1.7568 -1.4672
12408SOL     OW37801   4.253   9.743   1.973 -0.3917  0.0063 -0.5956
12408SOL    HW137802   4.279   9.667   1.920  0.2725 -1.2418  1.4051
12408SOL    HW237803   4.176   9.778   1.929 -0.6094 -1.7316 -1.6804
12409SOL     OW37804   4.237   0.885   1.424 -0.1692  0.1795 -0.1419
12409SOL    HW137805   4.152   0.908   1.462 -1.6173  1.0822 -3.5178
12409SOL    HW237806   4.254   0.796   1.453 -2.7417 -0.3445 -0.0576
12410SOL     OW37807   2.238   5.996   4.787 -0.2130 -0.0294  0.2191
12410SOL    HW137808   2.201   5.916   4.826  1.3651 -0.5021  0.7912
12410SOL    HW237809   2.221   5.987   4.693 -1.0961 -0.4600  0.4084
12411SOL     OW37810   0.007   7.406   9.829 -0.4237 -0.3816  0.0689
12411SOL    HW137811  -0.078   7.386   9.870 -0.8405 -2.4981 -1.6244
12411SOL    HW237812   0.071   7.367   9.888 -0.6260  0.6567  1.0229
12412SOL     OW37813   3.186   4.808   8.373  0.4787 -0.1338 -0.3417
12412SOL    HW137814   3.162   4.813   8.280  2.2197 -0.7784 -0.8522
12412SOL    HW237815   3.125   4.868   8.416  0.2689  0.9305 -2.0182
12413SOL     OW37816   6.505   5.554   7.850 -0.0799  0.1164  0.1998
12413SOL    HW137817   6.411   5.554   7.829 -0.4935 -0.5235  1.8242
12413SOL    HW237818   6.540   5.481   7.800 -0.3684  0.5631 -0.6800
12414SOL     OW37819   6.604   1.028   7.154  0.1569 -0.3668 -0.6298
12414SOL    HW137820   6.672   0.963   7.137 -1.2711 -2.1822  0.2018
12414SOL    HW237821   6.646   1.094   7.209  0.9041 -2.2622  1.2020
12415SOL     OW37822   8.688   8.444   5.455 -0.3233 -0.2438  0.0874
12415SOL    HW137823   8.681   8.384   5.530 -0.7134 -0.9959 -0.5381
12415SOL    HW237824   8.687   8.387   5.379 -0.7545  0.5710 -0.5290
12416SOL     OW37825   4.077   7.988   7.186  0.0323  0.6666  0.5998
12416SOL    HW137826   4.039   7.946   7.109  0.1818  1.5895  0.0003
12416SOL    HW237827   4.002   8.002   7.245 -0.4158  1.5891 -0.1610
12417SOL     OW37828   4.255   5.227   4.287  0.3950 -0.2239  0.1794
12417SOL    HW137829   4.257   5.310   4.239  1.0737 -0.4586 -0.2074
12417SOL    HW237830   4.263   5.254   4.379  0.0836  0.1723  0.0939
12418SOL     OW37831   5.885   4.977   4.652  0.7667 -0.0309 -0.2935
12418SOL    HW137832   5.813   4.984   4.715  0.9981  0.4296 -0.0722
12418SOL    HW237833   5.903   4.883   4.645  1.3306 -0.0351  1.0056
12419SOL     OW37834   3.644   8.882   5.516 -0.5171 -0.3817  0.0052
12419SOL    HW137835   3.718   8.869   5.575 -1.1088  1.3724  1.2285
12419SOL    HW237836   3.569   8.844   5.563 -0.8140  0.1145 -0.0525
12420SOL     OW37837   3.556   8.127   6.912 -0.0051 -0.1942  0.3407
12420SOL    HW137838   3.621   8.081   6.964 -1.3721  0.4299  2.7538
12420SOL    HW237839   3.479   8.071   6.914 -1.0616  1.2130  1.6881
12421SOL     OW37840   8.288   5.249   8.534 -0.2190  0.2437  0.1460
12421SOL    HW137841   8.253   5.306   8.465 -0.2214  1.3904  1.0731
12421SOL    HW237842   8.363   5.297   8.569  0.3010 -0.7184  0.3816
12422SOL     OW37843   6.871   4.738   8.874 -0.2441  0.3770  0.4817
12422SOL    HW137844   6.863   4.648   8.843 -0.1781  0.4258  0.3240
12422SOL    HW237845   6.912   4.785   8.801 -1.9572  0.9375 -0.1672
12423SOL     OW37846   2.982   7.055   6.547  0.5648  0.7347 -0.1858
12423SOL    HW137847   3.033   7.134   6.568  0.2095  0.3285  2.5137
12423SOL    HW237848   2.908   7.057   6.607  0.5942 -1.6841  0.0468
12424SOL     OW37849   1.591   8.862   1.651 -0.0730  0.5130  0.3600
12424SOL    HW137850   1.533   8.814   1.711 -0.2279 -1.5045 -1.2876
12424SOL    HW237851   1.679   8.844   1.684  0.0270 -2.6941 -1.2657
12425SOL     OW37852   8.690   1.655   6.186 -0.2991 -0.1835  0.0497
12425SOL    HW137853   8.657   1.565   6.182 -0.3638 -0.2002  0.9036
12425SOL    HW237854   8.667   1.685   6.274 -0.1083  0.6066 -0.1672
12426SOL     OW37855   8.685   4.022   1.308  0.1462  0.1629 -0.1394
12426SOL    HW137856   8.692   3.971   1.228 -0.2544  0.8948 -0.6496
12426SOL    HW237857   8.593   4.015   1.334  0.1487  0.3874 -0.0608
12427SOL     OW37858   8.126   8.209   1.009  0.1318 -0.5742 -0.5420
12427SOL    HW137859   8.212   8.170   1.015 -0.8246 -2.5641  1.9936
12427SOL    HW237860   8.065   8.136   1.022 -1.8167  1.1980  1.0847
12428SOL     OW37861   2.852   1.119   7.268  0.5541 -0.2544 -0.6897
12428SOL    HW137862   2.948   1.119   7.274  0.5056  0.3366  0.2681
12428SOL    HW237863   2.827   1.030   7.293  0.8308 -0.2479 -0.3708
12429SOL     OW37864   9.666   4.554   5.996  0.3160 -0.2681  0.4837
12429SOL    HW137865   9.680   4.460   6.011 -0.9229 -0.4963  0.3477
12429SOL    HW237866   9.579   4.570   6.032  1.2490  1.2356  2.2072
12430SOL     OW37867   9.984   6.672   2.277  0.1233 -0.3615 -0.2121
12430SOL    HW137868   9.996   6.630   2.192  0.2163 -2.2302  0.6669
12430SOL    HW237869   9.912   6.624   2.318 -1.0034  1.5473  0.1586
12431SOL     OW37870   9.232   7.377   4.874 -0.2036  0.4084  0.0249
12431SOL    HW137871   9.245   7.455   4.819 -1.1519  0.6939  0.1965
12431SOL    HW237872   9.272   7.400   4.958 -0.6873  0.8080  0.1512
12432SOL     OW37873   1.207   8.377   2.818  0.3265  0.0400  0.7528
12432SOL    HW137874   1.157   8.299   2.798 -0.8407  1.2843 -1.6263
12432SOL    HW237875   1.159   8.420   2.889 -0.5934 -0.0407  0.1896
12433SOL     OW37876   2.147   5.240   9.021 -0.4380  0.1998 -0.7839
12433SOL    HW137877   2.180   5.200   8.940  0.0520  1.5876 -1.2952
12433SOL    HW237878   2.212   5.307   9.043 -0.7503  0.0874  0.5777
12434SOL     OW37879   3.122   5.068   4.751 -0.3023  0.2358  0.5326
12434SOL    HW137880   3.193   5.035   4.695 -2.5255 -0.5733 -2.0548
12434SOL    HW237881   3.079   4.988   4.783 -1.1744  0.6589  0.4452
12435SOL     OW37882   4.447   8.562   7.639 -0.2044  0.6511 -0.3410
12435SOL    HW137883   4.386   8.630   7.610 -0.0195 -0.6697 -4.6264
12435SOL    HW237884   4.392   8.492   7.673 -0.9595  0.5911 -1.6080
12436SOL     OW37885   2.707   8.158   9.756  0.1223 -0.0313 -0.2447
12436SOL    HW137886   2.612   8.148   9.762  0.1730 -1.9764 -1.5916
12436SOL    HW237887   2.720   8.226   9.690 -0.3524 -0.3647 -0.6904
12437SOL     OW37888   0.921   0.023   2.274  0.5213 -0.2281 -0.1604
12437SOL    HW137889   0.872  -0.041   2.223 -1.9896 -0.2981  2.0989
12437SOL    HW237890   0.854   0.080   2.311  2.3720  1.2335  1.1544
12438SOL     OW37891   8.314   8.609   2.975 -0.4304 -0.0042  0.6712
12438SOL    HW137892   8.301   8.613   2.881 -0.8047 -0.0611  0.7208
12438SOL    HW237893   8.392   8.554   2.986 -0.1954  0.2630  0.3846
12439SOL     OW37894   1.002   9.043   2.917  0.1825 -0.0997  0.2153
12439SOL    HW137895   0.960   9.041   2.831 -0.1114 -0.7469  0.3719
12439SOL    HW237896   1.090   9.078   2.900  0.5164 -1.2598 -0.5164
12440SOL     OW37897   0.354   0.026   0.087  0.0934  0.7783  0.3257
12440SOL    HW137898   0.359   0.122   0.090  0.7098  0.7454  0.8624
12440SOL    HW237899   0.379   0.003  -0.002 -1.9566  1.1868 -0.3995
12441SOL     OW37900   4.263   5.958   3.890 -0.1454 -0.1709  0.0629
12441SOL    HW137901   4.316   5.884   3.920  0.3547  0.3773  0.5353
12441SOL    HW237902   4.178   5.945   3.932 -1.3066 -2.4203 -2.5695
12442SOL     OW37903   1.890   0.499   8.052 -0.4692  0.8478  0.1039
12442SOL    HW137904   1.914   0.529   7.964  1.2509  0.0622  0.2603
12442SOL    HW237905   1.897   0.403   8.047 -0.3330  0.7964  1.0960
12443SOL     OW37906   4.026   2.291   8.579 -0.0409  0.2833  0.1560
12443SOL    HW137907   3.950   2.257   8.627  0.1769  1.1183  1.1196
12443SOL    HW237908   4.053   2.368   8.628 -0.0645  1.4514 -1.5525
12444SOL     OW37909   2.516   9.660   5.123  0.0173  0.4342  0.3887
12444SOL    HW137910   2.600   9.615   5.120  1.2578  2.5535  1.3019
12444SOL    HW237911   2.492   9.660   5.216 -2.2567 -2.2180 -0.0802
12445SOL     OW37912   3.938   5.346   3.056  0.3498  0.3283  0.1962
12445SOL    HW137913   3.856   5.297   3.044  1.3383 -1.4710  0.4156
12445SOL    HW237914   3.937   5.412   2.987 -1.0055 -0.0628 -0.1846
12446SOL     OW37915   5.084   9.153   6.722  0.4318  0.3363  0.2498
12446SOL    HW137916   5.071   9.160   6.817 -0.7287  1.5341  0.0364
12446SOL    HW237917   5.116   9.064   6.708 -1.8878 -0.7761  1.5118
12447SOL     OW37918   3.482   6.424   7.379 -0.7594 -0.0551  0.1330
12447SOL    HW137919   3.527   6.434   7.463  0.5981 -0.9012 -0.4727
12447SOL    HW237920   3.477   6.329   7.365 -1.2606  0.0706 -0.6114
12448SOL     OW37921   9.744   0.588   0.255 -0.0980  0.1156 -0.1903
12448SOL    HW137922   9.750   0.683   0.248  1.1148  0.1124  0.4871
12448SOL    HW237923   9.816   0.564   0.313  1.0104 -1.4255 -2.0936
12449SOL     OW37924   2.247   1.240   7.314  0.3184 -0.1594  0.8765
12449SOL    HW137925   2.269   1.330   7.341 -2.0001  0.6376  0.3453
12449SOL    HW237926   2.195   1.205   7.386  0.4172 -0.7293  0.6742
12450SOL     OW37927   6.732   9.129   9.820 -0.1498 -0.3639 -0.0607
12450SOL    HW137928   6.660   9.190   9.835 -0.0886  0.1588 -1.6617
12450SOL    HW237929   6.808   9.184   9.805  0.6191 -0.9144  1.6475
12451SOL     OW37930   9.892   3.414   3.442 -0.6924 -0.0559  0.1234
12451SOL    HW137931   9.884   3.411   3.537  2.2699  0.2047  0.4681
12451SOL    HW237932   9.935   3.332   3.419  0.3921  0.7171 -0.7208
12452SOL     OW37933   7.665   4.975   3.500 -0.1131 -0.8168  0.2360
12452SOL    HW137934   7.661   4.971   3.404  1.8976  1.6173 -0.0503
12452SOL    HW237935   7.585   5.022   3.525  0.5168  0.7713 -0.5476
12453SOL     OW37936   6.440   9.313   9.205 -0.1397 -0.5676 -0.0751
12453SOL    HW137937   6.501   9.380   9.174 -0.0338 -0.2257  0.8243
12453SOL    HW237938   6.357   9.360   9.215 -0.0542 -0.5556  0.5998
12454SOL     OW37939   5.401   3.790   4.364  0.4492 -0.3266 -0.0074
12454SOL    HW137940   5.424   3.698   4.352 -0.6905 -0.8448  1.4317
12454SOL    HW237941   5.439   3.835   4.289 -0.3927 -2.2235 -1.6655
12455SOL     OW37942   6.074   1.751   6.142  0.7165  0.3285  0.2020
12455SOL    HW137943   6.134   1.686   6.107  0.4129 -0.4366  1.0581
12455SOL    HW237944   6.047   1.803   6.066  1.7629  0.1206 -0.3207
12456SOL     OW37945   4.903   1.710   6.705 -0.4037 -0.6615 -0.1436
12456SOL    HW137946   4.988   1.666   6.700 -0.4594 -0.7738 -0.0979
12456SOL    HW237947   4.879   1.725   6.613 -0.6122 -1.1619 -0.1741
12457SOL     OW37948   9.580   7.844   9.501 -0.4991  0.4317 -0.6120
12457SOL    HW137949   9.638   7.791   9.555  0.8992  0.4764 -1.9857
12457SOL    HW237950   9.633   7.920   9.477 -1.1502  0.5222 -1.8248
12458SOL     OW37951   6.691   4.206   7.781 -0.6309  0.4419 -0.1971
12458SOL    HW137952   6.740   4.127   7.803 -0.8512 -0.8166 -3.6199
12458SOL    HW237953   6.639   4.225   7.859 -0.4673 -2.7322  0.8231
12459SOL     OW37954   6.490   0.319   8.347 -0.8358  0.4145 -0.3957
12459SOL    HW137955   6.493   0.400   8.397 -3.0023 -0.5098  1.3911
12459SOL    HW237956   6.528   0.253   8.405  0.5424  0.0231 -1.6766
12460SOL     OW37957   2.439   2.246   6.964 -0.1606  0.5249  0.3165
12460SOL    HW137958   2.423   2.246   6.869  0.6023  2.0477  0.1539
12460SOL    HW237959   2.520   2.194   6.975 -1.1835 -1.1382  0.3647
12461SOL     OW37960   6.389   5.190   4.692  0.7671 -0.3350  0.1511
12461SOL    HW137961   6.295   5.181   4.673  0.6148  0.9763  0.1265
12461SOL    HW237962   6.418   5.103   4.717 -0.8260 -0.4361  1.7911
12462SOL     OW37963   3.546   9.277   6.077 -0.7492 -0.0764 -0.1826
12462SOL    HW137964   3.631   9.237   6.097 -0.5023  0.6845  0.3521
12462SOL    HW237965   3.506   9.291   6.163 -0.8733  0.7136 -0.3577
12463SOL     OW37966   2.167   2.538   2.291 -0.4138  0.5599  0.1522
12463SOL    HW137967   2.192   2.610   2.349 -0.3707  0.0148  0.8247
12463SOL    HW237968   2.222   2.549   2.213  2.1931 -0.7423  1.6640
12464SOL     OW37969   4.010   6.031   0.548 -0.0971 -0.1546 -0.7309
12464SOL    HW137970   3.996   5.948   0.502  1.3922 -0.7401 -0.1730
12464SOL    HW237971   3.924   6.073   0.547 -1.0157 -1.9294 -0.5899
12465SOL     OW37972   5.131   1.668   6.307 -0.4818 -0.1076 -0.1085
12465SOL    HW137973   5.224   1.644   6.305 -0.3439  0.3575  0.2274
12465SOL    HW237974   5.130   1.761   6.282 -0.7340  0.1833  0.9122
12466SOL     OW37975   4.190   8.626   5.237  0.1522  0.6537  0.4772
12466SOL    HW137976   4.153   8.658   5.155 -1.9471  0.7887  1.4225
12466SOL    HW237977   4.118   8.580   5.280  1.4814 -0.2758  1.8078
12467SOL     OW37978   2.931   6.803   9.773 -0.1049 -0.1688  0.3997
12467SOL    HW137979   2.947   6.807   9.867 -2.3135  0.0150  0.8172
12467SOL    HW237980   2.933   6.894   9.744 -2.3178  0.0780  0.8618
12468SOL     OW37981   8.668   1.391   7.181  0.2564  0.4235 -0.1271
12468SOL    HW137982   8.620   1.448   7.242 -0.2378 -0.0740 -0.0484
12468SOL    HW237983   8.758   1.394   7.213  0.3092  1.4192 -0.3179
12469SOL     OW37984   0.719   1.575   8.933 -0.1744  0.1079 -0.3956
12469SOL    HW137985   0.655   1.562   8.863  0.4291 -0.3969 -0.8672
12469SOL    HW237986   0.666   1.592   9.011 -0.8750 -0.0596 -0.8236
12470SOL     OW37987   9.071   6.757   0.229 -0.2525  0.4454  0.2353
12470SOL    HW137988   9.138   6.776   0.163 -1.5972  0.1660 -1.2779
12470SOL    HW237989   9.109   6.789   0.311  3.0257 -2.3918  0.0604
12471SOL     OW37990   5.624   1.096   9.069 -0.2143  0.5601 -0.3831
12471SOL    HW137991   5.607   1.059   9.156  1.4245  0.7523  0.0532
12471SOL    HW237992   5.541   1.089   9.024 -0.5500 -1.6540  0.4322
12472SOL     OW37993   6.925   2.159   1.572 -0.1782  0.2135 -0.8654
12472SOL    HW137994   6.834   2.130   1.573 -0.0903 -0.1379  0.7945
12472SOL    HW237995   6.955   2.145   1.662  0.5750  3.2815 -0.5208
12473SOL     OW37996   7.065   0.525   9.751  0.3645  0.5434  0.2399
12473SOL    HW137997   7.105   0.517   9.837 -1.2864 -1.8400  0.9008
12473SOL    HW237998   7.002   0.597   9.760 -0.3077 -0.1514  1.2763
12474SOL     OW37999   5.769   6.606   4.795  0.1379  0.1825 -0.2179
12474SOL    HW138000   5.812   6.677   4.748 -1.4114  0.7890 -0.7798
12474SOL    HW238001   5.777   6.630   4.888  1.3497  0.0539 -0.2709
12475SOL     OW38002   2.974   8.099   7.722 -0.0860 -0.0230  0.0861
12475SOL    HW138003   3.031   8.147   7.782 -1.0761  0.1207  0.9383
12475SOL    HW238004   2.955   8.017   7.768  1.0249 -0.9639 -1.0564
12476SOL     OW38005   0.062   4.380   2.236 -0.3462  0.0589 -0.5252
12476SOL    HW138006   0.051   4.475   2.249 -0.5708 -0.0770  0.3199
12476SOL    HW238007   0.148   4.372   2.194 -0.2492  0.6291 -0.4500
12477SOL     OW38008   5.399   3.055   5.111 -0.1283 -0.4758 -0.4943
12477SOL    HW138009   5.483   3.091   5.084  0.7768 -0.0691  2.5159
12477SOL    HW238010   5.339   3.130   5.109 -0.1209 -0.4852 -1.4009
12478SOL     OW38011   1.545   6.003   7.538  0.1178 -0.0523  0.2931
12478SOL    HW138012   1.613   5.997   7.605 -0.1278  0.6859  0.6267
12478SOL    HW238013   1.463   5.986   7.585 -0.2654  2.3666  0.6340
12479SOL     OW38014   6.023   0.514   0.712 -0.1176  0.5176  0.2522
12479SOL    HW138015   6.070   0.457   0.773  0.7914 -0.6011 -1.4373
12479SOL    HW238016   5.987   0.454   0.646 -0.2225  1.7871 -0.8773
12480SOL     OW38017   9.343   6.609   3.283 -0.2339 -0.2029 -0.7560
12480SOL    HW138018   9.381   6.605   3.196 -2.4027 -0.6672 -1.7602
12480SOL    HW238019   9.355   6.520   3.318 -0.3850 -0.3482 -1.0644
12481SOL     OW38020   3.017   2.448   5.914 -0.0513 -0.2317 -0.0141
12481SOL    HW138021   3.032   2.481   5.825 -2.4076  2.0758  0.3142
12481SOL    HW238022   2.964   2.369   5.902  0.5251 -0.5182 -0.6888
12482SOL     OW38023   3.173   4.714   9.674  0.5961 -0.6159 -0.0930
12482SOL    HW138024   3.263   4.733   9.647 -0.4163  1.2170 -2.5859
12482SOL    HW238025   3.146   4.640   9.618  0.6592 -1.4564  0.9608
12483SOL     OW38026   7.553   8.479   7.121 -0.2062 -0.2082 -0.0150
12483SOL    HW138027   7.537   8.411   7.056 -0.7395 -0.3016  0.2085
12483SOL    HW238028   7.628   8.528   7.087 -1.3849  0.6765 -1.4582
12484SOL     OW38029   0.551   2.469   9.715  0.1750  0.3927  0.2044
12484SOL    HW138030   0.613   2.432   9.652 -1.5436 -0.8897 -0.7991
12484SOL    HW238031   0.553   2.408   9.788  0.9474  1.0094  0.7264
12485SOL     OW38032   2.734   7.375   5.002 -0.3635  0.1702 -0.4178
12485SOL    HW138033   2.753   7.316   4.929 -0.0512 -0.0389 -0.1692
12485SOL    HW238034   2.786   7.453   4.985 -2.1570  1.1719 -1.7262
12486SOL     OW38035   7.440   4.493   4.666  0.7270  0.4096  0.5225
12486SOL    HW138036   7.531   4.508   4.693  0.5088  1.3689  0.7739
12486SOL    HW238037   7.435   4.528   4.577  0.7946 -0.3642  0.2106
12487SOL     OW38038   9.088   3.608   0.086  0.0423 -0.2915  0.3435
12487SOL    HW138039   9.006   3.579   0.047  0.7743 -0.1050 -1.4418
12487SOL    HW238040   9.084   3.578   0.177 -2.1660  0.0847  0.4183
12488SOL     OW38041   0.067   5.749   6.467  0.4562  0.1881  0.7961
12488SOL    HW138042   0.043   5.664   6.504  0.5822 -0.1526  0.1104
12488SOL    HW238043   0.083   5.732   6.374  0.8189  0.8988  0.7161
12489SOL     OW38044   9.828   7.258   4.204  0.1318  0.0298 -0.1072
12489SOL    HW138045   9.917   7.248   4.170 -0.1986 -1.1302 -0.7026
12489SOL    HW238046   9.788   7.326   4.150 -0.0055 -0.9606 -1.3153
12490SOL     OW38047   3.880   2.650   3.827  0.3250  0.0262  0.0204
12490SOL    HW138048   3.865   2.557   3.845  1.5048 -0.0452  0.7453
12490SOL    HW238049   3.818   2.671   3.757  1.4806 -1.8699 -1.6899
12491SOL     OW38050   3.819   2.165   2.877  0.4991  0.6786  0.5054
12491SOL    HW138051   3.913   2.177   2.864  0.4279  0.9520  0.2342
12491SOL    HW238052   3.787   2.252   2.900  0.4212  0.4511  1.3153
12492SOL     OW38053   5.413   3.481   1.009 -0.1190  0.5462  0.2665
12492SOL    HW138054   5.490   3.451   0.961 -0.4355  1.2530 -0.7334
12492SOL    HW238055   5.443   3.559   1.055  0.2605 -0.2984  1.4808
12493SOL     OW38056   1.741   1.707   2.327  0.2492 -0.0428  0.2090
12493SOL    HW138057   1.789   1.627   2.349  0.5213  0.5183  1.7673
12493SOL    HW238058   1.740   1.758   2.408 -1.2921  0.8434 -0.3185
12494SOL     OW38059   3.914   4.411   2.673  0.0553  0.3275  0.2707
12494SOL    HW138060   3.857   4.365   2.735 -0.9994  3.1946  1.6210
12494SOL    HW238061   3.993   4.430   2.722 -0.0745  1.0882  0.2032
12495SOL     OW38062   5.257   5.977   3.545 -0.7065 -0.1081  0.6209
12495SOL    HW138063   5.212   6.025   3.615  1.1113  0.2536  1.6022
12495SOL    HW238064   5.250   6.035   3.469 -1.7946 -0.0359  0.7479
12496SOL     OW38065   7.392   9.354   1.877 -0.0769  0.0724 -0.0052
12496SOL    HW138066   7.363   9.263   1.882 -0.6956  0.2525 -0.2907
12496SOL    HW238067   7.439   9.368   1.960 -1.1055 -0.1218  0.6261
12497SOL     OW38068   4.343   4.872   5.479 -0.4069 -0.2942 -0.6515
12497SOL    HW138069   4.402   4.815   5.429 -1.5067 -0.6299 -1.6201
12497SOL    HW238070   4.373   4.961   5.459  1.3406 -0.4656  0.8912
12498SOL     OW38071   5.960   4.551   5.675 -0.2841 -0.0949 -0.5998
12498SOL    HW138072   5.968   4.467   5.631 -0.2181 -0.2120 -0.3651
12498SOL    HW238073   6.033   4.604   5.642  0.3987 -0.5386  0.1621
12499SOL     OW38074   4.221   1.158   7.336 -0.3304 -0.5597  0.0774
12499SOL    HW138075   4.153   1.204   7.384  0.4871  1.3830 -0.5332
12499SOL    HW238076   4.303   1.188   7.375  0.2366 -1.3592 -0.4608
12500SOL     OW38077   1.941   2.781   3.891 -0.1318 -0.2227 -0.0321
12500SOL    HW138078   1.903   2.868   3.887  1.4075  0.6026  1.9346
12500SOL    HW238079   1.898   2.739   3.966  0.5388 -0.4136  0.2591
12501SOL     OW38080   3.982   5.570   6.152  0.1032  0.0470 -0.4030
12501SOL    HW138081   3.965   5.611   6.067  1.1683  0.0406 -0.6268
12501SOL    HW238082   3.968   5.477   6.136 -0.4401  0.1162 -0.3704
12502SOL     OW38083   7.289   9.030   3.949  0.3138  0.4057 -0.4555
12502SOL    HW138084   7.341   9.004   4.026  0.6016  0.6818 -0.5500
12502SOL    HW238085   7.294   8.955   3.891 -1.9007 -0.7814  0.7680
12503SOL     OW38086   1.809   3.812   7.499 -0.1348 -0.1442 -0.3940
12503SOL    HW138087   1.754   3.743   7.460  0.5923 -0.0238 -1.6975
12503SOL    HW238088   1.886   3.815   7.443 -0.8184  2.7821 -1.3426
12504SOL     OW38089   3.164   1.374   1.616 -0.6671 -0.6548 -0.3904
12504SOL    HW138090   3.138   1.305   1.677  0.2079 -0.9055 -0.2930
12504SOL    HW238091   3.252   1.349   1.588 -1.4119 -1.1037 -2.5528
12505SOL     OW38092   9.188   5.460   8.987 -0.3462 -0.7631 -0.3701
12505SOL    HW138093   9.121   5.464   8.918  0.1988  1.4429 -0.8515
12505SOL    HW238094   9.268   5.488   8.944  0.1408  0.0430  0.9972
12506SOL     OW38095   6.484   7.062   9.376  0.2382 -0.5596  0.6555
12506SOL    HW138096   6.438   7.144   9.357  0.9578 -0.4460 -0.7697
12506SOL    HW238097   6.449   6.999   9.312  1.0499 -0.8277  0.4607
12507SOL     OW38098   6.193   4.486   2.432  0.0610 -0.2757  0.2038
12507SOL    HW138099   6.107   4.494   2.390 -0.6951  0.4654  1.8093
12507SOL    HW238100   6.181   4.416   2.497  0.8605 -0.6081 -0.0017
12508SOL     OW38101   8.362   3.187   2.937  0.3589 -0.3727  0.6847
12508SOL    HW138102   8.345   3.281   2.932 -1.1124 -0.6596 -1.1965
12508SOL    HW238103   8.340   3.163   3.027 -2.8222  0.5515  0.2817
12509SOL     OW38104   1.839   6.845   6.207  0.5133 -0.2028 -0.2966
12509SOL    HW138105   1.831   6.777   6.274 -0.1692 -1.0999 -1.2451
12509SOL    HW238106   1.787   6.812   6.134 -1.8982  2.4778  0.0661
12510SOL     OW38107   2.977   3.035   3.518  0.1664  0.3000  0.5655
12510SOL    HW138108   3.030   2.963   3.485 -0.5304 -1.4422  2.9751
12510SOL    HW238109   3.040   3.094   3.560  0.5874  0.4196 -0.2111
12511SOL     OW38110   5.906   0.513   5.169 -0.1360  1.0439 -0.4789
12511SOL    HW138111   5.900   0.454   5.095 -0.1522  0.5321 -0.0783
12511SOL    HW238112   5.908   0.601   5.131 -1.3843  0.8549 -1.0246
12512SOL     OW38113   9.840   1.389   3.391  1.0515  0.2022 -0.7036
12512SOL    HW138114   9.933   1.406   3.411  1.0679  1.5368 -1.7677
12512SOL    HW238115   9.809   1.470   3.351 -0.3751 -0.5094 -1.1039
12513SOL     OW38116   3.911   5.534   5.165  0.1752 -0.3612  0.1046
12513SOL    HW138117   4.003   5.507   5.160  0.1351 -0.4562 -0.1346
12513SOL    HW238118   3.871   5.494   5.088  0.1607  0.5573 -0.3720
12514SOL     OW38119   6.472   1.290   3.247  0.0909 -0.1920 -0.3150
12514SOL    HW138120   6.438   1.338   3.323 -1.8135 -0.5554 -0.8807
12514SOL    HW238121   6.493   1.203   3.281 -1.5520 -0.6231 -0.3320
12515SOL     OW38122   6.233   0.476   5.632  0.2632  0.1007 -0.3775
12515SOL    HW138123   6.217   0.465   5.726 -0.3838  1.9257 -0.2302
12515SOL    HW238124   6.326   0.500   5.627  0.3640 -0.2522 -0.2322
12516SOL     OW38125   8.161   5.891   2.902  0.2147 -0.1707  0.0805
12516SOL    HW138126   8.195   5.817   2.850 -0.8061 -2.5985  2.6274
12516SOL    HW238127   8.067   5.875   2.909 -0.2356  2.0291 -0.1537
12517SOL     OW38128   4.945   5.282   7.468 -0.5102 -0.3541  0.0886
12517SOL    HW138129   4.934   5.376   7.454 -2.2427 -0.6659 -0.9071
12517SOL    HW238130   5.022   5.275   7.525  1.4546  1.4804 -2.1608
12518SOL     OW38131   6.639   5.140   7.016  0.0735 -0.3577 -0.5833
12518SOL    HW138132   6.729   5.149   6.985 -0.1451 -0.3719 -1.2592
12518SOL    HW238133   6.613   5.052   6.987 -0.3207 -0.1531 -0.8618
12519SOL     OW38134   6.659   8.261   6.116  0.3560  0.3871  0.4349
12519SOL    HW138135   6.703   8.260   6.031 -0.3380 -2.6775  0.0081
12519SOL    HW238136   6.727   8.291   6.177  1.8790 -0.5284 -0.7354
12520SOL     OW38137   5.818   1.410   5.712  0.2733 -0.5871 -0.4189
12520SOL    HW138138   5.892   1.401   5.772  1.1973 -0.7073 -1.5435
12520SOL    HW238139   5.856   1.445   5.632 -0.9845 -0.1492 -0.8538
12521SOL     OW38140   7.575   0.299   4.676  0.5057 -0.0596  0.5932
12521SOL    HW138141   7.526   0.266   4.751 -0.5072  1.4330  0.6440
12521SOL    HW238142   7.535   0.385   4.658 -0.2067 -0.9261 -2.4788
12522SOL     OW38143   9.524   8.752   7.223  0.1319 -0.0310  0.2780
12522SOL    HW138144   9.489   8.663   7.226  1.4895 -0.5825  0.4815
12522SOL    HW238145   9.466   8.803   7.280 -0.2380 -0.9321  0.7218
12523SOL     OW38146   4.532   0.218   7.180  0.1164  0.7669  0.4230
12523SOL    HW138147   4.615   0.185   7.212 -0.5920 -1.5856 -0.0067
12523SOL    HW238148   4.545   0.228   7.085 -0.1618  0.1645  0.3209
12524SOL     OW38149   6.385   0.009   4.345 -0.6458  0.3737  0.3469
12524SOL    HW138150   6.430   0.084   4.383 -1.8261  1.3187 -0.0520
12524SOL    HW238151   6.442  -0.065   4.363  0.8295  1.4451  0.2595
12525SOL     OW38152   5.639   5.660   9.700  0.4396  0.5264  0.1652
12525SOL    HW138153   5.677   5.744   9.675  0.1003  0.4903 -0.5014
12525SOL    HW238154   5.580   5.638   9.627  0.0128  0.0414  0.6506
12526SOL     OW38155   1.861   1.829   7.927  0.5034  0.4736  0.7663
12526SOL    HW138156   1.920   1.778   7.982 -1.7066 -2.8266  0.4006
12526SOL    HW238157   1.814   1.886   7.987  1.3779  0.3525  1.5797
12527SOL     OW38158   9.557   7.750   9.119  0.1686 -0.1027 -0.2118
12527SOL    HW138159   9.499   7.801   9.062 -0.8369 -1.0769 -0.1135
12527SOL    HW238160   9.497   7.698   9.173  1.1160  0.3465  1.3166
12528SOL     OW38161   5.717   0.300   7.753 -0.5254 -0.1066  0.6122
12528SOL    HW138162   5.633   0.271   7.717 -0.2935  0.2099 -0.2139
12528SOL    HW238163   5.707   0.395   7.762 -0.5067 -0.1582  1.2053
12529SOL     OW38164   3.543   7.292   4.911  0.5122  0.6058  0.1102
12529SOL    HW138165   3.545   7.362   4.977 -1.0294 -0.0312  0.8824
12529SOL    HW238166   3.579   7.216   4.957 -1.2214 -0.0231  0.4857
12530SOL     OW38167   9.338   9.228   0.162  0.5845  0.0158 -0.2155
12530SOL    HW138168   9.343   9.134   0.142  0.9930 -0.3443  1.4348
12530SOL    HW238169   9.263   9.259   0.112 -0.5531 -1.5324  0.4435
12531SOL     OW38170   8.450   3.020   3.620 -0.5048 -0.0278 -0.0700
12531SOL    HW138171   8.356   3.012   3.610 -0.4472 -0.3964 -0.3151
12531SOL    HW238172   8.465   3.115   3.626 -0.7935  0.0814 -0.9929
12532SOL     OW38173   0.526   3.075   3.468  0.4318  0.3309  0.2945
12532SOL    HW138174   0.453   3.137   3.476 -0.4524 -0.5460 -0.7137
12532SOL    HW238175   0.505   3.005   3.531  0.1262 -0.1719 -0.3566
12533SOL     OW38176   8.556   0.508   8.887  0.4866 -0.3219 -0.2098
12533SOL    HW138177   8.617   0.436   8.872  0.5714 -0.3017  0.0310
12533SOL    HW238178   8.584   0.547   8.970  0.4341 -0.0193 -0.3301
12534SOL     OW38179   9.760   2.240   7.915 -0.8577  0.2548  0.0182
12534SOL    HW138180   9.709   2.221   7.993 -1.9115  1.0096 -0.4605
12534SOL    HW238181   9.702   2.216   7.842 -0.3425  0.6672 -0.5362
12535SOL     OW38182   6.153   5.203   4.946  0.1165  0.0732  0.0383
12535SOL    HW138183   6.240   5.214   4.986 -0.0420 -0.5260  0.5686
12535SOL    HW238184   6.166   5.137   4.878  0.0310 -0.1863  0.2725
12536SOL     OW38185   7.525   3.160   9.507  0.4976 -1.0350 -0.3398
12536SOL    HW138186   7.561   3.244   9.479 -0.3040 -0.2855  0.8226
12536SOL    HW238187   7.588   3.127   9.571  1.1007 -1.6128 -1.2043
12537SOL     OW38188   3.070   5.304   4.926 -0.2845  0.6322 -0.5045
12537SOL    HW138189   3.102   5.222   4.888  0.5094  0.6748  0.0372
12537SOL    HW238190   3.028   5.349   4.854 -2.5715 -1.1314 -0.3811
12538SOL     OW38191   5.859   9.041   4.835  0.5946 -0.3012  0.2543
12538SOL    HW138192   5.785   9.064   4.892 -1.1684  0.0781 -2.0259
12538SOL    HW238193   5.894   9.125   4.807 -0.0666 -0.4100 -0.9911
12539SOL     OW38194   6.436   3.263   9.318  0.1584 -0.3814 -0.2635
12539SOL    HW138195   6.475   3.326   9.257  1.2278 -2.0093 -1.3427
12539SOL    HW238196   6.476   3.282   9.402  1.4347 -0.3913 -0.8393
12540SOL     OW38197   3.049   5.601   6.560 -0.2211 -0.5296  0.7615
12540SOL    HW138198   2.996   5.547   6.501 -0.0209  0.2451 -0.1510
12540SOL    HW238199   3.002   5.599   6.643 -0.7343 -1.2990  0.4624
12541SOL     OW38200   7.969   0.353   6.725  0.3076  0.3438 -0.6658
12541SOL    HW138201   7.965   0.435   6.676  1.5948  1.0565  0.3689
12541SOL    HW238202   7.970   0.285   6.657  0.5472  1.2286 -1.5754
12542SOL     OW38203   9.779   8.271   0.483  0.1145  0.7493  0.0323
12542SOL    HW138204   9.702   8.322   0.507 -0.3267  0.1694 -0.1410
12542SOL    HW238205   9.748   8.180   0.477  0.7237  0.5580 -0.4050
12543SOL     OW38206   8.011   7.479   5.871 -1.1257 -0.6372  0.2158
12543SOL    HW138207   7.928   7.465   5.825 -1.2661  1.2892 -0.2141
12543SOL    HW238208   8.013   7.574   5.887  0.5971 -0.7807  0.9866
12544SOL     OW38209   4.443   7.493   7.554 -0.0869  0.4061  0.4440
12544SOL    HW138210   4.402   7.527   7.634 -1.8262  0.8257 -0.5776
12544SOL    HW238211   4.385   7.422   7.526  0.7658 -0.0531 -0.2153
12545SOL     OW38212   6.751   3.251   2.021  0.2387 -0.0669 -0.1047
12545SOL    HW138213   6.819   3.291   2.075  0.6478  0.0787 -0.7206
12545SOL    HW238214   6.669   3.285   2.057  0.4926 -0.1366  0.5552
12546SOL     OW38215   9.880   7.241   2.254 -0.1270  0.3588 -0.6169
12546SOL    HW138216   9.889   7.313   2.317 -1.8001 -0.9736  1.2622
12546SOL    HW238217   9.957   7.187   2.270 -1.5210 -1.0769  1.9342
12547SOL     OW38218   3.886   4.937   0.931 -0.1716  0.0575  0.3278
12547SOL    HW138219   3.851   5.024   0.912  0.7197  0.2923 -0.2919
12547SOL    HW238220   3.811   4.879   0.924 -0.7352  0.7400  0.5203
12548SOL     OW38221   5.791   9.157   8.351  0.0834 -0.4125  0.1010
12548SOL    HW138222   5.768   9.245   8.381 -2.6353 -0.1709 -2.2456
12548SOL    HW238223   5.879   9.143   8.385  1.8122  4.3018 -1.5203
12549SOL     OW38224   1.204   2.107   7.897 -0.0289 -0.1488  0.0581
12549SOL    HW138225   1.218   2.174   7.964  0.1024  0.9074 -0.9940
12549SOL    HW238226   1.109   2.095   7.895  0.0251 -0.9522  1.1266
12550SOL     OW38227   5.661   4.200   5.569  0.3015 -0.9314  0.2638
12550SOL    HW138228   5.749   4.190   5.607 -0.0464 -0.4183  1.2244
12550SOL    HW238229   5.631   4.110   5.557  1.4280 -1.1465 -1.2232
12551SOL     OW38230   1.498   9.417   6.166  0.2677 -0.3041  0.0316
12551SOL    HW138231   1.577   9.394   6.117  0.9973 -1.0687  1.5103
12551SOL    HW238232   1.438   9.344   6.150 -0.5390  0.6885 -1.8135
12552SOL     OW38233   1.436   1.967   2.260  0.2797 -0.4022  0.2158
12552SOL    HW138234   1.425   1.999   2.170  1.0656 -0.4114  0.1045
12552SOL    HW238235   1.526   1.991   2.283  0.4800 -1.4361  0.5714
12553SOL     OW38236   8.219   4.004   8.893 -0.2926  0.4422 -0.4798
12553SOL    HW138237   8.206   4.039   8.981  2.1992  0.0192  0.1321
12553SOL    HW238238   8.269   4.072   8.847  1.3943 -0.7204 -0.4411
12554SOL     OW38239   2.177   4.814   5.104  0.1935 -0.1679 -0.7011
12554SOL    HW138240   2.184   4.876   5.177 -0.8764 -0.7883 -0.0588
12554SOL    HW238241   2.262   4.769   5.103  0.2840 -0.0276  0.0454
12555SOL     OW38242   5.451   2.283   7.180 -0.2071  0.4847 -0.1276
12555SOL    HW138243   5.500   2.234   7.246 -0.1727 -0.2923 -0.7116
12555SOL    HW238244   5.504   2.361   7.164  1.4747 -0.8438 -1.5331
12556SOL     OW38245   8.913   1.708   9.454  0.1588  0.3103 -0.0218
12556SOL    HW138246   8.971   1.646   9.411  1.3671  0.0872  1.8174
12556SOL    HW238247   8.848   1.653   9.498  0.1132  0.4408  0.0751
12557SOL     OW38248   9.530   3.038   1.653  1.0706 -0.1079 -0.1589
12557SOL    HW138249   9.527   3.111   1.591  1.1494  0.2725  0.2797
12557SOL    HW238250   9.512   3.078   1.738  0.0403 -0.7643 -0.0493
12558SOL     OW38251   5.719   0.229   9.081  0.0559  0.0805 -0.6936
12558SOL    HW138252   5.800   0.271   9.050  0.7045 -0.2859  0.4302
12558SOL    HW238253   5.710   0.260   9.171  0.9296 -2.6240  0.4409
12559SOL     OW38254   7.921   9.317   3.626 -0.2543 -0.2059 -0.1756
12559SOL    HW138255   7.905   9.341   3.718 -0.4466 -0.6696 -0.0849
12559SOL    HW238256   7.942   9.223   3.629  3.2699  0.4273 -0.1738
12560SOL     OW38257   7.197   4.841   1.859 -0.5900 -0.2834  0.2402
12560SOL    HW138258   7.123   4.857   1.801 -0.8420 -1.4573  0.2149
12560SOL    HW238259   7.182   4.753   1.894  0.5539 -0.3566  0.5949
12561SOL     OW38260   6.833   3.056   7.511 -0.2849 -0.0977 -0.7515
12561SOL    HW138261   6.754   3.006   7.491 -0.7604 -0.1430  1.0638
12561SOL    HW238262   6.801   3.134   7.557  0.5771  1.0909 -2.0834
12562SOL     OW38263   6.572   2.821   8.962  0.4333  0.2113  0.0885
12562SOL    HW138264   6.532   2.777   8.887  0.4729  1.4672 -0.6988
12562SOL    HW238265   6.652   2.860   8.926  1.2889 -0.4926  1.1577
12563SOL     OW38266   6.506   2.167   5.493 -0.2868 -0.3322 -0.0674
12563SOL    HW138267   6.461   2.248   5.517 -1.3314 -1.2449  1.1922
12563SOL    HW238268   6.576   2.158   5.558 -0.1797 -0.4429 -0.1962
12564SOL     OW38269   1.021   1.760   2.877  0.2130 -0.1083 -0.4468
12564SOL    HW138270   1.109   1.730   2.855  0.0740  0.5067 -1.9250
12564SOL    HW238271   1.022   1.854   2.859 -0.7196 -0.0802 -0.4168
12565SOL     OW38272   6.667   9.432   4.064  0.1835 -0.1220 -0.2094
12565SOL    HW138273   6.651   9.462   3.974 -0.2166  0.3379  0.0050
12565SOL    HW238274   6.704   9.345   4.055  0.9994  0.2817 -0.8526
12566SOL     OW38275   8.178   1.940   2.941  0.0803 -0.4713 -0.4212
12566SOL    HW138276   8.101   1.975   2.896 -1.3128 -0.1000  2.0622
12566SOL    HW238277   8.211   2.014   2.993  1.3465 -0.9886 -0.4614
12567SOL     OW38278   3.645   9.461   7.265  0.0820 -0.0986 -0.4417
12567SOL    HW138279   3.561   9.416   7.270  0.0437 -0.2668 -2.1167
12567SOL    HW238280   3.700   9.405   7.211  0.7992  0.7117 -0.5840
12568SOL     OW38281   3.371   6.608   4.081 -0.3525 -0.4777 -0.0210
12568SOL    HW138282   3.276   6.598   4.089 -0.6873 -0.7837 -3.1204
12568SOL    HW238283   3.408   6.540   4.138 -1.9885 -0.9042  0.5749
12569SOL     OW38284   4.988   9.956   2.585 -0.5362 -0.4241 -0.3323
12569SOL    HW138285   4.999   9.860   2.588 -1.2917 -0.5108 -0.1464
12569SOL    HW238286   4.973   9.976   2.493 -0.0800 -0.4488 -0.4130
12570SOL     OW38287   5.621   6.985   2.207 -0.4724  0.3929 -0.4066
12570SOL    HW138288   5.619   7.039   2.128 -2.1288 -0.3355 -0.9089
12570SOL    HW238289   5.592   6.898   2.177  1.6010 -0.6791  0.4718
12571SOL     OW38290   5.032   0.856   4.165 -0.0327 -0.4987  0.7855
12571SOL    HW138291   4.973   0.836   4.238 -0.3370  0.1372  0.7151
12571SOL    HW238292   5.050   0.771   4.125 -1.2549 -0.6504  0.5332
12572SOL     OW38293   1.936   2.145   0.334 -0.1356  0.0233 -0.2915
12572SOL    HW138294   1.982   2.226   0.354 -0.1876 -0.1419  0.5081
12572SOL    HW238295   1.917   2.151   0.240  3.1929 -0.7815 -1.1191
12573SOL     OW38296   9.733   8.231   5.858  0.1802 -0.6120 -0.0521
12573SOL    HW138297   9.790   8.157   5.840  2.5461  0.9949  0.2994
12573SOL    HW238298   9.727   8.234   5.953  0.7680  0.0789 -0.0264
12574SOL     OW38299   1.448   6.141   0.278 -0.1965 -0.1396 -0.3091
12574SOL    HW138300   1.368   6.171   0.323 -0.8693 -0.9287 -0.9510
12574SOL    HW238301   1.491   6.222   0.249 -1.5241  0.2660 -1.2400
12575SOL     OW38302   0.561   7.158   0.435  0.0675  0.2901 -0.5605
12575SOL    HW138303   0.638   7.178   0.382 -0.1466  0.7701 -0.6961
12575SOL    HW238304   0.593   7.159   0.525 -0.0506  1.9032 -0.5061
12576SOL     OW38305   5.435   4.702   6.670  0.0083  0.2838 -0.1308
12576SOL    HW138306   5.343   4.709   6.695  0.1571 -0.1629  0.5747
12576SOL    HW238307   5.435   4.643   6.595 -0.3743  1.0731 -0.7690
12577SOL     OW38308   6.707   4.077   9.719 -0.4310 -0.3503  0.1526
12577SOL    HW138309   6.689   4.049   9.809  0.1230  0.4235  0.5186
12577SOL    HW238310   6.773   4.016   9.688  1.0086  0.6773  1.0560
12578SOL     OW38311   9.783   6.670   1.911  0.4202 -0.3464  0.2847
12578SOL    HW138312   9.731   6.645   1.988  0.3168 -1.1618 -0.0371
12578SOL    HW238313   9.728   6.733   1.865  0.6571  0.4630  1.0879
12579SOL     OW38314   8.459   9.530   7.031  0.7437 -0.0322 -0.4480
12579SOL    HW138315   8.503   9.542   6.947  0.4412 -0.6675 -0.7012
12579SOL    HW238316   8.466   9.615   7.074  1.9029 -0.0153 -0.6332
12580SOL     OW38317   1.253   4.409   6.276 -0.1442  0.0992 -0.3241
12580SOL    HW138318   1.262   4.471   6.204 -0.4383 -1.1364 -1.4506
12580SOL    HW238319   1.160   4.412   6.299 -0.1886 -0.0442 -0.4861
12581SOL     OW38320   1.600   9.668   9.414 -0.1985  0.7159 -0.5867
12581SOL    HW138321   1.601   9.678   9.509  1.2488  1.6828 -0.6694
12581SOL    HW238322   1.527   9.609   9.397 -2.0171  2.3851  0.9324
12582SOL     OW38323   9.753   1.681   6.695  0.1877 -0.5418 -0.0415
12582SOL    HW138324   9.821   1.735   6.735  0.5319 -0.3054 -0.9227
12582SOL    HW238325   9.676   1.696   6.750 -0.3219  2.4860 -1.3626
12583SOL     OW38326   1.629   0.143   4.339  0.3904  0.3729  0.1556
12583SOL    HW138327   1.679   0.064   4.360  1.2759  1.0173  0.5169
12583SOL    HW238328   1.688   0.196   4.285 -0.0651  0.9478  0.2112
12584SOL     OW38329   7.758   9.920   6.120  0.0372  0.2207 -0.5634
12584SOL    HW138330   7.692   9.851   6.124  0.5189 -0.2286  3.9399
12584SOL    HW238331   7.718   9.995   6.164  2.1575  0.1449  1.7162
12585SOL     OW38332   6.444   0.226   2.260  0.9805 -0.0397  0.1912
12585SOL    HW138333   6.508   0.296   2.244  0.6147  0.2338 -0.1005
12585SOL    HW238334   6.466   0.192   2.347  2.9218 -1.4475 -0.7746
12586SOL     OW38335   4.014   1.652   0.430 -0.4839  0.6400  0.1157
12586SOL    HW138336   3.948   1.719   0.415 -1.8575 -0.7800 -0.4455
12586SOL    HW238337   3.991   1.613   0.515 -0.7296 -0.2306 -0.3348
12587SOL     OW38338   4.047   8.243   9.779 -0.5086  0.2779 -0.1728
12587SOL    HW138339   4.007   8.201   9.704 -0.0988 -1.6141  0.6169
12587SOL    HW238340   4.020   8.335   9.773 -0.3272  0.2214 -2.6960
12588SOL     OW38341   5.735   1.249   9.777 -0.2754 -0.0024  0.4745
12588SOL    HW138342   5.725   1.338   9.742  0.3930 -0.3457 -0.6277
12588SOL    HW238343   5.760   1.262   9.869 -1.2267  0.9262  0.6211
12589SOL     OW38344   3.915   1.846   9.546  0.1874  0.3114  0.2311
12589SOL    HW138345   3.993   1.901   9.534  0.2765 -0.1269 -1.3950
12589SOL    HW238346   3.843   1.898   9.510  0.1629 -0.3334 -0.6744
12590SOL     OW38347   6.434   3.538   7.991 -0.4418 -0.1075  0.0611
12590SOL    HW138348   6.373   3.588   7.937 -0.1649  0.7778  0.5351
12590SOL    HW238349   6.459   3.463   7.937 -1.3976 -0.1042 -0.4083
12591SOL     OW38350   8.120   2.645   6.868 -0.6235  0.1289 -0.3306
12591SOL    HW138351   8.182   2.658   6.796  1.1059  0.6381  1.1835
12591SOL    HW238352   8.065   2.723   6.867  0.1653  0.6954 -0.3830
12592SOL     OW38353   3.427   3.334   2.230 -0.1407 -0.1300  0.1446
12592SOL    HW138354   3.445   3.390   2.306  1.9185 -0.6703  0.1001
12592SOL    HW238355   3.432   3.245   2.265  2.3102 -0.4545 -0.8319
12593SOL     OW38356   3.786   4.895   4.565  0.3792 -0.3833 -0.3188
12593SOL    HW138357   3.881   4.896   4.561  0.4517 -1.4731  0.6997
12593SOL    HW238358   3.762   4.980   4.602  1.0869 -0.8476  1.2988
12594SOL     OW38359   5.414   5.125   9.545  0.1054 -0.0554 -0.1345
12594SOL    HW138360   5.429   5.043   9.593 -1.4127 -1.0730 -1.3245
12594SOL    HW238361   5.394   5.189   9.614 -1.1944 -1.2884  0.6907
12595SOL     OW38362   4.571   1.705   1.517  0.0859  0.6605  0.9621
12595SOL    HW138363   4.592   1.696   1.424 -1.4395 -1.9942  0.7749
12595SOL    HW238364   4.652   1.737   1.557  1.7009 -0.8890 -0.8686
12596SOL     OW38365   8.128   6.215   0.053 -0.4044 -0.0186  0.7469
12596SOL    HW138366   8.042   6.229   0.091 -0.4878  1.5035  0.0616
12596SOL    HW238367   8.127   6.265  -0.029  0.6770 -1.0578  0.0663
12597SOL     OW38368   3.877   7.663   1.285  0.4452  0.3157  0.3533
12597SOL    HW138369   3.845   7.658   1.195 -0.3027  1.7262  0.5175
12597SOL    HW238370   3.967   7.694   1.276  0.1061  1.2498  0.1238
12598SOL     OW38371   5.094   6.411   2.063 -0.1144  0.1894  0.3175
12598SOL    HW138372   5.018   6.462   2.091  0.4366  1.5031 -0.4905
12598SOL    HW238373   5.068   6.373   1.979 -0.1624 -0.0130  0.4243
12599SOL     OW38374   3.866   9.378   1.592  0.1414  0.1766 -0.1031
12599SOL    HW138375   3.915   9.319   1.649 -1.4126  0.0169  1.1689
12599SOL    HW238376   3.890   9.465   1.622  0.8565  0.1450 -0.5729
12600SOL     OW38377   7.331   8.162   2.536 -0.1914  0.1252 -0.1072
12600SOL    HW138378   7.420   8.129   2.529 -0.2681  0.1111 -1.3106
12600SOL    HW238379   7.324   8.229   2.468 -0.3649  1.9385  1.5920
12601SOL     OW38380   9.451   4.499   4.890  0.1273  0.1052  0.7354
12601SOL    HW138381   9.458   4.540   4.803  0.2508  1.1422  1.2132
12601SOL    HW238382   9.482   4.410   4.877  0.5078  0.3583 -0.2101
12602SOL     OW38383   2.019   9.611   5.520  0.0498 -0.4990  0.1415
12602SOL    HW138384   2.072   9.681   5.557 -0.5079 -1.0552  2.1067
12602SOL    HW238385   1.932   9.649   5.510  0.2985 -0.2176 -1.0782
12603SOL     OW38386   7.629   3.099   6.498 -0.1577  0.1729  0.2318
12603SOL    HW138387   7.540   3.120   6.527 -0.2299  0.0494  0.0975
12603SOL    HW238388   7.618   3.042   6.422  0.0174  1.5867 -0.8962
12604SOL     OW38389   5.916   9.059   7.208  0.0699 -0.1217 -0.6974
12604SOL    HW138390   5.873   8.980   7.241  0.9193 -0.5466 -0.5703
12604SOL    HW238391   5.855   9.130   7.228 -0.7194 -0.7446 -0.8392
12605SOL     OW38392   2.890   3.345   3.650  0.0281 -0.2816 -0.4401
12605SOL    HW138393   2.827   3.275   3.637 -0.2096  0.1416 -1.7325
12605SOL    HW238394   2.853   3.420   3.604  0.9567  0.2857 -0.3077
12606SOL     OW38395   3.066   2.558   9.491  0.6640  0.2144  0.6362
12606SOL    HW138396   3.022   2.474   9.477 -0.1134  0.7183 -0.0753
12606SOL    HW238397   3.004   2.610   9.542 -0.5477  1.6378 -2.0618
12607SOL     OW38398   7.202   9.126   2.598 -0.1985  0.2950 -0.0172
12607SOL    HW138399   7.283   9.155   2.639  0.5374 -1.5301 -0.0861
12607SOL    HW238400   7.133   9.164   2.652  0.6270  2.6090 -0.4473
12608SOL     OW38401   0.875   9.060   3.862  0.5630  0.4101  0.1145
12608SOL    HW138402   0.917   9.014   3.935  2.1707 -0.6500 -1.4032
12608SOL    HW238403   0.837   8.990   3.808 -1.3824  1.2351  0.3519
12609SOL     OW38404   3.070   1.486   5.822 -0.4003  0.1607  0.2653
12609SOL    HW138405   3.082   1.421   5.892 -1.8930  1.4977  1.8517
12609SOL    HW238406   2.982   1.469   5.788 -0.4404  0.7429  0.0595
12610SOL     OW38407   5.316   3.396   2.934 -0.0834 -0.3401  0.7318
12610SOL    HW138408   5.275   3.416   2.851 -0.8116  1.3757  1.4687
12610SOL    HW238409   5.406   3.370   2.911 -0.5095 -0.6991 -0.6174
12611SOL     OW38410   9.398   0.040   6.567 -0.4380  0.2560 -0.1264
12611SOL    HW138411   9.421   0.004   6.653  0.4199 -1.1663 -0.9175
12611SOL    HW238412   9.330   0.105   6.586  0.5420  0.7997  1.7358
12612SOL     OW38413   7.657   4.168   2.676  0.3326 -0.8259 -0.4475
12612SOL    HW138414   7.709   4.246   2.692 -0.5470 -0.3957  0.3950
12612SOL    HW238415   7.580   4.199   2.628 -0.5387 -0.9869  0.8103
12613SOL     OW38416   7.509   0.548   0.528 -0.0182 -0.3588 -0.3375
12613SOL    HW138417   7.443   0.488   0.564 -0.3502  0.1982  0.0035
12613SOL    HW238418   7.527   0.608   0.600 -0.9081  0.9630 -1.1882
12614SOL     OW38419   9.951   5.145   9.152  0.2653  0.5510  0.4598
12614SOL    HW138420   9.894   5.150   9.228 -1.8580 -0.8038 -0.9305
12614SOL    HW238421   9.920   5.213   9.093  1.9366  1.6389  0.7696
12615SOL     OW38422   2.141   0.998   1.473 -0.1712 -0.6110  0.0213
12615SOL    HW138423   2.234   0.979   1.463 -0.5490 -1.7590 -1.8609
12615SOL    HW238424   2.096   0.919   1.442 -1.7877 -0.2209  1.2136
12616SOL     OW38425   3.071   3.167   1.519 -0.1815  0.3726  0.2368
12616SOL    HW138426   3.057   3.075   1.499 -1.2713  0.4409  0.6235
12616SOL    HW238427   3.043   3.214   1.440  1.9484  0.3153 -0.6048
12617SOL     OW38428   9.470   6.520   7.353  0.0236 -0.3154 -0.1026
12617SOL    HW138429   9.433   6.525   7.441  1.7831  0.1396  0.6529
12617SOL    HW238430   9.558   6.485   7.366  0.6846  0.7105 -1.5544
12618SOL     OW38431   6.672   3.697   2.232  0.3296  0.4723  0.8716
12618SOL    HW138432   6.673   3.758   2.159  0.3861 -1.4412 -0.8073
12618SOL    HW238433   6.764   3.694   2.261  1.1429 -1.5334 -1.5238
12619SOL     OW38434   5.785   8.686   6.578 -0.1800 -0.3636 -0.0843
12619SOL    HW138435   5.785   8.780   6.599 -1.3620  0.1250 -2.0516
12619SOL    HW238436   5.711   8.651   6.628 -0.4252 -0.0245 -0.2054
12620SOL     OW38437   3.916   0.739   9.585 -0.6638  0.4403 -0.1135
12620SOL    HW138438   3.985   0.803   9.569 -0.3291  0.2675  0.5884
12620SOL    HW238439   3.879   0.721   9.498 -0.5935  1.3865 -0.3496
12621SOL     OW38440   6.116   9.325   6.298  0.0748 -0.0150  0.1391
12621SOL    HW138441   6.027   9.331   6.264 -0.8867 -2.8281  1.7900
12621SOL    HW238442   6.164   9.274   6.233 -0.5569 -1.5879  0.8644
12622SOL     OW38443   1.725   7.179   6.010  0.1340 -0.4009  0.2181
12622SOL    HW138444   1.795   7.245   6.008  0.8585 -1.1515  0.2566
12622SOL    HW238445   1.721   7.152   6.102 -0.6128  0.0545  0.3245
12623SOL     OW38446   4.788   8.501   1.453 -0.6590 -0.1936 -0.2914
12623SOL    HW138447   4.803   8.419   1.405 -1.7243 -0.3276 -0.4128
12623SOL    HW238448   4.786   8.568   1.385 -0.2544 -0.1258 -0.2379
12624SOL     OW38449   6.179   6.740   1.264  0.4786 -0.2301 -0.4947
12624SOL    HW138450   6.274   6.747   1.273  0.6617 -0.1072 -2.2501
12624SOL    HW238451   6.155   6.813   1.207 -0.4716 -1.1022 -1.2526
12625SOL     OW38452   8.790   3.049   7.892  0.5399 -0.0915  0.4024
12625SOL    HW138453   8.876   3.083   7.869  0.8940 -0.6078  0.9155
12625SOL    HW238454   8.745   3.037   7.808  0.7453  0.7408  0.1708
12626SOL     OW38455   8.038   1.492   4.141  0.5085  0.7409  0.1931
12626SOL    HW138456   7.992   1.515   4.222 -0.4115 -1.5778  0.3905
12626SOL    HW238457   7.984   1.530   4.071 -0.9865 -0.6853  0.5029
12627SOL     OW38458   2.744   9.509   6.814  0.0121 -0.3585 -0.5942
12627SOL    HW138459   2.778   9.597   6.802 -0.3739 -0.0382  0.5102
12627SOL    HW238460   2.689   9.493   6.737 -0.0809  0.4423 -0.6945
12628SOL     OW38461   1.011   6.037   1.891  0.2216 -0.7394  0.5682
12628SOL    HW138462   0.927   6.018   1.935 -1.1556 -0.0730 -1.6375
12628SOL    HW238463   1.060   6.089   1.955 -1.5472 -0.1064  1.4782
12629SOL     OW38464   6.258   6.118   2.421 -0.0429 -0.4780  0.3214
12629SOL    HW138465   6.243   6.183   2.490 -0.3824  0.9097 -0.9945
12629SOL    HW238466   6.349   6.091   2.431  0.2698  0.6350  0.5620
12630SOL     OW38467   3.718   0.036   5.102 -0.2729 -0.9739 -0.3066
12630SOL    HW138468   3.627   0.020   5.125  0.0156 -1.7267  0.3507
12630SOL    HW238469   3.756  -0.051   5.089  0.8698 -0.8086  1.5123
12631SOL     OW38470   4.466   0.716   2.593  0.0151 -0.4628 -0.5126
12631SOL    HW138471   4.410   0.649   2.631  0.9263  0.0402  1.8928
12631SOL    HW238472   4.485   0.685   2.505 -0.2348 -2.9691  0.2567
12632SOL     OW38473   1.379   4.644   2.208  0.3242 -0.1616  0.2065
12632SOL    HW138474   1.358   4.728   2.167  1.1124  0.4542  1.0261
12632SOL    HW238475   1.416   4.591   2.137  0.7537  0.5407 -0.0992
12633SOL     OW38476   3.563   9.678   3.614  0.0271 -0.2206 -0.7459
12633SOL    HW138477   3.531   9.739   3.680 -0.2371  1.1065 -2.0670
12633SOL    HW238478   3.523   9.594   3.638  0.8270 -0.0466  1.4060
12634SOL     OW38479   2.349   1.809   8.945 -0.1492  0.0640 -0.5503
12634SOL    HW138480   2.335   1.891   8.898 -0.8188 -0.7917 -1.9053
12634SOL    HW238481   2.374   1.746   8.877  0.5793 -0.8073  0.4872
12635SOL     OW38482   4.128   8.884   6.645  0.0707 -0.3384  0.1888
12635SOL    HW138483   4.048   8.924   6.679  0.0256  0.3783 -0.7196
12635SOL    HW238484   4.104   8.857   6.556  0.4356 -1.3742  0.3947
12636SOL     OW38485   3.723   0.289   2.004 -0.1436  0.3848 -0.3356
12636SOL    HW138486   3.765   0.371   2.029  0.9100 -1.2029  4.1489
12636SOL    HW238487   3.652   0.278   2.068 -0.4927 -1.9970 -1.0264
12637SOL     OW38488   2.669   5.199   9.502 -0.0530 -0.2684 -0.9892
12637SOL    HW138489   2.713   5.277   9.536 -0.0647 -0.7468  0.1509
12637SOL    HW238490   2.643   5.150   9.580  1.8408 -2.5011 -1.6732
12638SOL     OW38491   6.709   2.361   4.872 -0.0354  0.0267  0.5148
12638SOL    HW138492   6.618   2.339   4.853  0.7369 -1.0193 -2.6459
12638SOL    HW238493   6.742   2.287   4.923  0.2451 -2.2622 -2.6855
12639SOL     OW38494   5.402   2.178   2.719 -0.4181  0.8616  0.2111
12639SOL    HW138495   5.318   2.140   2.743 -0.1427  1.1110  1.6338
12639SOL    HW238496   5.454   2.104   2.686 -1.3842  0.8141 -1.3456
12640SOL     OW38497   4.088   4.112   4.736  0.3533  0.2405 -0.4217
12640SOL    HW138498   4.156   4.152   4.791  0.1576 -0.7648  0.6002
12640SOL    HW238499   4.134   4.043   4.688  0.2490  0.2147 -0.4855
12641SOL     OW38500   5.147   0.040   2.186  0.3017 -0.1381 -0.0962
12641SOL    HW138501   5.108   0.125   2.206  3.0626  1.2464 -0.0630
12641SOL    HW238502   5.125   0.024   2.094 -1.4537 -0.1566  0.2897
12642SOL     OW38503   0.463   4.104   0.523  0.4672  0.3716  0.1625
12642SOL    HW138504   0.418   4.151   0.453  1.2843 -0.2267 -0.7978
12642SOL    HW238505   0.458   4.162   0.599  0.6473  1.5915 -0.7351
12643SOL     OW38506   7.946   0.871   7.019 -0.0793 -0.3404 -0.0368
12643SOL    HW138507   8.033   0.911   7.019  1.2626 -2.9947  0.7572
12643SOL    HW238508   7.929   0.852   6.927  1.1994 -1.6369 -0.0594
12644SOL     OW38509   1.167   6.989   1.106  0.3716 -0.6157 -0.3010
12644SOL    HW138510   1.148   7.017   1.016  1.8509 -0.3782 -0.5636
12644SOL    HW238511   1.206   6.902   1.096  0.8137 -0.4628  0.0894
12645SOL     OW38512   1.784   2.148   6.319  0.1007 -0.1380  0.1842
12645SOL    HW138513   1.711   2.109   6.272 -0.0667 -1.5041  1.4912
12645SOL    HW238514   1.747   2.227   6.359 -0.7876 -0.9455  1.0448
12646SOL     OW38515   5.546   3.376   4.551  0.6918  0.1254 -0.2979
12646SOL    HW138516   5.465   3.417   4.580 -1.7421 -2.5563 -2.6770
12646SOL    HW238517   5.560   3.304   4.612  1.3815  0.6400  0.1645
12647SOL     OW38518   3.976   6.285   2.637 -0.1104  0.2544  0.0629
12647SOL    HW138519   3.906   6.225   2.612 -0.5930  0.5199  0.7541
12647SOL    HW238520   3.932   6.369   2.650  0.6822  0.9798 -1.7107
12648SOL     OW38521   7.629   7.010   2.292 -0.3173  0.0761 -0.6056
12648SOL    HW138522   7.674   6.969   2.366  0.6687  0.4975 -0.9550
12648SOL    HW238523   7.536   6.995   2.309 -0.0230 -1.5322 -0.2764
12649SOL     OW38524   0.784   4.507   3.120 -0.3631 -0.2937  0.2786
12649SOL    HW138525   0.805   4.435   3.060 -0.3512 -0.1696  0.1331
12649SOL    HW238526   0.848   4.498   3.191  2.6302  2.1925 -1.8413
12650SOL     OW38527   2.741   5.916   3.780  0.1639 -0.3133  0.0571
12650SOL    HW138528   2.667   5.862   3.808  0.1591  0.0789  0.8175
12650SOL    HW238529   2.787   5.937   3.861  1.1823 -0.6480 -0.4092
12651SOL     OW38530   8.735   9.328   4.469  0.5829  0.1735  0.0250
12651SOL    HW138531   8.830   9.331   4.461  0.6660  0.7179  1.1373
12651SOL    HW238532   8.719   9.269   4.543  0.0992  0.8782  0.4934
12652SOL     OW38533   2.121   7.654   4.447  0.0244 -0.3553  0.8105
12652SOL    HW138534   2.187   7.587   4.465  0.1736 -0.8699 -1.3664
12652SOL    HW238535   2.172   7.735   4.438 -0.1540  0.1205  3.4185
12653SOL     OW38536   5.178   5.916   7.797  0.2726  0.3855 -0.1248
12653SOL    HW138537   5.261   5.929   7.752 -0.4644 -0.8736 -1.9588
12653SOL    HW238538   5.191   5.837   7.849 -0.3063 -0.9010 -1.8694
12654SOL     OW38539   9.745   3.083   5.982 -0.2333 -0.6261  0.4892
12654SOL    HW138540   9.674   3.082   5.918  0.1369 -0.5219  0.0664
12654SOL    HW238541   9.732   3.164   6.031 -1.0766 -1.1762  1.1925
12655SOL     OW38542   1.712   5.718   0.151  0.2011 -0.2555 -0.1400
12655SOL    HW138543   1.660   5.639   0.142  1.2872 -1.0705  0.4785
12655SOL    HW238544   1.670   5.767   0.222  0.6739 -1.2526  0.8548
12656SOL     OW38545   2.445   2.974   9.559 -0.0252 -0.3100  0.5676
12656SOL    HW138546   2.529   3.017   9.574 -1.3424  1.9373  2.0972
12656SOL    HW238547   2.392   3.039   9.514 -1.2152 -1.4104  0.3059
12657SOL     OW38548   6.237   7.340   4.489 -0.2047 -0.3953  0.0339
12657SOL    HW138549   6.268   7.404   4.425  1.4952  0.1991  1.3635
12657SOL    HW238550   6.146   7.366   4.506  0.2189  1.2611 -0.0080
12658SOL     OW38551   3.972   9.372   4.831  0.3801  0.0351  0.0439
12658SOL    HW138552   4.045   9.427   4.801  1.2792 -0.8538  0.5393
12658SOL    HW238553   3.940   9.416   4.909  0.6328  0.2359  0.0374
12659SOL     OW38554   2.414   5.844   8.988  0.6446 -0.2606 -0.4476
12659SOL    HW138555   2.507   5.862   9.000  0.6889 -0.0638 -1.0541
12659SOL    HW238556   2.384   5.814   9.074  1.5916 -1.7954 -0.6105
12660SOL     OW38557   4.702   6.791   4.158 -0.5084  0.0886  0.1857
12660SOL    HW138558   4.657   6.822   4.236 -0.0876  0.4241  0.2961
12660SOL    HW238559   4.696   6.864   4.096 -0.5817 -0.0645  0.0117
12661SOL     OW38560   5.597   0.501   5.527  0.1847  0.2206 -0.0771
12661SOL    HW138561   5.674   0.505   5.470  0.4662 -2.3718  0.0016
12661SOL    HW238562   5.609   0.573   5.589  2.7819 -0.3441  0.1845
12662SOL     OW38563   3.009   5.599   9.681 -0.3254  0.1058  0.3824
12662SOL    HW138564   2.995   5.640   9.596  1.3495 -0.5714 -0.2516
12662SOL    HW238565   3.083   5.647   9.719  0.7500 -1.3963  0.2316
12663SOL     OW38566   1.541   6.464   4.483  0.1564 -0.1412 -0.0950
12663SOL    HW138567   1.541   6.406   4.559 -0.4610 -0.8039 -0.5872
12663SOL    HW238568   1.633   6.485   4.469  0.2053  0.8740  1.4761
12664SOL     OW38569   8.233   1.320   9.499  0.3292  0.3027 -0.3686
12664SOL    HW138570   8.187   1.268   9.433 -1.0299  0.8322  0.1145
12664SOL    HW238571   8.223   1.410   9.469  1.2409  0.4134 -0.3518
12665SOL     OW38572   2.001   0.929   9.769  0.3452  0.2556 -0.0554
12665SOL    HW138573   2.092   0.958   9.774  0.5535 -0.6224  3.0650
12665SOL    HW238574   2.005   0.840   9.734  0.8731 -0.2937  1.3378
12666SOL     OW38575   1.239   4.939   7.213 -0.1473  0.1332 -0.5807
12666SOL    HW138576   1.178   4.883   7.165 -0.0177 -0.0229 -0.5684
12666SOL    HW238577   1.323   4.893   7.204  0.6327  1.8255 -3.1661
12667SOL     OW38578   7.639   1.593   6.577 -0.2597 -0.4807  0.3126
12667SOL    HW138579   7.691   1.517   6.552 -0.9736 -0.7974 -0.2426
12667SOL    HW238580   7.572   1.600   6.509  0.4677  1.3327 -0.3094
12668SOL     OW38581   0.474   1.666   7.567  0.5603  0.3571  0.5078
12668SOL    HW138582   0.453   1.600   7.500  1.3490 -0.3912  0.9740
12668SOL    HW238583   0.468   1.619   7.650  0.7910  0.9638  0.8745
12669SOL     OW38584   1.885   7.279   3.199  0.0387  0.3375 -0.0517
12669SOL    HW138585   1.856   7.266   3.290 -2.8847 -0.6417 -1.0343
12669SOL    HW238586   1.941   7.203   3.181  1.1737  0.8596  1.0512
12670SOL     OW38587   9.874   2.350   0.231 -0.0466 -0.3107 -0.1946
12670SOL    HW138588   9.920   2.370   0.150  1.6312 -2.2830  0.2056
12670SOL    HW238589   9.782   2.342   0.206  0.0914  1.4251 -1.4261
12671SOL     OW38590   6.454   2.411   7.649 -0.2176 -0.2995 -0.2624
12671SOL    HW138591   6.529   2.381   7.701  0.2366 -1.1719 -1.3593
12671SOL    HW238592   6.426   2.332   7.602  0.3670  0.7579 -2.4932
12672SOL     OW38593   5.552   7.153   4.046  0.2475 -0.1470  0.3550
12672SOL    HW138594   5.534   7.065   4.012  1.0530 -0.2467  0.1686
12672SOL    HW238595   5.475   7.205   4.021  0.9507 -0.1148 -1.9232
12673SOL     OW38596   1.144   0.038   2.469  0.5521  0.0125  0.5706
12673SOL    HW138597   1.226   0.030   2.421  0.4336 -0.9700  0.5149
12673SOL    HW238598   1.080   0.062   2.402  1.0151  2.2025  0.8304
12674SOL     OW38599   0.621   7.099   8.349  0.0328 -0.3471 -0.4776
12674SOL    HW138600   0.618   7.189   8.383 -1.1137 -0.6869  0.3927
12674SOL    HW238601   0.612   7.109   8.255  1.9541  0.5495 -0.6209
12675SOL     OW38602   5.478   3.289   7.553 -0.0842  0.6158 -0.0428
12675SOL    HW138603   5.522   3.329   7.628 -0.4008  2.1132 -0.6212
12675SOL    HW238604   5.487   3.354   7.483  0.5965 -0.9354 -1.4475
12676SOL     OW38605   5.490   4.578   9.376 -0.3739 -0.4845 -0.0303
12676SOL    HW138606   5.557   4.534   9.325  0.0242  0.0107  0.0558
12676SOL    HW238607   5.538   4.641   9.430 -0.8163 -0.7931  0.7382
12677SOL     OW38608   3.830   4.883   6.264 -0.1805  0.5996  0.2143
12677SOL    HW138609   3.858   4.809   6.212  0.6817  0.1904  1.2084
12677SOL    HW238610   3.899   4.949   6.251 -0.3909  0.8154  0.1786
12678SOL     OW38611   1.786   9.806   9.784 -0.2469 -0.2831 -0.1135
12678SOL    HW138612   1.712   9.752   9.758 -0.6656  0.5613 -0.7444
12678SOL    HW238613   1.831   9.756   9.852 -2.5920  0.1004  1.8472
12679SOL     OW38614   8.155   1.644   1.782  0.2740 -0.0927 -0.3115
12679SOL    HW138615   8.246   1.659   1.808 -0.0266 -0.8704  1.3252
12679SOL    HW238616   8.114   1.730   1.787  0.9962  0.3561 -1.5436
12680SOL     OW38617   7.236   1.823   7.650 -0.0618 -0.3506  0.2786
12680SOL    HW138618   7.222   1.740   7.605 -0.4689 -1.1552  1.7992
12680SOL    HW238619   7.309   1.805   7.710  1.7812  1.2494 -1.3624
12681SOL     OW38620   9.210   5.153   6.692 -0.0623 -0.7626 -0.3365
12681SOL    HW138621   9.199   5.236   6.645 -0.6331 -0.8973 -0.4497
12681SOL    HW238622   9.155   5.162   6.770  0.2802 -0.8380 -0.0811
12682SOL     OW38623   3.048   7.050   2.662 -0.3952 -0.1347 -0.0621
12682SOL    HW138624   3.018   7.074   2.750  1.1899  1.0595  0.2043
12682SOL    HW238625   3.084   6.962   2.672  0.6696  0.3686  0.7379
12683SOL     OW38626   8.058   7.271   1.857  0.3116 -0.5599  0.2632
12683SOL    HW138627   8.154   7.268   1.861  0.2759 -0.6739  1.4830
12683SOL    HW238628   8.030   7.187   1.893 -0.2571 -0.2724  0.5016
12684SOL     OW38629   3.427   6.606   4.932 -0.0693 -0.0915 -0.3515
12684SOL    HW138630   3.443   6.583   4.840 -1.6617 -4.9040  0.2804
12684SOL    HW238631   3.392   6.526   4.971 -1.1984  2.2365  4.1101
12685SOL     OW38632   6.587   9.619   3.305  0.1594  0.1683  0.0916
12685SOL    HW138633   6.654   9.551   3.314 -1.2273 -1.1342  1.0582
12685SOL    HW238634   6.525   9.601   3.375 -0.1063  2.6791  0.6139
12686SOL     OW38635   4.688   4.203   1.070 -0.0033 -0.7990  0.3777
12686SOL    HW138636   4.654   4.222   1.157 -2.1541 -0.0906 -0.5587
12686SOL    HW238637   4.743   4.126   1.082 -0.2341 -0.7018  2.3519
12687SOL     OW38638   1.898   6.074   6.165 -0.0904  0.1078  0.0891
12687SOL    HW138639   1.809   6.077   6.130  0.1773  2.1297 -0.5105
12687SOL    HW238640   1.954   6.087   6.088  0.7374 -0.7953  0.5178
12688SOL     OW38641   9.662   5.023   2.214 -0.2669  0.4612 -0.3027
12688SOL    HW138642   9.723   5.052   2.282 -1.4456 -0.2007  1.0711
12688SOL    HW238643   9.582   5.073   2.229 -1.2037 -1.0741  0.0456
12689SOL     OW38644   4.367   5.511   1.877  0.3866  0.3761 -0.8675
12689SOL    HW138645   4.333   5.442   1.935 -0.7190  0.4009 -1.4743
12689SOL    HW238646   4.385   5.584   1.936 -1.3483  0.6352 -0.6174
12690SOL     OW38647   4.252   4.684   5.670 -0.2202  0.3696  0.2406
12690SOL    HW138648   4.161   4.699   5.696 -0.4565 -1.0422  0.3007
12690SOL    HW238649   4.275   4.760   5.617 -1.9950 -0.0713 -1.2320
12691SOL     OW38650   8.393   8.587   1.582 -0.0678  0.1719  0.4422
12691SOL    HW138651   8.451   8.515   1.560 -1.4092 -1.3629  1.7146
12691SOL    HW238652   8.447   8.647   1.633  0.5085 -1.1007  1.3786
12692SOL     OW38653   8.885   8.666   1.751  0.3380  0.0719  0.5168
12692SOL    HW138654   8.817   8.653   1.817  0.2423 -1.0577  0.2166
12692SOL    HW238655   8.931   8.581   1.746  1.2764  0.5811  0.1728
12693SOL     OW38656   8.282   1.371   8.032 -0.8006 -0.1923  0.2338
12693SOL    HW138657   8.214   1.337   8.089  0.9009 -2.4440  1.0506
12693SOL    HW238658   8.278   1.316   7.954 -0.3001  0.0583  0.0262
12694SOL     OW38659   6.087   6.155   7.411 -0.3394 -0.5971  0.0652
12694SOL    HW138660   6.178   6.176   7.392 -0.4764  0.6317  0.6241
12694SOL    HW238661   6.039   6.191   7.336 -0.4146 -0.6970  0.0656
12695SOL     OW38662   3.034   8.577   6.893 -0.0861 -0.2775 -0.2095
12695SOL    HW138663   2.959   8.572   6.834  0.7418  3.1515 -1.8198
12695SOL    HW238664   3.110   8.571   6.834  1.1597 -4.5404  1.4301
12696SOL     OW38665   4.181   6.863   4.355  0.1175 -0.0850 -0.0196
12696SOL    HW138666   4.100   6.888   4.311 -0.7641 -0.2605  1.4446
12696SOL    HW238667   4.191   6.769   4.336 -1.3170 -0.6426  1.6731
12697SOL     OW38668   4.247   8.160   2.199  0.1265  0.4469 -0.6316
12697SOL    HW138669   4.302   8.083   2.209  0.6366  1.0105  1.2261
12697SOL    HW238670   4.160   8.131   2.228  0.0526  0.2716 -1.0233
12698SOL     OW38671   0.468   2.704   1.041 -0.3095  0.5068 -0.4867
12698SOL    HW138672   0.468   2.654   1.123  0.6476  1.6835  0.2702
12698SOL    HW238673   0.509   2.646   0.977 -2.3800 -0.9935 -0.5563
12699SOL     OW38674   0.596   9.466   7.569  0.0609  0.0160 -0.6039
12699SOL    HW138675   0.632   9.395   7.622  0.6259  1.0163  0.3967
12699SOL    HW238676   0.669   9.526   7.556 -0.6542  0.9147 -0.5609
12700SOL     OW38677   8.252   4.386   7.398  0.0719  0.3204 -0.4177
12700SOL    HW138678   8.254   4.480   7.417  3.3812  0.2310  0.3257
12700SOL    HW238679   8.307   4.377   7.320  0.3141 -1.0431 -0.1102
12701SOL     OW38680   5.975   1.098   1.373 -0.2859  0.4639 -0.0159
12701SOL    HW138681   6.000   1.189   1.390 -1.5601  0.4295  2.4559
12701SOL    HW238682   5.969   1.092   1.277  3.5609  1.8873 -0.5338
12702SOL     OW38683   8.777   6.048   4.521  0.2457 -0.1068 -0.4898
12702SOL    HW138684   8.812   6.023   4.606  0.1975 -0.0159 -0.4425
12702SOL    HW238685   8.766   6.143   4.526  1.3668  0.0589 -1.0207
12703SOL     OW38686   9.927   9.178   8.499  0.8555 -0.2063  1.0143
12703SOL    HW138687  10.004   9.203   8.550 -0.4247  0.1156  2.8925
12703SOL    HW238688   9.957   9.178   8.409  3.2330 -0.7890  1.7415
12704SOL     OW38689   4.499   9.158   1.122 -0.4383  0.4097  0.5395
12704SOL    HW138690   4.422   9.197   1.163 -0.5942  1.7618 -0.9247
12704SOL    HW238691   4.557   9.232   1.105  0.4169 -0.3547  0.0429
12705SOL     OW38692   2.967   5.145   9.389 -0.3167  0.1820 -0.1726
12705SOL    HW138693   2.943   5.133   9.297 -0.0447 -1.6363 -0.0535
12705SOL    HW238694   2.896   5.199   9.425 -1.2157 -0.3232 -1.1153
12706SOL     OW38695   4.786   7.610   5.130  0.0929 -0.4333  0.4144
12706SOL    HW138696   4.812   7.693   5.089 -1.6529  0.9311  1.8810
12706SOL    HW238697   4.757   7.556   5.057  0.9508  0.3679 -0.5578
12707SOL     OW38698   5.543   3.179   4.372 -0.2309  0.3678 -0.2021
12707SOL    HW138699   5.582   3.108   4.423  0.3333 -0.3335 -1.5701
12707SOL    HW238700   5.540   3.253   4.433  0.0261 -0.5580  0.9671
12708SOL     OW38701   3.208   2.565   6.745  0.4834 -0.5872  0.4539
12708SOL    HW138702   3.140   2.602   6.801  0.2284 -0.9573  0.3870
12708SOL    HW238703   3.246   2.642   6.702 -1.0163 -0.4759 -0.7801
12709SOL     OW38704   4.521   0.824   7.458 -0.4935  0.2782 -0.1472
12709SOL    HW138705   4.465   0.829   7.380 -0.2374  3.7003 -0.2691
12709SOL    HW238706   4.482   0.886   7.520  0.6656 -0.5870  1.5319
12710SOL     OW38707   1.221   2.703   3.471 -0.2885 -0.3573  0.0233
12710SOL    HW138708   1.133   2.727   3.443 -0.2835 -0.2585  0.0873
12710SOL    HW238709   1.247   2.632   3.413  0.1251  0.5243 -0.9001
12711SOL     OW38710   5.043   9.959   3.433  0.3699  0.6949 -0.6042
12711SOL    HW138711   5.068   9.895   3.366  1.9379  0.9761 -0.3242
12711SOL    HW238712   5.071   9.921   3.516  0.3472  1.2774 -0.3186
12712SOL     OW38713   1.306   8.695   1.543 -0.0135  0.1530  0.4798
12712SOL    HW138714   1.358   8.705   1.623  2.4229  2.3107 -1.2000
12712SOL    HW238715   1.251   8.773   1.540 -0.2655 -0.0335  0.1943
12713SOL     OW38716   4.226   7.977   6.081 -0.0519  0.4304 -0.5752
12713SOL    HW138717   4.281   7.911   6.039  0.8666 -0.3529  1.7206
12713SOL    HW238718   4.244   8.057   6.031  3.4928  0.3026  0.2072
12714SOL     OW38719   2.194   0.538   2.546  0.6349  0.1132  0.0326
12714SOL    HW138720   2.106   0.562   2.519  1.1726  1.2998 -0.7501
12714SOL    HW238721   2.225   0.480   2.476  1.0802  1.0801 -0.5898
12715SOL     OW38722   3.132   4.593   5.808 -0.2263  0.4580 -0.1589
12715SOL    HW138723   3.174   4.675   5.782 -0.3324  1.2352  1.9377
12715SOL    HW238724   3.136   4.538   5.729  0.1906  2.3153 -1.5100
12716SOL     OW38725   8.598   0.735   5.341  0.8041 -0.3648 -0.0656
12716SOL    HW138726   8.590   0.826   5.371 -2.2502 -0.4906 -0.2326
12716SOL    HW238727   8.632   0.742   5.252  1.2794  0.5499  0.1718
12717SOL     OW38728   8.836   6.237   9.255 -0.3057  0.3302 -0.3942
12717SOL    HW138729   8.828   6.330   9.238 -2.6134  0.2271 -0.1695
12717SOL    HW238730   8.767   6.197   9.203  0.1166 -1.1707  0.1397
12718SOL     OW38731   6.234   5.522   5.025 -0.4999 -0.0017  0.2371
12718SOL    HW138732   6.160   5.578   5.000 -0.9271 -0.4746  0.4291
12718SOL    HW238733   6.198   5.434   5.027  0.1697 -0.2891 -0.0549
12719SOL     OW38734   4.712   0.717   4.017 -0.2000 -0.2514 -0.1918
12719SOL    HW138735   4.759   0.707   3.934 -1.1616 -0.7566 -0.6854
12719SOL    HW238736   4.704   0.812   4.028  1.2036 -0.1355  0.0712
12720SOL     OW38737   6.383   6.225   5.895  0.3137 -0.2757  0.0411
12720SOL    HW138738   6.370   6.275   5.815 -0.5584 -0.0821  0.2967
12720SOL    HW238739   6.478   6.214   5.901  0.3602 -0.7486 -1.2838
12721SOL     OW38740   8.290   4.876   3.468 -0.5833 -0.0766  0.3980
12721SOL    HW138741   8.226   4.943   3.493 -0.0802  0.6345 -0.1972
12721SOL    HW238742   8.268   4.801   3.523 -1.9762  0.1276  0.1672
12722SOL     OW38743   5.512   5.064   5.573  0.1988  0.5012  0.0477
12722SOL    HW138744   5.533   5.128   5.505  0.1242  1.0726  0.5514
12722SOL    HW238745   5.430   5.025   5.544  0.5090  0.2619 -0.5216
12723SOL     OW38746   3.022   6.442   3.247 -0.0784 -0.0481 -0.2694
12723SOL    HW138747   3.103   6.462   3.200  0.3429 -1.9584 -0.4282
12723SOL    HW238748   3.052   6.415   3.334 -0.8304  3.3201  1.1942
12724SOL     OW38749   0.213   2.142   6.114  0.2282  0.7502 -0.0247
12724SOL    HW138750   0.290   2.137   6.057  0.8766  0.8367  0.8325
12724SOL    HW238751   0.191   2.236   6.116 -0.8295  0.5736 -1.4561
12725SOL     OW38752   0.602   8.373   2.745 -0.2228 -0.1516 -0.2207
12725SOL    HW138753   0.519   8.353   2.701 -0.5240 -0.2610  0.3935
12725SOL    HW238754   0.653   8.422   2.680 -1.1891  0.8637 -0.2336
12726SOL     OW38755   4.800   8.757   8.907  0.0417  0.3647  0.6095
12726SOL    HW138756   4.709   8.756   8.878 -0.0493 -1.3784  0.8522
12726SOL    HW238757   4.797   8.728   8.998  0.9431 -1.3463  0.1431
12727SOL     OW38758   9.662   9.513   9.327 -0.1160  0.0650 -0.1504
12727SOL    HW138759   9.723   9.577   9.289 -1.7061  0.9905 -1.2770
12727SOL    HW238760   9.596   9.500   9.258 -2.4365  0.8182  1.8100
12728SOL     OW38761   9.100   0.564   6.810 -0.3371 -0.1066  0.0451
12728SOL    HW138762   9.145   0.487   6.846  0.0480  0.3965  0.6634
12728SOL    HW238763   9.015   0.565   6.855  0.1419  0.5187  0.9722
12729SOL     OW38764   5.286   8.635   5.846 -0.5365 -0.7069  0.2765
12729SOL    HW138765   5.226   8.667   5.779  0.0931 -0.7844 -0.3332
12729SOL    HW238766   5.303   8.544   5.821  1.4646 -0.1175 -0.7958
12730SOL     OW38767   4.410   0.874   0.210  0.2383 -0.5884 -0.2181
12730SOL    HW138768   4.315   0.865   0.217  0.0987 -0.7154 -1.9870
12730SOL    HW238769   4.440   0.789   0.180  0.9152 -0.5029  0.1956
12731SOL     OW38770   5.740   2.611   1.550  0.0942 -0.3096 -0.4186
12731SOL    HW138771   5.722   2.534   1.496 -0.9082  0.2205 -0.8639
12731SOL    HW238772   5.835   2.615   1.554  0.1767 -2.0690  0.3434
12732SOL     OW38773   3.881   0.150   2.835  0.7803 -0.4576 -0.1797
12732SOL    HW138774   3.911   0.237   2.860 -0.9151 -0.1317  0.9243
12732SOL    HW238775   3.954   0.092   2.855  2.0885  0.7238 -1.3039
12733SOL     OW38776   9.180   7.559   6.852 -0.4049  0.2328  0.1237
12733SOL    HW138777   9.211   7.618   6.920 -1.5901 -2.2777  3.0781
12733SOL    HW238778   9.096   7.597   6.824 -1.0382  0.1460  1.7976
12734SOL     OW38779   8.176   6.235   6.458 -0.0207 -0.2264  0.1280
12734SOL    HW138780   8.204   6.326   6.465 -0.9331  0.0471  0.3245
12734SOL    HW238781   8.250   6.185   6.491  0.1544  0.4938  0.8604
12735SOL     OW38782   9.202   3.366   9.680 -0.1969  0.1853 -0.2152
12735SOL    HW138783   9.176   3.274   9.667 -0.3433  0.1583  0.2424
12735SOL    HW238784   9.247   3.390   9.599  0.5942 -0.5525 -0.0184
12736SOL     OW38785   6.298   2.001   1.206 -0.2645  0.1042  0.0136
12736SOL    HW138786   6.340   2.065   1.263  1.1753  1.9696 -2.8904
12736SOL    HW238787   6.209   1.993   1.240 -0.3515  3.3319  0.8413
12737SOL     OW38788   1.244   1.560   8.893 -0.1153  0.1700 -0.1512
12737SOL    HW138789   1.289   1.495   8.840  0.7887 -0.2872  1.1575
12737SOL    HW238790   1.303   1.635   8.896  1.0564 -0.7599  2.3129
12738SOL     OW38791   4.281   8.643   6.612  0.2228  0.0700  0.4609
12738SOL    HW138792   4.225   8.709   6.653 -0.9688  1.1690 -2.7141
12738SOL    HW238793   4.358   8.692   6.583  0.2462 -0.3283 -0.1573
12739SOL     OW38794   2.334   2.085   1.484  0.1666  0.1641  0.1862
12739SOL    HW138795   2.242   2.071   1.465  0.2334 -0.2845  0.1882
12739SOL    HW238796   2.377   2.086   1.398 -0.0896  2.3167  0.0304
12740SOL     OW38797   8.013   2.014   1.529 -0.3682 -0.1355 -0.4642
12740SOL    HW138798   8.079   1.988   1.464 -0.9174 -1.9882 -0.3366
12740SOL    HW238799   8.011   2.109   1.524 -1.5007 -0.1908 -4.3094
12741SOL     OW38800   7.737   2.057   9.599 -0.1821 -0.3803  0.2955
12741SOL    HW138801   7.814   2.112   9.586 -0.8459  0.2671 -1.3057
12741SOL    HW238802   7.670   2.118   9.631 -0.5806 -0.4972 -0.2976
12742SOL     OW38803   1.165   9.073   0.309  0.1867  0.1434  0.1284
12742SOL    HW138804   1.177   9.167   0.313 -0.6007  0.1990  2.5465
12742SOL    HW238805   1.190   9.049   0.219  3.0452  2.2415  0.2419
12743SOL     OW38806   7.276   4.650   4.478 -0.8529 -0.2989  0.1420
12743SOL    HW138807   7.195   4.677   4.436 -0.2847 -0.3351 -1.0404
12743SOL    HW238808   7.308   4.729   4.523 -0.1920  0.5237 -1.6573
12744SOL     OW38809   2.419   3.896   4.885  0.1641 -0.2811  0.1490
12744SOL    HW138810   2.325   3.914   4.894  0.4167  1.8075 -0.7729
12744SOL    HW238811   2.453   3.905   4.974 -0.3529  0.0394  0.3236
12745SOL     OW38812   5.227   1.494   9.953  0.2899 -0.1108 -0.1567
12745SOL    HW138813   5.193   1.583   9.944 -0.7117 -0.4716 -0.0656
12745SOL    HW238814   5.297   1.488   9.887 -0.5125  0.3332 -1.0735
12746SOL     OW38815   4.369   4.408   7.806  0.6068 -0.4149  0.2753
12746SOL    HW138816   4.362   4.463   7.884  1.5127  2.2622 -1.3797
12746SOL    HW238817   4.452   4.362   7.816  1.1917  0.6568  0.4729
12747SOL     OW38818   0.005   3.487   9.513 -0.1761  0.0036 -0.0946
12747SOL    HW138819   0.047   3.528   9.437  2.8796 -0.0041  1.4566
12747SOL    HW238820  -0.004   3.395   9.489  1.2239 -0.0952 -0.2687
12748SOL     OW38821   6.302   4.210   6.814  0.4912  0.2976  0.1360
12748SOL    HW138822   6.373   4.147   6.831  0.9878  0.6928 -0.4122
12748SOL    HW238823   6.237   4.160   6.766 -0.0780 -0.3341  1.5131
12749SOL     OW38824   5.365   3.106   3.172  0.1782  0.2774  0.3374
12749SOL    HW138825   5.414   3.100   3.089 -0.8773 -0.3665 -0.2617
12749SOL    HW238826   5.310   3.028   3.172 -0.8728  1.0061  0.9775
12750SOL     OW38827   7.809   0.428   0.599  0.2815  0.1233  0.4453
12750SOL    HW138828   7.779   0.455   0.512  3.3116  4.2065  0.3757
12750SOL    HW238829   7.735   0.445   0.657 -0.4413  1.3661 -0.7840
12751SOL     OW38830   7.461   9.396   5.147  0.6145  0.5765 -0.8057
12751SOL    HW138831   7.417   9.477   5.171 -0.1981 -0.1875  0.3855
12751SOL    HW238832   7.396   9.347   5.098  0.7878  0.2498 -0.7130
12752SOL     OW38833   8.471   1.960   7.755 -0.2743  0.1224  0.0355
12752SOL    HW138834   8.563   1.985   7.747 -0.1916 -0.0343  0.4843
12752SOL    HW238835   8.436   2.017   7.823 -0.7422  0.8119 -0.7656
12753SOL     OW38836   5.112   9.058   2.850 -0.1298  0.5133 -0.0245
12753SOL    HW138837   5.041   9.043   2.912  0.2860  1.8856  0.8128
12753SOL    HW238838   5.136   8.970   2.820 -1.7025 -0.0210  0.1861
12754SOL     OW38839   3.075   8.716   3.941  0.8986  0.4189  0.1984
12754SOL    HW138840   3.132   8.744   3.869  1.6953 -0.9294  0.2897
12754SOL    HW238841   3.003   8.671   3.897  1.0851  0.1093  0.2077
12755SOL     OW38842   6.241   6.145   6.788 -0.0385  0.3739 -0.0649
12755SOL    HW138843   6.293   6.226   6.789 -1.5332  1.3754  0.4828
12755SOL    HW238844   6.168   6.163   6.848 -1.1882 -0.8577 -1.0377
12756SOL     OW38845   2.796   7.139   8.180  0.0490  0.3981  0.0425
12756SOL    HW138846   2.724   7.098   8.131  0.7550  0.4866 -1.1108
12756SOL    HW238847   2.831   7.070   8.236 -0.1470  0.0190 -0.3034
12757SOL     OW38848   1.771   5.249   9.381 -0.7961  0.4327  0.0005
12757SOL    HW138849   1.864   5.232   9.365 -0.9301 -0.1839 -0.1706
12757SOL    HW238850   1.754   5.333   9.339 -0.9451 -0.7526 -2.5634
12758SOL     OW38851   3.400   1.602   5.981  0.3333  0.0925  0.3272
12758SOL    HW138852   3.471   1.541   5.960  0.2239 -0.6987  2.1204
12758SOL    HW238853   3.442   1.670   6.033 -0.0122  0.2610  0.3874
12759SOL     OW38854   4.337   2.620   4.038  0.0607 -0.7810 -0.3240
12759SOL    HW138855   4.335   2.608   4.133  1.9475 -1.3432 -0.3246
12759SOL    HW238856   4.347   2.714   4.025  0.9801 -0.8174  0.0735
12760SOL     OW38857   1.930   0.872   1.108 -0.5235 -0.5690 -0.0418
12760SOL    HW138858   1.847   0.855   1.063 -0.3641 -0.4589 -0.3808
12760SOL    HW238859   1.997   0.843   1.046 -0.2234  1.4837 -0.7392
12761SOL     OW38860   8.747   3.942   3.357 -0.0949  0.0698  0.5793
12761SOL    HW138861   8.841   3.957   3.344 -0.1965  0.0367 -0.2835
12761SOL    HW238862   8.715   3.919   3.269 -0.9855  0.5186  0.7838
12762SOL     OW38863   1.971   9.853   6.836 -0.2562 -0.2248  0.2940
12762SOL    HW138864   2.007   9.767   6.859  0.7149  0.1441  0.1826
12762SOL    HW238865   1.898   9.833   6.778  2.3361 -0.9511 -3.0793
12763SOL     OW38866   5.430   4.351   1.971  0.0404  0.4365  0.1567
12763SOL    HW138867   5.401   4.329   2.059 -0.9698 -0.0120 -0.2682
12763SOL    HW238868   5.379   4.293   1.914  0.2298  1.1477 -0.7567
12764SOL     OW38869   0.763   6.322   9.427  0.2338  0.5596 -0.1957
12764SOL    HW138870   0.837   6.289   9.477  0.8999  1.3422 -0.6419
12764SOL    HW238871   0.797   6.337   9.339 -0.8232 -0.4227 -0.8043
12765SOL     OW38872   5.857   4.734   9.672 -0.0648  0.2879 -0.3295
12765SOL    HW138873   5.908   4.767   9.746  0.2232 -0.6773 -0.0891
12765SOL    HW238874   5.922   4.706   9.608 -0.1244 -3.1773  0.9287
12766SOL     OW38875   0.658   5.541   3.133  0.5402 -0.0717  0.2285
12766SOL    HW138876   0.739   5.498   3.108 -0.0131 -0.8055 -0.3213
12766SOL    HW238877   0.660   5.625   3.088  1.1981  0.1023  0.5760
12767SOL     OW38878   6.885   9.562   9.505 -0.6553  0.3913 -0.2909
12767SOL    HW138879   6.842   9.639   9.469 -1.0303 -0.0540 -0.8158
12767SOL    HW238880   6.862   9.562   9.598 -0.0084  1.3298 -0.1187
12768SOL     OW38881   9.960   7.870   3.812  0.3367 -0.2329  0.3101
12768SOL    HW138882   9.955   7.965   3.823  0.7070  0.0080 -1.3056
12768SOL    HW238883   9.931   7.834   3.896 -0.8178  1.2967  0.6129
12769SOL     OW38884   0.597   2.841   3.042  0.2055  0.5726  0.4945
12769SOL    HW138885   0.516   2.891   3.030  0.3762  0.7802  0.2055
12769SOL    HW238886   0.656   2.875   2.975  1.5995  2.5856  2.5906
12770SOL     OW38887   4.876   2.352   7.742  0.1951 -0.0500 -0.7112
12770SOL    HW138888   4.889   2.445   7.759 -0.8875  0.4073 -2.0987
12770SOL    HW238889   4.831   2.319   7.820  0.4100  0.6208 -0.2944
12771SOL     OW38890   1.175   5.475   2.214  0.1061 -0.2469  0.4121
12771SOL    HW138891   1.109   5.409   2.235 -0.7140  0.6289  0.7024
12771SOL    HW238892   1.181   5.474   2.119 -1.0622  0.3154  0.3064
12772SOL     OW38893   8.666   2.075   3.047 -0.0580 -0.2262  0.0585
12772SOL    HW138894   8.665   2.091   3.141 -0.6898 -1.3625  0.2706
12772SOL    HW238895   8.695   1.984   3.039  1.7031  0.3793 -0.9602
12773SOL     OW38896   5.079   7.575   4.643 -0.6931  0.7034  0.2123
12773SOL    HW138897   5.013   7.523   4.689  0.1171 -0.3529  0.2042
12773SOL    HW238898   5.071   7.548   4.551 -0.2358  0.5372  0.2169
12774SOL     OW38899   6.991   0.105   9.656  0.3075  0.0450 -0.0270
12774SOL    HW138900   7.014   0.116   9.748  0.7295 -0.9238  0.0000
12774SOL    HW238901   7.054   0.041   9.623  0.3796  0.6345 -1.0844
12775SOL     OW38902   5.520   1.609   0.089 -0.5251 -0.4543 -0.3401
12775SOL    HW138903   5.430   1.643   0.092 -0.2532  0.2431  0.7583
12775SOL    HW238904   5.511   1.520   0.055 -1.6296 -0.3761 -0.2897
12776SOL     OW38905   8.687   7.650   3.434  0.1630 -0.3253  0.2868
12776SOL    HW138906   8.603   7.613   3.459  0.2428 -1.5497 -1.1181
12776SOL    HW238907   8.665   7.720   3.372  0.0959  0.9383  1.6881
12777SOL     OW38908   5.925   8.200   5.702 -0.0394 -0.2026 -0.4540
12777SOL    HW138909   5.982   8.157   5.637  1.0910  1.4971 -0.6622
12777SOL    HW238910   5.912   8.288   5.667 -0.3265  0.3866  1.0778
12778SOL     OW38911   3.288   4.446   6.029  0.0581  0.2455 -0.0171
12778SOL    HW138912   3.221   4.491   5.978  1.1555  1.1002 -0.7812
12778SOL    HW238913   3.283   4.355   6.001 -0.5939  0.3499 -0.2541
12779SOL     OW38914   8.271   8.467   8.553 -0.1900 -0.0628  0.2379
12779SOL    HW138915   8.344   8.528   8.563 -0.0874 -0.2161  0.4421
12779SOL    HW238916   8.312   8.380   8.556 -0.3711 -0.1480  0.2754
12780SOL     OW38917   3.427   8.758   5.186 -0.4694 -0.1609 -0.1212
12780SOL    HW138918   3.351   8.718   5.229 -0.9394  0.0098 -0.7749
12780SOL    HW238919   3.422   8.727   5.096  1.1955 -1.5195  0.1906
12781SOL     OW38920   5.167   6.228   4.667 -0.1787 -0.4411 -0.0305
12781SOL    HW138921   5.150   6.291   4.597 -0.9978 -1.3305 -0.6342
12781SOL    HW238922   5.187   6.146   4.623  0.2742 -0.7801  0.7680
12782SOL     OW38923   2.556   8.706   2.351  0.1617 -0.0685  0.1789
12782SOL    HW138924   2.531   8.631   2.405  0.7821  0.5404  1.3363
12782SOL    HW238925   2.584   8.667   2.268  1.5907 -1.2324  1.1581
12783SOL     OW38926   1.962   2.487   4.220  0.4699  0.2099 -0.0440
12783SOL    HW138927   2.054   2.485   4.246 -0.1135  1.6418  2.4280
12783SOL    HW238928   1.915   2.455   4.297 -1.2487  2.1822 -0.2173
12784SOL     OW38929   2.688   3.761   3.379  0.0768  0.3212 -0.5164
12784SOL    HW138930   2.619   3.825   3.397  0.1880  0.2873  0.0652
12784SOL    HW238931   2.712   3.727   3.466  1.1143  0.6273 -0.6701
12785SOL     OW38932   0.852   7.229   7.807  0.0429 -0.3465 -0.8000
12785SOL    HW138933   0.875   7.158   7.866  1.1987  1.2678  0.7979
12785SOL    HW238934   0.882   7.200   7.721 -0.6118 -2.2537 -0.4440
12786SOL     OW38935   4.806   0.583   3.498  0.0971  0.4211  0.2272
12786SOL    HW138936   4.863   0.509   3.520  1.2596  1.0645 -0.5331
12786SOL    HW238937   4.718   0.545   3.492  0.6737 -0.8896 -0.1691
12787SOL     OW38938   0.908   5.463   5.060  0.2562  0.1426 -0.2893
12787SOL    HW138939   0.936   5.393   5.001 -1.3488  0.4097 -1.4333
12787SOL    HW238940   0.982   5.524   5.061  1.8402 -1.6665  1.0172
12788SOL     OW38941   2.144   4.806   4.717 -0.0572 -0.1089  0.8279
12788SOL    HW138942   2.192   4.817   4.799 -0.4086  0.2206  0.9961
12788SOL    HW238943   2.137   4.895   4.682 -1.0481 -0.0554  1.1055
12789SOL     OW38944   3.816   1.174   1.151  0.2953 -0.3401 -0.3664
12789SOL    HW138945   3.722   1.160   1.143  0.4441 -0.8229 -1.5152
12789SOL    HW238946   3.828   1.267   1.131  0.3078 -0.8446 -3.1055
12790SOL     OW38947   4.735   7.201   0.387  0.0266 -0.2339 -0.1973
12790SOL    HW138948   4.647   7.181   0.421  0.1269  0.4296  0.4807
12790SOL    HW238949   4.734   7.295   0.371  0.3686 -0.3518 -0.9368
12791SOL     OW38950   5.507   1.713   9.345  0.4343 -0.3749  0.1588
12791SOL    HW138951   5.489   1.620   9.356  0.8788 -0.6429 -1.2250
12791SOL    HW238952   5.422   1.756   9.356 -0.2450 -1.1878 -1.6495
12792SOL     OW38953   6.552   7.635   5.193  0.4984  0.8572  0.1003
12792SOL    HW138954   6.529   7.580   5.117  0.5255 -1.0190  1.3679
12792SOL    HW238955   6.647   7.628   5.199  0.6528  2.1645 -0.4874
12793SOL     OW38956   6.682   4.329   4.162  0.0296 -0.1348 -0.5669
12793SOL    HW138957   6.767   4.316   4.203 -1.3131 -0.2552  2.5141
12793SOL    HW238958   6.668   4.251   4.109  1.3248 -0.6555 -0.1747
12794SOL     OW38959   2.125   7.185   4.111  0.1357 -0.5473  0.3937
12794SOL    HW138960   2.156   7.209   4.024  1.9980  0.1148  1.1759
12794SOL    HW238961   2.041   7.230   4.119  0.5305  0.4267 -0.6024
12795SOL     OW38962   4.187   4.599   5.166 -0.5502  0.2042 -0.2443
12795SOL    HW138963   4.163   4.594   5.258 -0.0573 -1.5725 -0.1891
12795SOL    HW238964   4.275   4.637   5.166 -0.1640 -0.6637  0.1011
12796SOL     OW38965   0.881   9.498   3.180  0.8629 -0.5423 -0.1846
12796SOL    HW138966   0.909   9.588   3.162  0.4258 -0.4204 -0.2725
12796SOL    HW238967   0.920   9.478   3.265  1.0103 -0.2892 -0.1896
12797SOL     OW38968   3.519   6.117   0.836  1.3478  0.9327 -0.0899
12797SOL    HW138969   3.523   6.195   0.891  0.6249 -0.2648  1.7318
12797SOL    HW238970   3.442   6.070   0.866  2.0983 -0.7948 -0.7369
12798SOL     OW38971  -0.010   0.992   3.502  0.6118  0.0616  0.1213
12798SOL    HW138972   0.080   1.010   3.477  0.7353  0.9794  1.1625
12798SOL    HW238973  -0.010   0.995   3.597 -1.2689  4.3611  0.2232
12799SOL     OW38974   2.957   9.078   2.286  0.1334 -0.3186  0.2620
12799SOL    HW138975   2.908   9.155   2.313 -1.5519 -1.0977 -0.4257
12799SOL    HW238976   2.890   9.015   2.259  1.4333 -2.1193  1.0229
12800SOL     OW38977   3.767   7.976   2.920  0.3963  0.2838 -0.4331
12800SOL    HW138978   3.719   7.955   3.001  0.5621  0.4013 -0.3042
12800SOL    HW238979   3.797   8.065   2.933 -0.7075  0.7893 -1.1708
12801SOL     OW38980   0.198   9.371   0.850  0.0812  0.5276 -0.7482
12801SOL    HW138981   0.105   9.351   0.844  0.1692 -0.8353  1.5044
12801SOL    HW238982   0.202   9.453   0.899  0.0418  1.9987 -3.0539
12802SOL     OW38983   9.178   6.720   9.272 -0.7940 -0.2293 -0.0537
12802SOL    HW138984   9.094   6.706   9.317 -0.5442 -0.2289  0.4223
12802SOL    HW238985   9.236   6.655   9.311 -1.0003 -1.3598 -1.5528
12803SOL     OW38986   4.913   7.679   2.789 -0.0533  0.1854  0.3082
12803SOL    HW138987   4.981   7.619   2.821 -2.2474 -1.7618  1.5949
12803SOL    HW238988   4.897   7.653   2.699 -0.0376 -0.2522  0.4320
12804SOL     OW38989   8.733   2.827   5.100  0.1630  0.6886 -0.1024
12804SOL    HW138990   8.655   2.871   5.067 -0.6065  0.7832  1.7364
12804SOL    HW238991   8.805   2.864   5.049 -0.7349  2.3204 -0.2402
12805SOL     OW38992   6.538   3.688   6.126 -0.1026 -0.3393 -0.4692
12805SOL    HW138993   6.579   3.603   6.107  0.8321 -0.3257  1.2697
12805SOL    HW238994   6.445   3.667   6.140  0.2257 -1.2029  0.5522
12806SOL     OW38995   6.866   1.338   9.250  0.2609  0.0190  0.2422
12806SOL    HW138996   6.897   1.307   9.335 -1.9050  1.1787  1.5377
12806SOL    HW238997   6.806   1.410   9.270  0.5972  1.1508 -2.3463
12807SOL     OW38998   4.912   8.496   8.425 -0.4840  0.2523 -0.0353
12807SOL    HW138999   4.855   8.454   8.361  0.3028  0.5184 -0.9409
12807SOL    HW239000   4.974   8.427   8.449  1.5653  1.0823 -2.4249
12808SOL     OW39001   2.908   9.571   6.112  0.5065  0.4977  0.3166
12808SOL    HW139002   2.820   9.605   6.125  1.0447  1.6460  1.0750
12808SOL    HW239003   2.953   9.639   6.062  0.5981 -0.6728 -1.2813
12809SOL     OW39004   5.858   3.616   8.696  0.1825  0.0244 -0.4655
12809SOL    HW139005   5.923   3.679   8.726 -0.1406 -0.2124  0.7869
12809SOL    HW239006   5.774   3.657   8.716 -0.0631 -1.4854  2.0775
12810SOL     OW39007   2.326   4.716   1.919  0.0344 -0.3554 -0.1044
12810SOL    HW139008   2.275   4.705   2.000  0.1322  0.2988  0.0517
12810SOL    HW239009   2.414   4.686   1.942  0.2472  0.5253  0.2538
12811SOL     OW39010   9.632   3.660   9.591  0.2458  0.5695 -0.5269
12811SOL    HW139011   9.722   3.675   9.620  0.0662 -0.2488  0.5118
12811SOL    HW239012   9.640   3.598   9.519  0.4250 -1.0165  0.7924
12812SOL     OW39013   6.960   2.281   4.952  0.0560  0.1071 -0.2326
12812SOL    HW139014   7.045   2.298   4.911  1.0362 -0.0323  1.6276
12812SOL    HW239015   6.937   2.363   4.995 -1.2203  0.4241 -1.4419
12813SOL     OW39016   9.415   3.842   2.508 -0.0607 -0.0029 -0.0588
12813SOL    HW139017   9.409   3.933   2.536 -0.5695 -0.4970  1.5438
12813SOL    HW239018   9.329   3.804   2.529  0.5036 -1.1184  0.3472
12814SOL     OW39019   1.048   2.158   6.805  0.1333 -0.5749 -0.3401
12814SOL    HW139020   1.111   2.195   6.867 -0.2859  0.8768 -0.7451
12814SOL    HW239021   0.968   2.147   6.856 -0.7311  2.2020 -0.9277
12815SOL     OW39022   9.899   9.486   7.943  0.5107  0.1399  0.2805
12815SOL    HW139023   9.829   9.509   7.882  0.4727  0.7176  0.5262
12815SOL    HW239024   9.980   9.501   7.894  0.4867 -2.1854 -0.5883
12816SOL     OW39025   1.865   0.410   8.480  0.0844  0.4456 -0.1009
12816SOL    HW139026   1.949   0.368   8.497 -0.8907 -0.8126  1.8335
12816SOL    HW239027   1.836   0.444   8.565 -1.9303 -0.2346 -0.4521
12817SOL     OW39028   5.263   5.554   7.665 -0.3524  0.3039  0.5148
12817SOL    HW139029   5.285   5.473   7.618  0.5481 -0.4859  2.2156
12817SOL    HW239030   5.344   5.605   7.664  0.3974 -0.6783  2.9842
12818SOL     OW39031   8.400   9.377   0.655  0.2688 -0.7978 -0.1805
12818SOL    HW139032   8.436   9.454   0.612 -0.4302 -1.1644 -1.4784
12818SOL    HW239033   8.365   9.323   0.584 -0.9484 -1.4243  0.8429
12819SOL     OW39034   3.566   8.146   9.396 -0.2947 -0.5475 -0.3317
12819SOL    HW139035   3.480   8.109   9.375 -1.1639  1.1383  0.1391
12819SOL    HW239036   3.582   8.118   9.486 -1.0048  0.2756  0.0651
12820SOL     OW39037   0.219   8.461   6.048  0.2353 -0.4801 -0.3532
12820SOL    HW139038   0.134   8.458   6.004  0.0349 -1.2619  0.0581
12820SOL    HW239039   0.220   8.382   6.102  1.5554 -0.9102 -0.9617
12821SOL     OW39040   5.640   5.560   8.556 -0.5113  1.1742  0.1154
12821SOL    HW139041   5.673   5.512   8.633 -1.5075  1.3277  0.6482
12821SOL    HW239042   5.581   5.497   8.513  0.4687  0.8885 -0.8542
12822SOL     OW39043   6.619   7.428   8.363 -0.3783  0.3885  0.1039
12822SOL    HW139044   6.668   7.439   8.281  0.6499  2.3518  0.9124
12822SOL    HW239045   6.532   7.463   8.344 -1.6814 -3.1826 -1.3629
12823SOL     OW39046   4.169   9.772   0.554  0.0335 -0.7445 -0.3835
12823SOL    HW139047   4.162   9.699   0.616  0.2705 -1.0781 -0.7443
12823SOL    HW239048   4.263   9.783   0.541 -0.0255 -0.9563 -1.0095
12824SOL     OW39049   7.649   5.564   4.777  0.1512 -0.4034  0.1002
12824SOL    HW139050   7.645   5.660   4.786 -1.2492 -0.3632 -0.6670
12824SOL    HW239051   7.626   5.532   4.864 -0.3465 -0.0379  0.1083
12825SOL     OW39052   3.288   9.559   5.041  0.5520  0.1600  0.7977
12825SOL    HW139053   3.291   9.490   5.107  0.8328  0.7023  1.3600
12825SOL    HW239054   3.354   9.533   4.976 -0.2027 -0.7248  0.3639
12826SOL     OW39055   2.948   1.395   4.711 -0.1443 -0.4694  0.8095
12826SOL    HW139056   2.862   1.421   4.676  0.2434  1.0422  0.9159
12826SOL    HW239057   2.932   1.380   4.804 -0.5815 -1.6716  0.5611
12827SOL     OW39058   5.955   7.507   7.241 -0.1057  0.5657  0.2370
12827SOL    HW139059   6.006   7.568   7.188  1.2715 -0.0281  0.8254
12827SOL    HW239060   6.007   7.427   7.242 -1.3903 -0.2975  0.3175
12828SOL     OW39061   9.071   1.489   5.137 -0.3881 -0.1240  0.3886
12828SOL    HW139062   8.984   1.516   5.166  0.0124  0.3914  1.1561
12828SOL    HW239063   9.121   1.481   5.218  0.0566 -1.2307  0.0225
12829SOL     OW39064   5.776   7.478   2.544  0.0573  0.5005 -0.4726
12829SOL    HW139065   5.800   7.526   2.465 -0.8306  0.9194 -0.4940
12829SOL    HW239066   5.725   7.403   2.512 -1.4328  1.3773 -0.2372
12830SOL     OW39067   5.584   7.899   9.312  0.0257  0.1417  0.3704
12830SOL    HW139068   5.582   7.804   9.326  0.6735 -0.2358 -1.7274
12830SOL    HW239069   5.623   7.935   9.391  1.0473 -1.4928  0.6476
12831SOL     OW39070   4.039   8.640   4.804  0.3552 -0.4176 -0.0335
12831SOL    HW139071   4.002   8.552   4.805 -0.0296 -0.2792  1.5942
12831SOL    HW239072   4.133   8.626   4.790  0.4893 -1.2204  1.4011
12832SOL     OW39073   0.994   8.826   3.645  0.6726 -0.3390 -0.1375
12832SOL    HW139074   1.020   8.843   3.555 -0.1150  0.2047 -0.2753
12832SOL    HW239075   1.076   8.804   3.690  0.9425 -1.5429 -1.1791
12833SOL     OW39076   1.736   2.744   8.132 -0.4752 -0.2686  0.4444
12833SOL    HW139077   1.755   2.832   8.166  0.8297 -0.5473  0.5228
12833SOL    HW239078   1.763   2.685   8.203 -0.4653 -0.7586  0.0377
12834SOL     OW39079   8.300   0.758   8.290  0.1819 -0.1299 -0.7002
12834SOL    HW139080   8.224   0.734   8.237  1.0547  1.0301 -2.5943
12834SOL    HW239081   8.265   0.770   8.378 -1.2879 -2.3538 -0.9057
12835SOL     OW39082   7.942   2.675   4.427  0.4346  0.1228 -0.1011
12835SOL    HW139083   8.028   2.703   4.457  0.4331  1.6601 -1.3707
12835SOL    HW239084   7.884   2.691   4.501  1.0098  0.4540  0.2823
12836SOL     OW39085   1.910   4.758   2.474 -0.1579  0.5958 -0.2057
12836SOL    HW139086   1.862   4.700   2.414  1.2260 -2.3022  1.3166
12836SOL    HW239087   1.944   4.827   2.417  0.4198 -1.5540 -2.6731
12837SOL     OW39088   1.708   0.930   5.524 -0.2013 -0.1006  0.1887
12837SOL    HW139089   1.627   0.920   5.575  0.3214  0.9498  1.2606
12837SOL    HW239090   1.701   0.863   5.456 -2.4240  0.5750 -0.3516
12838SOL     OW39091   5.043   9.558   3.940 -0.2259 -0.1453 -0.4246
12838SOL    HW139092   4.950   9.580   3.943 -0.6230 -1.7767 -0.2397
12838SOL    HW239093   5.064   9.554   3.847 -0.3551  0.1016 -0.4653
12839SOL     OW39094   0.196   5.875   0.993  0.2468  0.2138 -0.3008
12839SOL    HW139095   0.278   5.866   0.945 -0.9387 -3.5499 -1.9910
12839SOL    HW239096   0.139   5.923   0.933  0.2230 -0.1738 -0.5935
12840SOL     OW39097   3.005   2.629   1.841  0.5770  0.1593  0.3261
12840SOL    HW139098   3.032   2.570   1.770 -0.6007  0.2148 -0.2006
12840SOL    HW239099   2.975   2.707   1.795 -2.6081 -0.7336  0.6568
12841SOL     OW39100   7.545   9.808   1.269  0.1585 -0.7533  0.3441
12841SOL    HW139101   7.512   9.786   1.357 -0.6711 -0.5751  0.0863
12841SOL    HW239102   7.628   9.853   1.285  1.3158 -2.9489  0.9505
12842SOL     OW39103   8.100   2.674   9.256 -0.4634  0.1428  0.6069
12842SOL    HW139104   8.185   2.697   9.293 -1.2666  0.4925  2.3574
12842SOL    HW239105   8.117   2.596   9.203  0.7440 -0.5614  1.9483
12843SOL     OW39106   6.115   3.667   0.694  0.1152  0.4107 -0.2779
12843SOL    HW139107   6.184   3.605   0.716  0.7782  1.1882 -0.1245
12843SOL    HW239108   6.144   3.708   0.613  0.2605  1.3400  0.2266
12844SOL     OW39109   3.956   9.658   2.288 -0.5722  0.1973 -0.5936
12844SOL    HW139110   3.921   9.746   2.274 -0.3625  0.1451 -1.5242
12844SOL    HW239111   3.880   9.604   2.309 -0.6607  0.6563  0.3098
12845SOL     OW39112   1.923   0.771   8.595  0.1813 -0.2895  1.1503
12845SOL    HW139113   1.973   0.709   8.648 -0.0809  1.1837  3.2728
12845SOL    HW239114   1.854   0.718   8.555  2.7605 -2.2211 -1.1558
12846SOL     OW39115   5.677   5.545   4.879 -0.4888  0.1387  0.4709
12846SOL    HW139116   5.696   5.452   4.875 -1.4204 -0.0666  0.4593
12846SOL    HW239117   5.596   5.551   4.931 -0.0227  1.0057  1.1223
12847SOL     OW39118   4.826   7.168   8.848  0.0812 -0.0838 -0.6051
12847SOL    HW139119   4.765   7.213   8.790  0.3521 -0.3303 -1.0886
12847SOL    HW239120   4.864   7.099   8.794 -1.4412 -1.9090  0.5374
12848SOL     OW39121   0.528   9.452   9.358  0.1003  0.6840 -0.0891
12848SOL    HW139122   0.456   9.501   9.396  0.3832  1.2722 -0.3058
12848SOL    HW239123   0.604   9.510   9.363  0.4840  0.2062 -0.1807
12849SOL     OW39124   4.610   5.679   5.428 -0.2779 -0.1501 -0.2559
12849SOL    HW139125   4.682   5.671   5.490 -0.7345  1.2827  0.5065
12849SOL    HW239126   4.630   5.759   5.379 -1.6119  0.5967  0.3669
12850SOL     OW39127   9.138   8.493   7.298  0.3524  0.1541 -0.3502
12850SOL    HW139128   9.070   8.500   7.365  0.5565 -1.3927  0.0629
12850SOL    HW239129   9.148   8.582   7.265 -0.9414  0.6482  0.4949
12851SOL     OW39130   9.588   2.226   1.405  0.4949  0.4606 -0.4679
12851SOL    HW139131   9.608   2.318   1.418  0.3348  0.3859  0.3387
12851SOL    HW239132   9.515   2.209   1.464 -1.1021  0.4081 -2.3656
12852SOL     OW39133   3.380   9.101   4.631 -0.4209  0.5596  0.1206
12852SOL    HW139134   3.353   9.080   4.721  0.9990  0.5478  0.5754
12852SOL    HW239135   3.429   9.023   4.603  0.9615  1.4032  0.1305
12853SOL     OW39136   6.183   1.321   8.411 -0.7435 -0.1804  0.4965
12853SOL    HW139137   6.276   1.339   8.424 -0.8048  0.6833 -0.1261
12853SOL    HW239138   6.178   1.277   8.327 -0.8483 -0.7428  0.7951
12854SOL     OW39139   8.131   0.072   8.279 -0.1187 -0.1841  0.2437
12854SOL    HW139140   8.130   0.093   8.372 -1.2340 -1.3639  0.5263
12854SOL    HW239141   8.163  -0.019   8.276  0.4007  0.0141 -0.5698
12855SOL     OW39142   1.526   6.447   9.907  0.1038  0.6433 -0.7001
12855SOL    HW139143   1.448   6.421   9.956  1.4106 -0.3224  0.9678
12855SOL    HW239144   1.538   6.376   9.843  0.8120 -0.3809  0.5098
12856SOL     OW39145   6.102   9.001   1.232 -0.1725 -0.4355 -0.4481
12856SOL    HW139146   6.067   9.061   1.166  1.3926 -0.8096 -1.6770
12856SOL    HW239147   6.195   9.022   1.236 -0.0357 -1.2108  0.8065
12857SOL     OW39148   2.026   3.216   3.803  0.2140 -0.0727 -1.1477
12857SOL    HW139149   2.036   3.264   3.885  1.0484  1.1132 -1.9121
12857SOL    HW239150   2.109   3.230   3.757 -0.1402 -0.9332 -2.0794
12858SOL     OW39151   4.571   4.204   7.049 -0.2495 -0.0758  0.1798
12858SOL    HW139152   4.484   4.167   7.032  0.0227 -0.1405 -1.1119
12858SOL    HW239153   4.595   4.249   6.969  0.2686  1.2776  1.0506
12859SOL     OW39154   5.842   7.521   6.521  0.4637  0.0086  0.6449
12859SOL    HW139155   5.822   7.615   6.527  0.1106 -0.0666  0.6895
12859SOL    HW239156   5.762   7.482   6.487  0.4538 -0.3349  1.0557
12860SOL     OW39157   8.320   1.978   4.358  0.1223  0.7206  0.2209
12860SOL    HW139158   8.323   2.018   4.271  1.5402  3.4036  1.3729
12860SOL    HW239159   8.404   1.934   4.368  0.2243  0.9549  0.4291
12861SOL     OW39160   0.378   1.140   1.092 -0.7938 -0.0378  0.8706
12861SOL    HW139161   0.360   1.046   1.091 -0.0678 -0.2257 -1.3673
12861SOL    HW239162   0.421   1.156   1.176 -1.5841 -1.5454  1.6000
12862SOL     OW39163   8.188   5.819   1.462 -0.4032  0.2179 -0.1611
12862SOL    HW139164   8.262   5.759   1.462 -0.4615  0.1103  1.1653
12862SOL    HW239165   8.122   5.776   1.408  0.1951 -0.0648 -0.6824
12863SOL     OW39166   0.259   4.923   1.726  0.2980 -0.2198  0.0145
12863SOL    HW139167   0.289   4.839   1.692  0.8979  1.1443 -3.1993
12863SOL    HW239168   0.331   4.984   1.708 -1.3178  1.5823 -0.7564
12864SOL     OW39169   6.493   4.984   4.471 -0.4517  0.4736  0.6072
12864SOL    HW139170   6.442   4.906   4.453  0.5105  0.2307 -1.3598
12864SOL    HW239171   6.573   4.973   4.419  0.7437  1.7140  2.0691
12865SOL     OW39172   4.721   2.064   8.330  0.1771 -0.1767  0.1016
12865SOL    HW139173   4.694   2.028   8.414  1.7498  1.9996  1.6346
12865SOL    HW239174   4.808   2.100   8.346  0.4988  0.3771 -2.4637
12866SOL     OW39175   8.031   2.043   3.237 -0.2099  0.0148 -0.7501
12866SOL    HW139176   8.122   2.057   3.213 -0.0563  0.4921  0.0861
12866SOL    HW239177   7.981   2.098   3.177 -0.0571 -1.3468 -2.1728
12867SOL     OW39178   6.880   8.563   0.222  0.0733 -0.0563 -0.0895
12867SOL    HW139179   6.793   8.558   0.261 -0.1962 -3.2115 -0.8303
12867SOL    HW239180   6.870   8.624   0.149 -1.3263  0.1319  0.2319
12868SOL     OW39181   1.993   9.670   6.529  0.5231  0.0413 -0.7522
12868SOL    HW139182   1.954   9.665   6.442  1.0893  1.0272 -1.0660
12868SOL    HW239183   2.004   9.763   6.546 -0.9390 -0.0522  0.9912
12869SOL     OW39184   2.707   6.918   7.492  0.0032  0.1348 -0.4523
12869SOL    HW139185   2.694   6.882   7.580  0.1617 -0.4417 -0.6597
12869SOL    HW239186   2.794   6.956   7.494 -0.7035  1.8373  0.2058
12870SOL     OW39187   1.222   9.077   4.921 -0.3073 -0.1549  0.1126
12870SOL    HW139188   1.163   9.142   4.883 -2.0546 -1.4762  0.4360
12870SOL    HW239189   1.306   9.121   4.927 -1.5332  2.2142  0.7776
12871SOL     OW39190   9.277   7.731   7.092  0.7407  0.1840  0.7139
12871SOL    HW139191   9.369   7.747   7.072  0.4184  0.7346 -0.4163
12871SOL    HW239192   9.277   7.657   7.153  1.8599 -0.6777 -0.3005
12872SOL     OW39193   5.013   0.075   0.534  0.1991  0.4391 -0.4958
12872SOL    HW139194   5.076   0.109   0.471  0.1830  0.4791 -0.4903
12872SOL    HW239195   5.064   0.061   0.614  0.2221  0.3760 -0.5212
12873SOL     OW39196   3.133   5.438   5.773 -0.3088  0.0106  0.0201
12873SOL    HW139197   3.113   5.360   5.825 -0.4307 -0.5120 -0.7943
12873SOL    HW239198   3.213   5.417   5.727  0.1924  0.7495  0.5321
12874SOL     OW39199   3.937   2.380   7.626  0.4345 -0.3251  0.5435
12874SOL    HW139200   3.998   2.308   7.644 -0.0469 -1.1624 -1.0635
12874SOL    HW239201   3.888   2.352   7.549 -1.2030  0.8417  1.1108
12875SOL     OW39202   1.800   7.171   2.875  0.3659 -0.2117 -0.0324
12875SOL    HW139203   1.861   7.097   2.867  0.8678  0.2334 -0.4525
12875SOL    HW239204   1.779   7.175   2.968 -1.4146 -2.2507 -0.2588
12876SOL     OW39205   6.247   4.660   0.075  0.2352  0.4912 -0.2396
12876SOL    HW139206   6.343   4.657   0.074  0.2238 -0.5810  0.5601
12876SOL    HW239207   6.224   4.698  -0.010  1.3851  1.8740  0.0156
12877SOL     OW39208   4.372   1.119   6.731  0.0969 -0.1903  0.3319
12877SOL    HW139209   4.466   1.136   6.720 -0.0087 -0.2454 -0.7013
12877SOL    HW239210   4.367   1.027   6.755  0.2047 -0.7764 -1.6939
12878SOL     OW39211   6.091   2.984   5.973 -0.6100 -0.1465  0.3507
12878SOL    HW139212   6.154   3.007   6.041  0.5424  1.0692 -1.0763
12878SOL    HW239213   6.033   3.061   5.967  0.3683  0.5160 -1.1957
12879SOL     OW39214   0.477   8.865   0.719  0.1160 -0.1781 -0.3206
12879SOL    HW139215   0.403   8.848   0.661 -0.4179  0.8557  0.0372
12879SOL    HW239216   0.486   8.960   0.719 -0.0794 -0.1204  1.5163
12880SOL     OW39217   4.938   0.855   6.017  0.2295  0.4518 -0.3006
12880SOL    HW139218   4.939   0.794   5.943  0.0997  2.1506 -1.7913
12880SOL    HW239219   4.859   0.833   6.066  0.9243 -1.4586  0.0254
12881SOL     OW39220   7.828   0.816   4.003 -0.0228 -0.5384  0.0379
12881SOL    HW139221   7.754   0.876   3.993 -0.3632 -0.8566  0.6183
12881SOL    HW239222   7.904   0.867   3.974 -0.6645 -0.7745 -2.2716
12882SOL     OW39223   7.741   8.525   5.036 -0.7803 -0.3138 -0.3080
12882SOL    HW139224   7.675   8.465   5.072  0.5677 -1.3527  0.5281
12882SOL    HW239225   7.813   8.522   5.099 -0.3509  1.5969 -0.6661
12883SOL     OW39226   2.973   7.317   2.101 -0.2804  0.1886  0.1096
12883SOL    HW139227   3.031   7.391   2.118  0.0246 -0.1713  0.6486
12883SOL    HW239228   3.031   7.242   2.090 -0.4924  0.2461 -1.8028
12884SOL     OW39229   0.414   9.212   7.741 -0.3116  0.0880  0.0231
12884SOL    HW139230   0.468   9.161   7.802  0.4289  1.1726  0.2867
12884SOL    HW239231   0.398   9.294   7.786  0.5365  1.0595 -1.3677
12885SOL     OW39232   0.346   1.878   2.605 -0.4839  0.3425 -0.1795
12885SOL    HW139233   0.255   1.896   2.628 -0.4583 -0.8891  1.0029
12885SOL    HW239234   0.395   1.893   2.686  0.4070  1.0799 -0.8253
12886SOL     OW39235   4.845   8.345   1.155 -0.1008 -0.5580  0.1521
12886SOL    HW139236   4.883   8.291   1.224  0.5656  0.5495  0.6678
12886SOL    HW239237   4.905   8.418   1.145 -0.4630 -0.4177 -1.2416
12887SOL     OW39238   1.922   2.870   1.217  0.2220  0.2535 -0.1527
12887SOL    HW139239   1.913   2.778   1.193  0.0488  0.0579  0.6352
12887SOL    HW239240   1.867   2.880   1.294  0.4754  0.9484 -0.0568
12888SOL     OW39241   4.968   7.484   7.038  0.3929  0.6865 -0.4080
12888SOL    HW139242   4.929   7.415   7.093  1.3893  0.4560  0.0209
12888SOL    HW239243   5.058   7.492   7.069  1.1043  0.2910 -2.2703
12889SOL     OW39244   9.373   5.337   1.448 -0.0469 -0.8481  0.2496
12889SOL    HW139245   9.445   5.274   1.449 -0.7140 -1.6181  0.1770
12889SOL    HW239246   9.385   5.387   1.367  0.3959 -0.9799  0.2349
12890SOL     OW39247   7.481   0.941   7.219 -0.3560 -0.3286 -0.7078
12890SOL    HW139248   7.525   0.954   7.135 -1.8927  1.6523 -1.2770
12890SOL    HW239249   7.417   1.012   7.224 -0.5646 -0.6079  1.9937
12891SOL     OW39250   7.694   3.740   1.703 -0.3414  0.1608  0.1920
12891SOL    HW139251   7.620   3.784   1.661  0.7352  2.6080  0.6648
12891SOL    HW239252   7.752   3.716   1.631 -1.4869 -1.7285 -0.1778
12892SOL     OW39253   6.607   6.858   3.326 -0.2436 -0.0456  0.3132
12892SOL    HW139254   6.698   6.885   3.336 -0.3061  1.3741 -2.1914
12892SOL    HW239255   6.611   6.781   3.269 -0.6014 -0.1136  0.3763
12893SOL     OW39256   8.631   2.712   6.633  0.0173  0.2501  0.2764
12893SOL    HW139257   8.709   2.767   6.632  0.0797  0.1958 -1.2482
12893SOL    HW239258   8.580   2.743   6.707  2.2429 -0.8616  2.4209
12894SOL     OW39259   4.246   5.734   2.002 -0.5283 -0.0736  0.3924
12894SOL    HW139260   4.250   5.830   2.008 -0.6863  0.0006 -0.5087
12894SOL    HW239261   4.269   5.703   2.089 -0.1413  0.7824  0.6001
12895SOL     OW39262   5.925   1.400   3.075 -0.0964 -0.0163 -0.0520
12895SOL    HW139263   5.930   1.340   3.001  0.2095 -0.3405  0.2313
12895SOL    HW239264   5.964   1.481   3.043  2.0883 -0.8254  0.4130
12896SOL     OW39265  -0.002   3.167   3.730  0.3630 -0.1833  0.1751
12896SOL    HW139266   0.048   3.167   3.811 -0.0680  0.3339  0.4458
12896SOL    HW239267  -0.034   3.256   3.722  4.2229  1.2484 -2.9512
12897SOL     OW39268   9.320   7.868   7.508  0.1888 -0.6868 -0.6748
12897SOL    HW139269   9.314   7.803   7.579  2.1677  0.5188  0.6778
12897SOL    HW239270   9.235   7.912   7.509 -0.1011 -1.2306  0.4192
12898SOL     OW39271   3.976   8.210   7.047  0.5366 -0.5503 -0.2141
12898SOL    HW139272   4.030   8.220   6.969  0.1841 -0.4689 -0.4468
12898SOL    HW239273   4.017   8.137   7.095 -0.2965 -1.8394 -1.3761
12899SOL     OW39274   7.487   0.743   0.165  0.1456 -0.7128  0.8842
12899SOL    HW139275   7.409   0.785   0.130  1.2269  1.5087  0.9479
12899SOL    HW239276   7.457   0.659   0.199 -1.9963 -0.3590 -0.0083
12900SOL     OW39277   6.107   6.014   6.151 -0.9244  0.2181  0.4029
12900SOL    HW139278   6.044   5.947   6.125  0.8139 -1.0023 -0.8873
12900SOL    HW239279   6.163   6.025   6.074  0.5315  1.1434  1.5453
12901SOL     OW39280   0.703   8.934   5.763 -0.7527  0.4928 -0.6929
12901SOL    HW139281   0.793   8.900   5.769 -0.1683  1.8031 -1.4359
12901SOL    HW239282   0.713   9.028   5.776 -2.0887  0.6106 -0.4254
12902SOL     OW39283   9.092   2.569   1.894  0.1236 -0.0969  0.5815
12902SOL    HW139284   9.010   2.523   1.906 -0.5196  0.9116  0.1858
12902SOL    HW239285   9.088   2.642   1.956  1.0616 -0.4694  1.1038
12903SOL     OW39286   3.970   2.539   8.335  0.3492 -0.0521 -0.2329
12903SOL    HW139287   3.967   2.557   8.429  0.4561  2.0114 -0.5646
12903SOL    HW239288   4.007   2.619   8.297  1.5388 -1.3424 -1.9286
12904SOL     OW39289   9.444   1.720   3.154 -0.1860  0.0493 -0.3851
12904SOL    HW139290   9.483   1.655   3.211 -0.3765 -0.7929 -1.1897
12904SOL    HW239291   9.376   1.761   3.207  0.7042  0.4153  0.5043
12905SOL     OW39292   0.150   8.776   2.773 -0.6381  0.3285 -0.8752
12905SOL    HW139293   0.214   8.705   2.768 -0.3341  0.4661  0.6227
12905SOL    HW239294   0.201   8.853   2.797 -1.4473  0.2571  1.2505
12906SOL     OW39295   4.426   5.846   4.934 -0.0661 -0.0076 -0.1037
12906SOL    HW139296   4.358   5.875   4.873  0.4684  3.1585  0.6334
12906SOL    HW239297   4.443   5.922   4.989  2.3125 -1.4982  1.4016
12907SOL     OW39298   3.156   7.126   2.918  0.4203  0.3070 -0.1552
12907SOL    HW139299   3.207   7.197   2.879 -1.1916  0.4636 -2.1503
12907SOL    HW239300   3.086   7.169   2.967 -0.0996  0.1337 -0.7233
12908SOL     OW39301   3.955   0.589   1.314 -0.6861 -0.3386  0.1190
12908SOL    HW139302   4.014   0.541   1.256  0.6848 -0.0039  1.1803
12908SOL    HW239303   3.903   0.643   1.256 -1.8544 -2.5940 -1.0717
12909SOL     OW39304   5.428   8.306   7.496 -0.7784  0.1092  0.2626
12909SOL    HW139305   5.479   8.255   7.558 -0.7448  1.1084  1.0815
12909SOL    HW239306   5.360   8.349   7.548  0.2334  2.2513 -0.0554
12910SOL     OW39307   9.008   3.453   1.277  1.0174 -0.5098  0.2916
12910SOL    HW139308   9.041   3.458   1.187 -2.0176  0.4009 -0.9127
12910SOL    HW239309   8.982   3.361   1.287  0.9038 -0.5100  0.0220
12911SOL     OW39310   7.947   4.019   1.471 -0.4375 -0.6267  0.2330
12911SOL    HW139311   7.945   3.955   1.400  1.2879 -2.0118  1.3230
12911SOL    HW239312   8.015   4.081   1.444 -0.3587 -0.6905  0.2819
12912SOL     OW39313   1.826   9.939   4.435  0.0130  0.1136 -0.2393
12912SOL    HW139314   1.900   9.885   4.408 -1.9940 -2.3524 -1.1785
12912SOL    HW239315   1.830   9.939   4.530  1.3888  0.3348 -0.2731
12913SOL     OW39316   5.752   3.287   3.352 -0.6703  0.5428 -0.1924
12913SOL    HW139317   5.695   3.212   3.336 -0.7956  0.5587  0.1852
12913SOL    HW239318   5.699   3.347   3.405  0.2583 -0.1548  1.5676
12914SOL     OW39319   9.543   6.452   2.863 -0.8925 -0.8789  0.0500
12914SOL    HW139320   9.594   6.377   2.892 -0.9649 -0.7564  0.5066
12914SOL    HW239321   9.498   6.422   2.784 -2.5319 -2.0005  1.3260
12915SOL     OW39322   3.079   5.783   3.683 -0.0753 -0.0855 -0.0510
12915SOL    HW139323   3.029   5.833   3.619 -0.0604 -0.8155 -0.6538
12915SOL    HW239324   3.167   5.776   3.645  0.2122  0.3221  0.5204
12916SOL     OW39325   7.119   3.131   0.814  0.1446 -0.1783 -0.1591
12916SOL    HW139326   7.064   3.206   0.790  0.9760  0.9583  1.2870
12916SOL    HW239327   7.199   3.142   0.762  0.7424  0.6409  0.8784
12917SOL     OW39328   9.749   0.032   5.390 -0.3110 -0.1556  0.2717
12917SOL    HW139329   9.684   0.100   5.408  0.8717  1.3095 -0.6824
12917SOL    HW239330   9.735   0.008   5.299 -1.0627 -1.6312  0.7469
12918SOL     OW39331   0.312   9.145   5.898 -0.1158 -0.2463  1.2100
12918SOL    HW139332   0.394   9.187   5.924  0.0406  0.1228  0.1713
12918SOL    HW239333   0.310   9.153   5.803 -1.4589 -0.0890  1.2323
12919SOL     OW39334   5.630   2.820   5.138 -0.3287 -0.5497 -0.2907
12919SOL    HW139335   5.540   2.795   5.155 -0.7798  1.3550  0.3003
12919SOL    HW239336   5.629   2.858   5.051 -1.1155  3.6824  1.3635
12920SOL     OW39337   0.530   8.694   7.853  0.4005 -0.8263 -0.1203
12920SOL    HW139338   0.459   8.642   7.814  0.5311 -0.5800 -0.6991
12920SOL    HW239339   0.487   8.748   7.919  0.1675 -1.2265  0.0584
12921SOL     OW39340   0.249   3.604   1.064  0.0151  0.1264  0.2061
12921SOL    HW139341   0.264   3.510   1.062  0.7240  0.2421 -0.9435
12921SOL    HW239342   0.282   3.633   1.149  0.6503 -0.5320  0.1902
12922SOL     OW39343   1.848   5.696   3.232  0.4465 -0.6143 -0.7645
12922SOL    HW139344   1.767   5.733   3.268  1.0409  0.3370 -0.3648
12922SOL    HW239345   1.844   5.716   3.139  0.7080  0.3986 -0.5736
12923SOL     OW39346   4.075   7.193   5.675  0.1296  0.5462 -0.2950
12923SOL    HW139347   3.986   7.157   5.672 -0.3260  1.4874  1.0022
12923SOL    HW239348   4.067   7.271   5.729  1.6698  0.9061 -0.5573
12924SOL     OW39349   2.881   0.981   8.104 -0.0770 -0.3429 -0.3193
12924SOL    HW139350   2.918   1.056   8.058 -1.4576 -0.6033 -1.9730
12924SOL    HW239351   2.892   0.908   8.043 -0.0993 -1.1734  0.6443
12925SOL     OW39352   4.273   2.724   2.405 -0.4052  0.0662  0.2856
12925SOL    HW139353   4.295   2.674   2.327  0.8936  0.4346  0.3919
12925SOL    HW239354   4.232   2.661   2.464  0.0232 -0.5734 -0.0907
12926SOL     OW39355   8.894   4.011   5.061 -0.3266  0.4909 -0.1611
12926SOL    HW139356   8.809   4.014   5.016  0.5684  0.5374 -1.9377
12926SOL    HW239357   8.934   4.096   5.041  0.6327 -0.0046 -0.3712
12927SOL     OW39358   7.256   4.689   9.887 -0.2247  0.5821  0.0929
12927SOL    HW139359   7.196   4.717   9.818 -0.8827 -0.3260  0.2666
12927SOL    HW239360   7.332   4.747   9.879 -1.3995  2.2026  0.3074
12928SOL     OW39361   6.662   0.323   9.364 -0.0761  0.4665  0.8489
12928SOL    HW139362   6.696   0.281   9.443 -1.3483  0.8445  1.6431
12928SOL    HW239363   6.570   0.295   9.361  0.4710 -1.3596 -1.7621
12929SOL     OW39364   7.618   8.334   6.881  0.5506 -0.6585 -0.7133
12929SOL    HW139365   7.526   8.324   6.858  0.5994 -1.6008 -0.5499
12929SOL    HW239366   7.644   8.248   6.914  1.2062 -0.1165  0.2526
12930SOL     OW39367   2.686   1.072   4.270 -0.4798 -0.3981  1.0056
12930SOL    HW139368   2.620   1.010   4.238  0.4379 -1.0935  0.4215
12930SOL    HW239369   2.747   1.082   4.197  0.1476  0.1152  1.5872
12931SOL     OW39370   7.812   2.330   0.562 -0.3961  0.2683  0.1452
12931SOL    HW139371   7.819   2.301   0.653 -0.2155 -0.3941 -0.0713
12931SOL    HW239372   7.809   2.425   0.567  2.9910  0.4867  0.6716
12932SOL     OW39373   8.032   4.462   3.432 -0.2186 -0.1232  0.1341
12932SOL    HW139374   8.120   4.424   3.430 -0.4036 -0.6035  0.7444
12932SOL    HW239375   8.027   4.517   3.354  0.5287 -0.3032 -0.0439
12933SOL     OW39376   9.361   7.515   7.861 -0.2140  0.1412  0.6361
12933SOL    HW139377   9.328   7.486   7.946 -0.7519 -2.5193 -0.3930
12933SOL    HW239378   9.375   7.434   7.812 -0.9646  1.6227 -2.2056
12934SOL     OW39379   5.199   2.348   7.586  0.1200 -0.5713  0.0002
12934SOL    HW139380   5.280   2.345   7.636 -0.8242  2.2157  1.9418
12934SOL    HW239381   5.209   2.422   7.526 -0.9558 -0.2063  0.2407
12935SOL     OW39382   6.560   9.555   3.018  0.4670 -0.1224 -0.0792
12935SOL    HW139383   6.584   9.478   2.968 -0.1839 -0.3254 -0.0869
12935SOL    HW239384   6.570   9.529   3.110 -0.6006 -0.5160 -0.0567
12936SOL     OW39385   8.434   0.212   9.120 -0.1449  0.2745  0.1858
12936SOL    HW139386   8.383   0.155   9.064  0.8927 -1.6850  1.1434
12936SOL    HW239387   8.519   0.220   9.076 -0.1861  0.9038  0.1987
12937SOL     OW39388   5.044   1.158   0.230 -0.1437  0.0910 -0.3150
12937SOL    HW139389   4.949   1.162   0.240 -0.0730  1.0481  0.0510
12937SOL    HW239390   5.062   1.065   0.217 -1.0603 -0.1898  0.2918
12938SOL     OW39391   3.912   5.636   2.010  0.1222 -0.3763  0.4944
12938SOL    HW139392   3.844   5.582   2.051 -0.6665  1.2977  1.5183
12938SOL    HW239393   3.931   5.703   2.076 -0.0773  1.5244 -1.2861
12939SOL     OW39394   7.962   1.678   1.125  0.2542 -0.0782  0.0748
12939SOL    HW139395   8.057   1.687   1.128  0.0844  2.0394  0.6775
12939SOL    HW239396   7.930   1.727   1.200 -1.2957 -1.8528  0.6621
12940SOL     OW39397   5.673   3.519   4.775  0.3638 -0.4054 -0.3046
12940SOL    HW139398   5.612   3.446   4.762  0.5454 -0.3821 -1.4305
12940SOL    HW239399   5.642   3.587   4.715  1.4462 -0.3785 -0.8543
12941SOL     OW39400   5.153   2.660   5.110  0.2354  0.4173  0.2369
12941SOL    HW139401   5.072   2.637   5.065  0.4433  0.4793 -0.1753
12941SOL    HW239402   5.125   2.692   5.195 -0.1381 -0.0820  0.3042
12942SOL     OW39403   8.293   4.294   8.938  0.5946  0.0456  0.4192
12942SOL    HW139404   8.327   4.355   9.004  0.0632  0.8943 -0.0637
12942SOL    HW239405   8.368   4.277   8.880  1.0578 -0.6901  1.2137
12943SOL     OW39406   3.766   8.432   4.186  0.0450 -0.6768 -0.2809
12943SOL    HW139407   3.769   8.339   4.161 -0.7420 -0.4121 -1.4586
12943SOL    HW239408   3.858   8.459   4.188  0.3498 -1.7204  1.0852
12944SOL     OW39409   7.910   1.612   3.942 -0.1189  0.1094 -0.3325
12944SOL    HW139410   7.949   1.631   3.857 -0.7236  0.0180 -0.6311
12944SOL    HW239411   7.820   1.588   3.923 -0.1705 -0.2290  0.3058
12945SOL     OW39412   6.719   8.353   8.151  0.5747 -0.0082  0.2027
12945SOL    HW139413   6.724   8.435   8.200 -0.2276 -1.0074  2.0629
12945SOL    HW239414   6.671   8.294   8.209 -0.4500 -1.2691 -1.8299
12946SOL     OW39415   0.675   5.606   9.983  0.4423 -0.0998 -0.1478
12946SOL    HW139416   0.702   5.555   9.907  1.0079 -1.4624  0.9195
12946SOL    HW239417   0.753   5.657  10.006  1.5754 -2.4789  1.6876
12947SOL     OW39418   4.301   8.205   9.900  0.5336 -0.6685 -0.3352
12947SOL    HW139419   4.287   8.134   9.962  0.2074 -0.8868 -0.6564
12947SOL    HW239420   4.240   8.188   9.829 -1.4565  1.3353  0.7637
12948SOL     OW39421   6.978   9.581   8.915  0.0753  0.1591 -0.0141
12948SOL    HW139422   6.942   9.509   8.966 -1.3828 -0.1896 -1.4497
12948SOL    HW239423   6.981   9.548   8.825  0.8452  1.3664 -0.4678
12949SOL     OW39424   8.847   8.231   6.754 -0.0014 -0.3685 -0.0356
12949SOL    HW139425   8.921   8.209   6.812  0.4198  1.4196  0.1555
12949SOL    HW239426   8.777   8.256   6.814 -0.9253 -2.3307 -0.2052
12950SOL     OW39427   2.284   0.314   9.592  0.5322 -0.0678 -0.3884
12950SOL    HW139428   2.317   0.376   9.527  3.1427 -1.3339 -0.3893
12950SOL    HW239429   2.248   0.369   9.662  0.1883  1.3546 -1.6308
12951SOL     OW39430   6.864   4.790   9.129  0.7600  0.6435  0.9576
12951SOL    HW139431   6.941   4.848   9.129 -0.4683  2.3507  1.6634
12951SOL    HW239432   6.846   4.774   9.036  2.1784 -0.1156  0.7869
12952SOL     OW39433   6.032   8.029   7.905 -0.3420  0.5207 -0.0481
12952SOL    HW139434   5.952   8.069   7.871 -1.8556  0.0928  2.7146
12952SOL    HW239435   6.095   8.101   7.910 -1.2631  1.3606 -0.1899
12953SOL     OW39436   2.390   4.276   9.716 -0.1605 -0.2620  0.2816
12953SOL    HW139437   2.444   4.355   9.720 -0.2886 -0.2170  2.2457
12953SOL    HW239438   2.404   4.234   9.801  0.7264 -2.9329 -1.0778
12954SOL     OW39439   3.512   9.325   6.370 -0.6014  0.0524 -0.2532
12954SOL    HW139440   3.522   9.312   6.464  0.0454  1.1447 -0.1561
12954SOL    HW239441   3.500   9.420   6.360 -1.9584 -0.1897 -1.1652
12955SOL     OW39442   9.797   2.179   6.123 -0.0790 -0.0423 -0.3503
12955SOL    HW139443   9.722   2.120   6.114 -0.0124 -0.8806  3.1492
12955SOL    HW239444   9.867   2.138   6.072 -0.6682 -1.9168  0.2795
12956SOL     OW39445   2.605   8.883   1.681 -0.5163 -0.3315 -0.1261
12956SOL    HW139446   2.652   8.952   1.635  0.8609 -0.8134  0.4811
12956SOL    HW239447   2.557   8.836   1.613  1.5953 -1.1432 -1.1296
12957SOL     OW39448   4.369   8.732   1.474  0.2556  0.1671 -0.2514
12957SOL    HW139449   4.456   8.744   1.512  0.1094 -1.4004  0.6955
12957SOL    HW239450   4.316   8.801   1.513  0.9227  0.7135 -0.3014
12958SOL     OW39451   4.015   1.688   4.388  0.2521 -0.2387  0.5963
12958SOL    HW139452   4.011   1.665   4.295  2.0808  1.9932 -0.1270
12958SOL    HW239453   3.926   1.716   4.410 -0.3001 -1.1947 -0.3309
12959SOL     OW39454   8.095   6.409   9.171  0.2746  0.2422 -0.1057
12959SOL    HW139455   8.168   6.414   9.109  0.6213 -1.0031  0.1812
12959SOL    HW239456   8.018   6.395   9.115  0.1438  2.1110 -0.4512
12960SOL     OW39457   0.750   6.033   8.077 -0.0642  0.0591 -0.1502
12960SOL    HW139458   0.808   6.094   8.032  0.2206 -0.0365  0.0880
12960SOL    HW239459   0.728   5.967   8.010  1.0390 -0.5564  0.0779
12961SOL     OW39460   8.943   9.593   1.585 -0.0005  0.2535 -0.2974
12961SOL    HW139461   8.946   9.562   1.494  0.1367  0.0758 -0.2330
12961SOL    HW239462   9.032   9.626   1.602 -0.0269  0.2890 -0.2276
12962SOL     OW39463   0.523   7.070   7.168  0.5585 -0.1286  0.1111
12962SOL    HW139464   0.582   7.007   7.210 -0.7859 -0.4585  1.6271
12962SOL    HW239465   0.509   7.138   7.235  1.0119  1.1537 -1.0581
12963SOL     OW39466   9.330   6.881   1.555  0.3105  0.2032 -0.5526
12963SOL    HW139467   9.377   6.823   1.495  0.9596  0.8782 -0.7280
12963SOL    HW239468   9.399   6.926   1.604 -0.1926  0.2867  0.1008
12964SOL     OW39469   5.751   2.286   0.304  0.0328  0.5347  0.2658
12964SOL    HW139470   5.683   2.222   0.281  0.4669  0.8830 -2.1916
12964SOL    HW239471   5.718   2.369   0.272  0.7418  1.0760  0.8931
12965SOL     OW39472   0.762   8.394   0.186  0.5142  0.3324 -0.2499
12965SOL    HW139473   0.754   8.372   0.278 -3.0774 -0.8476 -0.6778
12965SOL    HW239474   0.698   8.465   0.172 -0.5910 -0.9407 -2.1468
12966SOL     OW39475   3.020   2.758   8.899 -0.7193  0.3987 -0.1298
12966SOL    HW139476   3.110   2.785   8.918 -0.7862  0.3976  0.1999
12966SOL    HW239477   3.029   2.689   8.833 -0.5127  0.7814 -0.5087
12967SOL     OW39478   7.929   8.348   2.207 -0.0200  0.0828 -0.1240
12967SOL    HW139479   7.909   8.320   2.118  1.1770 -1.1846 -0.0232
12967SOL    HW239480   8.024   8.346   2.212 -0.0407  0.8030  0.9917
12968SOL     OW39481   0.846   1.628   6.636 -0.2656 -0.5986  0.1863
12968SOL    HW139482   0.894   1.553   6.673  0.0866 -1.9923 -2.8219
12968SOL    HW239483   0.900   1.656   6.562 -0.7596  2.2655  0.7992
12969SOL     OW39484   8.579   9.206   2.786 -0.1890  0.0721 -0.4413
12969SOL    HW139485   8.542   9.277   2.839 -1.2501 -0.1857 -0.8084
12969SOL    HW239486   8.621   9.251   2.713 -0.8417  0.3322 -0.6634
12970SOL     OW39487   6.126   5.156   1.067  0.6584  0.6684  0.1817
12970SOL    HW139488   6.040   5.113   1.060 -0.0055  2.1504 -1.7052
12970SOL    HW239489   6.128   5.192   1.156  0.6214 -1.8594  1.2949
12971SOL     OW39490   6.594   9.970   3.965 -0.0904 -0.0743  0.0421
12971SOL    HW139491   6.514   9.947   3.918 -0.9590 -1.9857  2.2593
12971SOL    HW239492   6.656   9.902   3.940  1.0604  1.5555 -1.8883
12972SOL     OW39493   3.246   5.232   9.305  0.3692  0.2742 -0.4833
12972SOL    HW139494   3.160   5.191   9.311  0.4647  0.1810  0.4735
12972SOL    HW239495   3.306   5.166   9.341  0.5930  1.0292  0.5661
12973SOL     OW39496   8.983   2.799   8.008  0.0085  0.6997 -0.2006
12973SOL    HW139497   8.896   2.794   8.049  0.1854  1.7942  0.3281
12973SOL    HW239498   8.976   2.742   7.932  0.1156 -2.6492  2.0740
12974SOL     OW39499   8.622   4.666   0.963  0.3201  0.2462 -0.2447
12974SOL    HW139500   8.561   4.611   1.013 -0.6278 -0.4806 -2.1103
12974SOL    HW239501   8.697   4.610   0.946  0.5120  0.3997  0.0723
12975SOL     OW39502   0.311   6.762   6.654  0.0714  0.2125 -0.2104
12975SOL    HW139503   0.301   6.769   6.749  0.4315  1.3559 -0.2378
12975SOL    HW239504   0.222   6.748   6.621 -0.2343  1.0708  0.2156
12976SOL     OW39505   9.036   7.566   7.337  0.1903 -0.0349  0.1057
12976SOL    HW139506   9.066   7.505   7.269 -3.0222 -0.3466 -1.2394
12976SOL    HW239507   9.021   7.648   7.290  0.1277  0.4412  0.9474
12977SOL     OW39508   8.170   4.174   0.889 -0.2410 -0.0185  0.4146
12977SOL    HW139509   8.195   4.094   0.843  1.1826  0.4364  0.3433
12977SOL    HW239510   8.241   4.189   0.952 -1.5485  0.0299  1.9442
12978SOL     OW39511   4.149   9.204   2.729  0.5038 -0.2977  0.1770
12978SOL    HW139512   4.102   9.263   2.670 -0.6246 -0.5218  0.8224
12978SOL    HW239513   4.083   9.139   2.755  1.2661 -0.8140  0.8533
12979SOL     OW39514   9.764   6.031   8.319 -0.6203  0.0922  0.4012
12979SOL    HW139515   9.819   6.035   8.240  1.3743  0.3668  1.7464
12979SOL    HW239516   9.687   5.980   8.292  0.4538 -0.6363 -1.4551
12980SOL     OW39517   5.356   6.075   5.727 -0.0443  0.2236  0.1306
12980SOL    HW139518   5.379   5.983   5.736 -0.1437  0.2514  0.7176
12980SOL    HW239519   5.439   6.122   5.732  0.1250  0.1171 -1.1812
12981SOL     OW39520   3.276   0.751   5.510  0.2823  0.1424 -0.1770
12981SOL    HW139521   3.353   0.797   5.476  1.0198  0.4809  1.8148
12981SOL    HW239522   3.201   0.803   5.481  0.9643  1.1941 -0.0933
12982SOL     OW39523   5.383   5.058   4.651  0.3808  0.1733 -0.2653
12982SOL    HW139524   5.453   5.024   4.707  1.1432  0.3424 -1.0851
12982SOL    HW239525   5.429   5.095   4.575 -0.5953  0.3627 -0.7837
12983SOL     OW39526   2.171   4.376   5.574 -0.1293  0.2005  0.4494
12983SOL    HW139527   2.195   4.468   5.583 -1.1270  0.5207  0.0378
12983SOL    HW239528   2.122   4.356   5.654 -0.2794  0.1522  0.3468
12984SOL     OW39529   9.097   7.678   0.452 -0.4907  0.5022 -0.1992
12984SOL    HW139530   9.088   7.708   0.361 -1.1854  1.1786  0.0844
12984SOL    HW239531   9.036   7.604   0.458 -0.2020  0.2461 -0.3673
12985SOL     OW39532   4.261   9.212   5.252  0.9830 -0.0859 -0.6108
12985SOL    HW139533   4.237   9.283   5.194  2.3031 -0.1598 -1.2908
12985SOL    HW239534   4.198   9.216   5.324 -0.9462 -0.2495 -2.2235
12986SOL     OW39535   6.824   2.325   2.012 -0.3185 -0.6486  0.0580
12986SOL    HW139536   6.834   2.393   2.079  0.1139 -1.3358  0.7082
12986SOL    HW239537   6.740   2.284   2.032 -1.0782  0.3353 -0.9577
12987SOL     OW39538   2.868   4.490   9.939 -0.0578 -0.3196 -0.4652
12987SOL    HW139539   2.947   4.447   9.972 -0.1497  0.0016  0.1890
12987SOL    HW239540   2.894   4.582   9.928 -0.1637 -0.3334 -0.8500
12988SOL     OW39541   3.040   2.963   4.485  0.0450 -0.0106 -0.2970
12988SOL    HW139542   2.983   2.943   4.411 -0.6130  0.4386  0.0814
12988SOL    HW239543   3.000   3.039   4.527  0.0578 -0.6502  0.9010
12989SOL     OW39544   7.763   1.510   5.116  0.1549  0.2016 -0.6733
12989SOL    HW139545   7.792   1.599   5.100 -0.8441  0.9579  1.3399
12989SOL    HW239546   7.667   1.515   5.112 -0.0866 -0.0517  2.3751
12990SOL     OW39547   6.861   2.134   8.013  0.0087 -0.6362 -0.1194
12990SOL    HW139548   6.850   2.098   7.925 -0.1296 -0.4021 -0.1997
12990SOL    HW239549   6.956   2.133   8.027  0.2248  1.0924 -1.0450
12991SOL     OW39550   9.507   8.471   6.666 -0.2494 -1.1705 -0.1862
12991SOL    HW139551   9.503   8.557   6.708 -0.2877 -1.5793  0.6474
12991SOL    HW239552   9.513   8.409   6.738  0.3762 -1.8405 -0.8043
12992SOL     OW39553   6.088   8.404   7.202  0.3471  0.1641 -0.0091
12992SOL    HW139554   6.016   8.467   7.207 -0.3680 -0.5887 -0.5349
12992SOL    HW239555   6.064   8.336   7.266  0.3379 -0.3372 -0.5435
12993SOL     OW39556   0.318   2.853   9.941  0.4643  0.0504 -0.1023
12993SOL    HW139557   0.269   2.786   9.894  1.0338 -0.8814  0.5931
12993SOL    HW239558   0.251   2.910   9.980 -0.0450 -0.7943  0.2679
12994SOL     OW39559   9.312   9.760   4.350 -0.3690  0.1205  0.4896
12994SOL    HW139560   9.244   9.758   4.283  0.0666  2.9234 -0.1800
12994SOL    HW239561   9.393   9.778   4.302  0.3843 -0.2832  1.5563
12995SOL     OW39562   1.471   1.598   6.236  0.0479  0.0421 -0.4705
12995SOL    HW139563   1.378   1.600   6.258  0.3184  1.4967  0.7487
12995SOL    HW239564   1.504   1.518   6.278 -0.3294  0.4686  0.6880
12996SOL     OW39565   7.934   8.202   5.365  0.6652  0.5005 -0.2724
12996SOL    HW139566   8.014   8.187   5.416 -0.6732  1.1872  2.1920
12996SOL    HW239567   7.891   8.275   5.410 -0.8121  0.9055 -2.2219
12997SOL     OW39568   9.204   0.231   4.874 -0.4153 -0.3659  0.0234
12997SOL    HW139569   9.225   0.147   4.832 -0.0763  0.0155 -0.5845
12997SOL    HW239570   9.227   0.297   4.809  0.1773  0.2451  0.8254
12998SOL     OW39571   5.688   6.666   6.556 -0.1581 -0.1941 -0.1870
12998SOL    HW139572   5.767   6.713   6.529 -0.4864  0.9639  0.7829
12998SOL    HW239573   5.708   6.574   6.539  2.1666 -0.1559  1.8228
12999SOL     OW39574   2.161   7.349   5.107  0.3415 -0.3641  0.4855
12999SOL    HW139575   2.131   7.264   5.073 -0.7966  0.8009 -1.6729
12999SOL    HW239576   2.081   7.390   5.139 -0.1012  1.6638 -2.7497
13000SOL     OW39577   9.808   1.421   9.281 -0.5113  0.0139  0.3044
13000SOL    HW139578   9.903   1.412   9.279 -0.5124  0.0291  0.1896
13000SOL    HW239579   9.784   1.403   9.372 -0.4368 -0.3806  0.2465
13001SOL     OW39580   4.472   5.114   5.718 -0.4778  0.1878  0.5858
13001SOL    HW139581   4.421   5.117   5.637 -0.8920  0.7541  0.8648
13001SOL    HW239582   4.478   5.021   5.739 -3.1482  0.1898  1.6438
13002SOL     OW39583   4.036   9.871   0.124  0.5484 -0.1550  0.2867
13002SOL    HW139584   4.000   9.948   0.167 -0.6793  0.3968 -1.5864
13002SOL    HW239585   3.994   9.870   0.038  2.0069 -1.8236 -0.4735
13003SOL     OW39586   4.458   8.769   2.881  0.0561 -0.2064 -0.1832
13003SOL    HW139587   4.429   8.860   2.884  1.8557  0.4005 -0.2992
13003SOL    HW239588   4.551   8.772   2.904  0.3995 -1.8927 -1.1752
13004SOL     OW39589   8.757   5.574   0.154 -0.3523  0.5074  0.0887
13004SOL    HW139590   8.708   5.579   0.072  1.0915  0.9247 -0.7839
13004SOL    HW239591   8.802   5.490   0.151  3.2321  2.2662 -1.7315
13005SOL     OW39592   3.574   4.804   4.391  0.2994 -0.6412 -0.3849
13005SOL    HW139593   3.548   4.877   4.334 -0.7179  0.6120  1.5708
13005SOL    HW239594   3.644   4.841   4.445 -0.4899 -0.9650  0.8916
13006SOL     OW39595   4.408   5.975   8.924  0.0493  0.5495  0.0496
13006SOL    HW139596   4.417   6.069   8.936  0.4785  0.3650  1.3548
13006SOL    HW239597   4.460   5.955   8.847  2.5317  0.9973  1.4895
13007SOL     OW39598   5.315   6.577   4.647 -0.5222  0.5099  0.3976
13007SOL    HW139599   5.378   6.635   4.605 -0.8810  0.5973 -0.0251
13007SOL    HW239600   5.369   6.514   4.695 -0.1195  0.7539  0.2701
13008SOL     OW39601   8.829   6.212   3.609  0.3623 -0.5227  0.2729
13008SOL    HW139602   8.774   6.266   3.666  1.3020  0.3036  0.4145
13008SOL    HW239603   8.919   6.238   3.630  0.7445 -0.4455 -1.3460
13009SOL     OW39604   7.116   2.072   8.708  0.1155  0.5263 -0.8177
13009SOL    HW139605   7.185   2.058   8.642  0.6110  0.0528 -0.2139
13009SOL    HW239606   7.065   2.145   8.674  0.7464  0.7007 -1.4201
13010SOL     OW39607   5.604   5.944   8.451 -0.1333  0.5476 -0.0231
13010SOL    HW139608   5.688   5.972   8.489  1.7720 -0.2350 -3.2722
13010SOL    HW239609   5.618   5.853   8.428 -2.2102  0.1825  0.0061
13011SOL     OW39610   4.240   5.372   7.326 -0.3527  0.2749  0.1059
13011SOL    HW139611   4.225   5.328   7.409 -0.1044  0.9925  0.5344
13011SOL    HW239612   4.255   5.464   7.349 -0.8806  0.6010 -0.7685
13012SOL     OW39613   9.566   2.130   0.390  0.2683  0.3724  0.6900
13012SOL    HW139614   9.580   2.085   0.473 -1.2161  1.0886  1.3705
13012SOL    HW239615   9.601   2.070   0.324  2.0023  0.0455  1.8408
13013SOL     OW39616   2.557   1.891   2.545  0.7963 -0.3455 -0.0899
13013SOL    HW139617   2.520   1.804   2.532 -1.2233  0.4828 -0.3939
13013SOL    HW239618   2.520   1.944   2.474  1.0595  1.0049  0.7324
13014SOL     OW39619   1.404   2.456   4.783 -0.0831  0.0257 -0.4158
13014SOL    HW139620   1.475   2.475   4.844  0.0692  2.1408 -1.1747
13014SOL    HW239621   1.431   2.497   4.701 -2.2888  1.1715 -0.6471
13015SOL     OW39622   0.660   6.248   8.644 -0.2139 -0.3097 -0.4690
13015SOL    HW139623   0.750   6.226   8.669  1.0240  2.8554 -1.5313
13015SOL    HW239624   0.658   6.238   8.549 -0.8654  0.0070 -0.4932
13016SOL     OW39625   1.028   0.090   8.855  0.4593 -0.1355  0.4837
13016SOL    HW139626   1.027   0.077   8.950 -1.2519  2.7085  0.9954
13016SOL    HW239627   1.081   0.169   8.843 -1.3185  0.9629 -0.5883
13017SOL     OW39628   1.679   4.215   1.711  0.5120  0.1203  0.8014
13017SOL    HW139629   1.743   4.151   1.679 -1.3403 -0.7323 -1.4902
13017SOL    HW239630   1.703   4.297   1.668 -0.2221 -0.3414 -0.5574
13018SOL     OW39631   7.726   3.364   4.659  0.0398 -0.1770  0.2695
13018SOL    HW139632   7.637   3.362   4.626 -0.3240 -0.1062  1.2265
13018SOL    HW239633   7.719   3.339   4.752  1.0992 -0.9830  0.1621
13019SOL     OW39634   0.858  -0.028   7.967  0.4661 -0.2954 -0.0065
13019SOL    HW139635   0.942  -0.010   8.010  1.2696 -1.0619 -1.1923
13019SOL    HW239636   0.808   0.053   7.976  1.3915  0.2201  0.5907
13020SOL     OW39637   0.066   8.005   1.188 -0.4739 -0.3878 -0.5793
13020SOL    HW139638   0.139   8.016   1.249 -0.3127  1.5755 -1.0470
13020SOL    HW239639   0.107   7.978   1.106 -0.4536 -0.8084 -0.4346
13021SOL     OW39640   8.538   6.286   3.998  0.1012  0.3774 -0.3840
13021SOL    HW139641   8.509   6.228   3.928 -0.6378  0.5858 -0.2543
13021SOL    HW239642   8.459   6.304   4.049  0.4440  1.0144 -0.0680
13022SOL     OW39643   5.566   0.621   4.552 -0.8208  0.2642 -0.4762
13022SOL    HW139644   5.586   0.656   4.465  0.2548 -0.4217 -0.5239
13022SOL    HW239645   5.573   0.526   4.541 -0.5170  0.1823  0.4028
13023SOL     OW39646   1.169   4.556   4.796 -0.0828  0.2939  0.4112
13023SOL    HW139647   1.203   4.635   4.839  1.8246 -0.1260 -0.2374
13023SOL    HW239648   1.160   4.493   4.867 -0.2186  0.6523  0.7161
13024SOL     OW39649   9.268   1.547   6.546 -0.0067  0.0882  0.5008
13024SOL    HW139650   9.303   1.496   6.472 -0.4422  0.1950  0.2140
13024SOL    HW239651   9.333   1.616   6.560  0.2704 -0.1638  0.4722
13025SOL     OW39652   1.395   3.432   6.772  0.3279  0.5656  0.3160
13025SOL    HW139653   1.320   3.437   6.832  0.3867  1.6134  0.3156
13025SOL    HW239654   1.454   3.368   6.813  0.7817  1.9098  1.8983
13026SOL     OW39655   7.943   6.919   3.435  0.0757  0.1312  0.3796
13026SOL    HW139656   7.869   6.884   3.484 -1.5648  3.1089  0.2433
13026SOL    HW239657   7.959   6.856   3.366 -2.7702 -0.3222  0.0359
13027SOL     OW39658   0.608   6.121   5.738  0.5648  0.2446 -0.2578
13027SOL    HW139659   0.697   6.104   5.707 -0.2074  0.1609 -2.6252
13027SOL    HW239660   0.554   6.056   5.694 -1.0946  2.3689 -1.5518
13028SOL     OW39661   7.754   9.361   4.994  0.5195  0.4008  0.2745
13028SOL    HW139662   7.769   9.446   5.036  0.9070  0.3910  0.1584
13028SOL    HW239663   7.803   9.366   4.912  1.5690 -0.3992  0.8355
13029SOL     OW39664   7.788   2.212   3.088  0.2567  0.1534 -0.6502
13029SOL    HW139665   7.747   2.157   3.154 -0.4913 -0.1484 -1.3445
13029SOL    HW239666   7.846   2.270   3.137  1.4911 -1.5904  0.0468
13030SOL     OW39667   8.890   5.786   0.546 -0.0103  0.3652 -0.6844
13030SOL    HW139668   8.797   5.763   0.542  0.2635 -0.6190 -1.7404
13030SOL    HW239669   8.923   5.769   0.458  1.0475  1.2828 -0.4822
13031SOL     OW39670   5.625   6.754   6.179  0.0013 -0.2389  0.3794
13031SOL    HW139671   5.694   6.688   6.186  0.9780  0.7818  0.6264
13031SOL    HW239672   5.564   6.718   6.114  1.6511 -0.4292 -1.1446
13032SOL     OW39673   2.829   2.686   4.103  0.3879  0.2055  0.0462
13032SOL    HW139674   2.832   2.598   4.140  3.0961  0.8223  1.5826
13032SOL    HW239675   2.879   2.680   4.022  2.1253  0.6357  1.0488
13033SOL     OW39676   7.278   7.422   9.940 -0.3449 -0.4177 -0.4144
13033SOL    HW139677   7.302   7.407   9.849  2.9767 -2.3382  0.6163
13033SOL    HW239678   7.250   7.337   9.972  1.1341 -0.4168  1.0026
13034SOL     OW39679   7.059   3.253   9.753  0.2816 -0.1670 -0.2149
13034SOL    HW139680   7.076   3.347   9.753 -0.3664 -0.0374 -1.3300
13034SOL    HW239681   6.995   3.240   9.684 -0.8664 -1.2235  0.9983
13035SOL     OW39682   9.136   4.189   3.624  0.3203  0.0314  0.0203
13035SOL    HW139683   9.115   4.272   3.666 -1.1612  1.7146 -3.5952
13035SOL    HW239684   9.051   4.149   3.607  0.7656 -0.3075 -1.6456
13036SOL     OW39685   6.920   1.639   9.248  0.4351  0.2110 -0.6095
13036SOL    HW139686   6.974   1.697   9.302  0.3300 -0.0207 -0.2556
13036SOL    HW239687   6.847   1.615   9.305  1.1074 -1.2568 -0.3352
13037SOL     OW39688   2.323   9.166   0.809  0.3490  0.2595 -0.4626
13037SOL    HW139689   2.396   9.217   0.774  0.3499 -0.7024 -1.9759
13037SOL    HW239690   2.360   9.078   0.823  0.0539  0.3406  0.9665
13038SOL     OW39691   0.607   6.096   0.261 -0.6011 -0.4159 -0.1739
13038SOL    HW139692   0.655   6.066   0.183  0.8780  0.2526  0.4437
13038SOL    HW239693   0.626   6.031   0.328 -0.4555 -0.0772  0.1151
13039SOL     OW39694   9.412   3.009   2.328 -0.3688  0.2900 -0.1150
13039SOL    HW139695   9.354   3.026   2.253 -4.6300 -0.4428  2.6476
13039SOL    HW239696   9.375   3.062   2.399  2.7717  0.1172  1.8299
13040SOL     OW39697   1.737   9.667   8.220  0.1401 -0.2576 -0.1397
13040SOL    HW139698   1.814   9.699   8.173 -0.2269 -0.0006 -0.5786
13040SOL    HW239699   1.719   9.582   8.181 -0.2726  0.0344 -0.6110
13041SOL     OW39700   2.960   7.199   7.172 -0.3773 -0.3152 -0.4940
13041SOL    HW139701   2.936   7.280   7.127 -2.5783 -0.0977  0.8738
13041SOL    HW239702   3.022   7.226   7.240  1.7121 -0.4062 -2.2638
13042SOL     OW39703   2.958   8.155   7.227 -0.1556 -0.0739 -0.1323
13042SOL    HW139704   2.909   8.176   7.147 -0.7909  0.1044  0.2939
13042SOL    HW239705   3.045   8.129   7.196  0.3775  2.2538 -0.7449
13043SOL     OW39706   3.949   8.792   0.353 -0.1677 -0.5644  0.3044
13043SOL    HW139707   3.969   8.877   0.313  0.0478 -0.7621 -0.0093
13043SOL    HW239708   3.934   8.812   0.446 -0.3019 -0.1592  0.1965
13044SOL     OW39709   2.410   2.496   5.375  0.2463  0.4252  0.0174
13044SOL    HW139710   2.483   2.531   5.324  0.1048 -0.8877 -1.1217
13044SOL    HW239711   2.428   2.403   5.383 -1.0180  0.1785  0.2239
13045SOL     OW39712   2.278   4.013   1.400  0.0332  0.7030 -0.4607
13045SOL    HW139713   2.342   3.942   1.401 -0.7302 -0.0259 -1.2555
13045SOL    HW239714   2.238   4.011   1.487 -0.8237 -0.6769 -0.8330
13046SOL     OW39715   6.007   2.279   1.196 -0.0283 -0.2901  0.5303
13046SOL    HW139716   6.010   2.255   1.289  0.0177  2.4799  1.3511
13046SOL    HW239717   5.939   2.346   1.191  2.2377  2.1313 -0.6906
13047SOL     OW39718   4.226   7.051   4.620 -0.5441 -0.5225 -0.0804
13047SOL    HW139719   4.222   7.033   4.526  1.0442  1.2518 -0.5420
13047SOL    HW239720   4.143   7.095   4.639 -0.4045  0.1094 -0.8819
13048SOL     OW39721   6.217   0.754   0.180  0.5945  0.2970 -0.1093
13048SOL    HW139722   6.219   0.796   0.094  0.4818  0.1447 -0.1872
13048SOL    HW239723   6.125   0.733   0.194  0.9096 -2.0543 -1.1216
13049SOL     OW39724   3.662   5.334   7.150  0.6234 -0.1250  0.1595
13049SOL    HW139725   3.750   5.321   7.186  1.1151  1.2570 -0.4913
13049SOL    HW239726   3.658   5.427   7.130 -0.6737 -0.3398 -0.6676
13050SOL     OW39727   0.346   3.759   7.011 -0.1173 -0.6351 -0.6041
13050SOL    HW139728   0.412   3.791   7.073  1.1837 -1.6322 -1.4135
13050SOL    HW239729   0.382   3.781   6.925 -1.4268 -0.1528 -1.0528
13051SOL     OW39730   2.765   7.617   7.175  0.6951  0.4814  0.2113
13051SOL    HW139731   2.784   7.708   7.152 -0.3973  0.6858  0.0445
13051SOL    HW239732   2.670   7.609   7.163  0.5941 -0.3401  1.4359
13052SOL     OW39733   3.180   3.651   9.408 -0.2761  0.2447 -0.3476
13052SOL    HW139734   3.126   3.641   9.330 -0.6903 -0.3482  0.0098
13052SOL    HW239735   3.182   3.564   9.448  0.8212  0.2972 -0.2707
13053SOL     OW39736   2.781   2.177   5.262 -0.4368  0.2308  0.3263
13053SOL    HW139737   2.713   2.234   5.226 -0.0001  0.2576 -0.4866
13053SOL    HW239738   2.740   2.091   5.268 -0.4079  0.1334 -0.6420
13054SOL     OW39739   7.505   1.820   6.185 -0.8397 -0.5114 -0.3645
13054SOL    HW139740   7.520   1.726   6.183 -0.6832 -0.5017  0.2601
13054SOL    HW239741   7.499   1.842   6.278 -1.1976  0.0434 -0.5146
13055SOL     OW39742   1.338   8.384   4.041 -0.0345 -0.3629 -0.4785
13055SOL    HW139743   1.380   8.347   3.963  0.2568 -1.3408  0.1186
13055SOL    HW239744   1.245   8.365   4.030 -0.2184  0.8815 -1.3062
13056SOL     OW39745   2.984   4.042   3.427  0.2945 -0.5749 -1.0697
13056SOL    HW139746   3.042   3.967   3.413  0.8161 -0.4380  0.2341
13056SOL    HW239747   3.043   4.115   3.447 -0.3055 -0.7885  1.8942
13057SOL     OW39748   5.839   7.722   2.892 -0.7052 -0.4024 -0.1854
13057SOL    HW139749   5.851   7.763   2.807  1.0941 -1.3493 -0.4369
13057SOL    HW239750   5.772   7.655   2.878 -1.2393  0.2067 -0.5641
13058SOL     OW39751   4.864   6.398   9.132  1.2257 -0.2065 -1.0113
13058SOL    HW139752   4.865   6.493   9.145 -0.5723 -0.2947  0.1693
13058SOL    HW239753   4.791   6.383   9.072 -0.1019 -0.9778  0.7059
13059SOL     OW39754   9.708   5.953   5.966  0.2648  0.3050  0.0023
13059SOL    HW139755   9.726   5.959   6.059  1.1217  2.8191 -0.2337
13059SOL    HW239756   9.620   5.917   5.960  1.2732 -2.7736  1.6019
13060SOL     OW39757   9.503   0.245   5.103  0.2328 -0.1281 -0.1945
13060SOL    HW139758   9.424   0.299   5.094  0.3633  0.1438  0.2509
13060SOL    HW239759   9.532   0.260   5.193  0.0116 -1.3159  0.0919
13061SOL     OW39760   0.203   6.736   3.296  0.5623  0.2844  0.5057
13061SOL    HW139761   0.130   6.716   3.354  0.3396 -0.1901  0.0695
13061SOL    HW239762   0.179   6.820   3.256 -1.0896 -1.1370 -1.7055
13062SOL     OW39763   9.395   2.586   4.093 -0.1618  0.2017 -0.1328
13062SOL    HW139764   9.348   2.662   4.057  0.2944  1.2339  1.3468
13062SOL    HW239765   9.341   2.559   4.167  1.8146  1.8463  2.0427
13063SOL     OW39766   6.684   1.754   4.411  0.2399  0.4229 -0.0009
13063SOL    HW139767   6.675   1.663   4.382 -0.5721 -0.1812  1.9195
13063SOL    HW239768   6.595   1.789   4.408  0.3434  0.7353  0.4920
13064SOL     OW39769   4.957   8.483   5.638 -0.1378  0.3401  0.2452
13064SOL    HW139770   4.899   8.416   5.604  0.7202  0.0936 -0.7961
13064SOL    HW239771   5.041   8.466   5.595  0.4977  1.1564  1.1152
13065SOL     OW39772   4.991   3.118   1.431  0.3071 -0.2147 -0.2590
13065SOL    HW139773   4.965   3.046   1.488 -1.9899 -1.3811 -2.5737
13065SOL    HW239774   4.973   3.197   1.482 -2.5605 -1.1673  0.3951
13066SOL     OW39775   9.300   6.677   9.014  0.6894  0.0918 -0.1339
13066SOL    HW139776   9.388   6.641   9.015  0.7717  0.2667  1.7454
13066SOL    HW239777   9.274   6.683   9.106 -2.0100 -1.6914 -0.6551
13067SOL     OW39778   9.911   2.603   1.216  0.5160 -0.1622  0.0015
13067SOL    HW139779   9.882   2.652   1.139 -1.5569 -1.9856 -0.4800
13067SOL    HW239780   9.988   2.555   1.185  0.3676 -0.0246 -0.5963
13068SOL     OW39781   5.182   1.149   7.196 -0.4803  0.1951  0.2349
13068SOL    HW139782   5.194   1.241   7.173 -1.3496  0.4208  0.6464
13068SOL    HW239783   5.254   1.130   7.257 -0.5829  0.7418  0.5352
13069SOL     OW39784   1.597   3.933   5.887  0.3034 -0.3041 -0.3426
13069SOL    HW139785   1.526   3.872   5.868 -0.6560  1.0893 -1.4067
13069SOL    HW239786   1.595   3.943   5.983 -1.4108  0.2563 -0.4164
13070SOL     OW39787   0.755   6.770   5.700 -0.6872  0.4590  0.1294
13070SOL    HW139788   0.801   6.853   5.715 -0.0310 -0.0212  0.8886
13070SOL    HW239789   0.687   6.768   5.767 -0.0707 -0.0471  0.7593
13071SOL     OW39790   8.349   9.261   5.357 -0.0601 -0.5014  0.0067
13071SOL    HW139791   8.270   9.288   5.310  0.1840  0.2476  0.0035
13071SOL    HW239792   8.406   9.222   5.290  0.7680  1.6046 -0.5975
13072SOL     OW39793   1.103   7.482   1.999  0.4497  0.0841  0.0030
13072SOL    HW139794   1.123   7.400   2.046 -0.5250 -0.0030  0.2990
13072SOL    HW239795   1.104   7.549   2.067  1.4452  0.3708 -0.2722
13073SOL     OW39796   4.810   6.034   0.810 -0.1647 -0.1552  0.3120
13073SOL    HW139797   4.854   6.010   0.891  0.7604  0.8991  0.1547
13073SOL    HW239798   4.871   6.009   0.740  0.4367  1.6627  0.1111
13074SOL     OW39799   8.069   6.975   1.337 -0.3453  0.1612  0.0037
13074SOL    HW139800   8.099   6.948   1.250  1.3264  2.6637 -0.2887
13074SOL    HW239801   7.994   6.918   1.355  0.4409 -1.7350 -2.2144
13075SOL     OW39802   5.448   4.228   7.219  0.1454 -0.2333  0.5040
13075SOL    HW139803   5.414   4.143   7.247 -1.3640 -0.3930 -1.6024
13075SOL    HW239804   5.487   4.212   7.134  2.0912  0.7680  1.1350
13076SOL     OW39805   3.487   9.972   5.957 -0.5821 -0.1878 -0.1955
13076SOL    HW139806   3.492   9.918   6.036 -0.7314  0.4699  0.2806
13076SOL    HW239807   3.549   9.933   5.896  0.5754  0.1002  0.7627
13077SOL     OW39808   2.518   9.507   7.488 -0.5607  0.3468  0.1061
13077SOL    HW139809   2.491   9.590   7.528  0.4089  1.6261 -1.7414
13077SOL    HW239810   2.462   9.499   7.410  0.5189  0.1649 -0.6706
13078SOL     OW39811   5.825   0.774   9.537 -0.0211 -0.3981  0.3238
13078SOL    HW139812   5.875   0.764   9.455  0.0953 -1.8948  0.5428
13078SOL    HW239813   5.867   0.847   9.581 -0.4137  0.7856 -1.1764
13079SOL     OW39814   2.242   6.840   5.559 -0.2197  0.0681 -0.5020
13079SOL    HW139815   2.255   6.851   5.653 -0.3088  0.3422 -0.5218
13079SOL    HW239816   2.266   6.749   5.543 -0.4467 -0.0514 -0.1736
13080SOL     OW39817   7.270   3.345   0.065 -0.1120  0.0742 -0.2986
13080SOL    HW139818   7.286   3.270   0.008 -0.1727  0.6392 -1.0723
13080SOL    HW239819   7.186   3.380   0.036 -1.3973 -1.0777  1.7578
13081SOL     OW39820   9.017   9.175   3.798  0.6510 -0.6359  0.7669
13081SOL    HW139821   9.030   9.269   3.802 -0.0635 -0.4835 -0.1240
13081SOL    HW239822   8.960   9.155   3.872 -2.7568  0.3252 -1.3766
13082SOL     OW39823   5.024   8.241   6.198 -0.2829 -0.0581  0.2058
13082SOL    HW139824   5.021   8.222   6.104 -2.7524  1.0934 -0.0020
13082SOL    HW239825   5.043   8.156   6.239 -2.3542 -1.2465 -1.1672
13083SOL     OW39826   0.303   7.991   8.903 -0.4713 -0.3198  0.0578
13083SOL    HW139827   0.320   7.961   8.992  1.9574  0.1850 -0.1647
13083SOL    HW239828   0.292   8.086   8.910 -0.4707 -0.3028 -0.1546
13084SOL     OW39829   7.282   4.232   1.302  0.0052  0.0561  0.1071
13084SOL    HW139830   7.283   4.327   1.294  0.5181  0.0037 -0.5249
13084SOL    HW239831   7.223   4.202   1.233  0.3523 -0.1187 -0.1162
13085SOL     OW39832   0.145   5.899   8.938  0.4718  0.5916  0.1090
13085SOL    HW139833   0.183   5.877   8.853 -0.8484 -1.5837 -0.0111
13085SOL    HW239834   0.188   5.839   9.000 -2.3397 -1.7462  0.0132
13086SOL     OW39835   5.411   7.208   8.594 -0.2503 -0.1595  0.4327
13086SOL    HW139836   5.413   7.303   8.587  0.3511 -0.2216 -0.2911
13086SOL    HW239837   5.366   7.179   8.515  0.6201 -0.5344  0.0680
13087SOL     OW39838   8.079   7.255   6.050 -0.0890  0.3181  0.2345
13087SOL    HW139839   8.145   7.195   6.084 -0.7777  0.6653  2.3108
13087SOL    HW239840   8.129   7.325   6.009  0.8097  0.0981  0.9339
13088SOL     OW39841   6.009   4.659   1.540 -0.9270 -0.1593  0.0154
13088SOL    HW139842   5.964   4.599   1.599  1.3954 -2.2353 -0.1849
13088SOL    HW239843   5.983   4.631   1.453 -1.8216  0.8574 -0.0815
13089SOL     OW39844   0.381   6.942   0.405 -0.0805 -0.3059 -0.2087
13089SOL    HW139845   0.363   6.917   0.314  1.1029 -0.3843 -0.4320
13089SOL    HW239846   0.442   7.015   0.398  1.2543 -1.3129  0.5353
13090SOL     OW39847   7.986   1.045   5.141  0.1648 -0.8496  0.1485
13090SOL    HW139848   7.917   1.056   5.076  0.7772 -1.2344 -0.5867
13090SOL    HW239849   8.000   0.950   5.145  2.5478 -0.6740 -1.7938
13091SOL     OW39850   9.779   4.144   6.332  0.2274 -0.5028 -0.1094
13091SOL    HW139851   9.874   4.154   6.331  0.1377  0.4070 -0.2796
13091SOL    HW239852   9.762   4.070   6.273  0.7052  0.5199 -1.5828
13092SOL     OW39853   4.613   9.694   0.518 -0.2886 -0.1916 -0.0714
13092SOL    HW139854   4.658   9.663   0.596  0.3499  0.2362 -0.2658
13092SOL    HW239855   4.666   9.767   0.487 -0.0089 -0.9427 -1.4442
13093SOL     OW39856   7.033   4.803   1.569 -0.6302  0.1343 -0.0245
13093SOL    HW139857   7.045   4.716   1.532  1.1256  0.3964 -0.1528
13093SOL    HW239858   7.105   4.855   1.533 -2.0130  1.8435 -0.4869
13094SOL     OW39859   1.062   6.081   1.633 -0.5317 -0.3296  0.4026
13094SOL    HW139860   1.071   6.015   1.565  0.3058 -0.7147  0.8626
13094SOL    HW239861   1.056   6.031   1.715 -1.1441  0.1297  0.6475
13095SOL     OW39862   6.931   6.860   4.758  0.3819  0.0523  0.4042
13095SOL    HW139863   6.926   6.916   4.835 -0.1747 -0.7162  0.9537
13095SOL    HW239864   6.987   6.907   4.697 -2.4155  2.6269 -0.3843
13096SOL     OW39865   1.247   2.631   7.263 -0.3146  0.2042  0.4578
13096SOL    HW139866   1.239   2.547   7.308 -0.2869  0.1417  0.3464
13096SOL    HW239867   1.340   2.641   7.246 -0.2931  0.3613  0.6677
13097SOL     OW39868   5.318   7.097   7.910 -0.0983  0.3407 -0.2480
13097SOL    HW139869   5.231   7.075   7.943  0.2993 -1.1203 -0.1144
13097SOL    HW239870   5.358   7.149   7.979 -0.7260  0.7148 -0.1585
13098SOL     OW39871   4.760   6.838   9.813  0.3787 -0.1769 -0.0321
13098SOL    HW139872   4.830   6.775   9.795  1.2839  0.7872  0.0536
13098SOL    HW239873   4.748   6.886   9.731  2.4810  2.2244  0.9499
13099SOL     OW39874   9.251   0.369   2.372  0.8061  0.0006  0.2168
13099SOL    HW139875   9.239   0.464   2.372 -2.3257 -0.2385 -1.5510
13099SOL    HW239876   9.313   0.353   2.442  1.8620  3.3692  0.2612
13100SOL     OW39877   0.135   5.764   9.625  0.0168 -0.2938  0.7236
13100SOL    HW139878   0.128   5.815   9.544 -0.1579  1.2546  1.6684
13100SOL    HW239879   0.109   5.675   9.600  1.0718 -0.1344 -1.1653
13101SOL     OW39880   3.735   1.191   8.708 -0.9786 -0.2936 -0.5764
13101SOL    HW139881   3.786   1.218   8.785 -0.3586 -1.5612 -0.5285
13101SOL    HW239882   3.703   1.104   8.730 -0.9702 -0.5870 -1.6789
13102SOL     OW39883   9.306   6.014   5.241  0.1654 -0.3505 -0.1658
13102SOL    HW139884   9.211   6.004   5.237 -0.0297  0.6172  1.2243
13102SOL    HW239885   9.336   5.937   5.290  0.2128 -1.0893 -1.3209
13103SOL     OW39886   6.141   9.846   7.131 -0.0353  0.6263  0.0542
13103SOL    HW139887   6.080   9.893   7.073 -0.8577 -0.1946  0.2327
13103SOL    HW239888   6.212   9.908   7.146 -0.5648  1.4139 -0.5916
13104SOL     OW39889   3.992   3.850   3.678 -0.9449 -0.8234 -0.0386
13104SOL    HW139890   3.923   3.832   3.742 -2.0978 -1.3139 -1.3557
13104SOL    HW239891   3.950   3.907   3.613  0.0807 -0.6089 -0.5365
13105SOL     OW39892   8.603   7.111   3.520 -0.5288  0.0454  0.0182
13105SOL    HW139893   8.604   7.179   3.453  0.4356  0.9675  0.9343
13105SOL    HW239894   8.580   7.031   3.472 -0.8975  0.8589 -1.2144
13106SOL     OW39895   3.724   6.677   1.413 -0.1561  0.2759  0.6471
13106SOL    HW139896   3.641   6.631   1.407  0.9441 -2.1373  2.4921
13106SOL    HW239897   3.783   6.628   1.356  0.5594  0.6297  1.0642
13107SOL     OW39898   0.435   3.445   5.297  0.0430 -0.1227 -0.0774
13107SOL    HW139899   0.369   3.507   5.266  0.4738 -0.3108 -1.4295
13107SOL    HW239900   0.437   3.376   5.231 -1.4106 -2.3740  2.0698
13108SOL     OW39901   7.686   6.390   6.749 -0.0596  0.3999  0.0704
13108SOL    HW139902   7.638   6.473   6.751 -0.5421  0.1154  0.3774
13108SOL    HW239903   7.713   6.379   6.658  0.6079  1.2356  0.1517
13109SOL     OW39904   5.268   6.807   8.069  0.3958 -0.2567  0.2690
13109SOL    HW139905   5.228   6.894   8.076 -0.6099 -0.6292 -0.6874
13109SOL    HW239906   5.299   6.803   7.978 -1.9288 -1.8738 -0.5232
13110SOL     OW39907   8.166   6.291   0.957  0.0693  0.1175 -1.0017
13110SOL    HW139908   8.248   6.340   0.968  0.3225 -0.4887 -0.0224
13110SOL    HW239909   8.098   6.349   0.992  0.5109 -0.6247  1.2337
13111SOL     OW39910   3.645   7.181   8.921 -0.1442 -0.4733 -0.1286
13111SOL    HW139911   3.563   7.169   8.968  0.0732 -3.0590 -0.3159
13111SOL    HW239912   3.644   7.114   8.853  1.0139  1.0909 -1.7695
13112SOL     OW39913   8.952   3.509   5.785  0.4518 -0.5707  0.4218
13112SOL    HW139914   8.949   3.524   5.691  2.4409 -2.2083  0.0354
13112SOL    HW239915   8.947   3.597   5.823  2.4978  0.3965 -1.3406
13113SOL     OW39916   1.190   3.857   1.253  0.3033 -0.0407  1.3063
13113SOL    HW139917   1.225   3.794   1.317  0.2916  0.5160  1.8692
13113SOL    HW239918   1.097   3.838   1.251  0.3578 -0.3005  1.1861
13114SOL     OW39919   7.450   8.803   5.852  0.8479 -0.1611 -0.0347
13114SOL    HW139920   7.403   8.869   5.801 -0.7058 -2.1975 -1.3937
13114SOL    HW239921   7.462   8.843   5.938 -0.6337  1.6167 -0.5971
13115SOL     OW39922   3.596   9.481   5.412 -0.0162 -0.4188 -0.0880
13115SOL    HW139923   3.516   9.450   5.370 -1.0071 -0.4325  1.6984
13115SOL    HW239924   3.565   9.531   5.488  1.6707 -0.0492  0.4007
13116SOL     OW39925   0.997   5.868   3.571 -0.1010 -0.4749 -0.5421
13116SOL    HW139926   0.928   5.852   3.507 -2.6636  1.2739  1.5684
13116SOL    HW239927   1.039   5.783   3.583 -1.8997 -1.6266 -1.9202
13117SOL     OW39928   4.399   7.837   5.920 -0.0104  0.9331  0.1543
13117SOL    HW139929   4.434   7.910   5.870 -0.8008  1.2604  0.0533
13117SOL    HW239930   4.466   7.769   5.915  0.1790  1.1796 -0.8496
13118SOL     OW39931   8.081   5.565   7.542 -0.4139 -0.1399  0.4043
13118SOL    HW139932   8.127   5.648   7.553 -2.3754  1.1154 -0.3256
13118SOL    HW239933   8.069   5.557   7.447 -0.5083 -1.1283  0.4894
13119SOL     OW39934   5.195   2.539   8.321  0.3175 -0.1322  0.0850
13119SOL    HW139935   5.253   2.465   8.304  2.4545  1.1244  1.3852
13119SOL    HW239936   5.233   2.582   8.398 -3.0562  0.1222  1.7982
13120SOL     OW39937   2.140   2.669   5.691 -0.0969  0.3725 -0.4995
13120SOL    HW139938   2.068   2.720   5.653 -0.0281 -0.1293 -1.3209
13120SOL    HW239939   2.101   2.623   5.765 -0.5233  0.4177 -0.6967
13121SOL     OW39940   4.357   1.989   3.305  0.3550  0.2104 -0.2424
13121SOL    HW139941   4.340   2.002   3.211 -1.7293 -2.4213 -0.3516
13121SOL    HW239942   4.388   1.899   3.312 -0.5554 -0.0126  1.6700
13122SOL     OW39943   0.970   5.512   3.561  0.2836  0.4290 -0.2199
13122SOL    HW139944   0.925   5.490   3.642  0.6651 -2.1600 -0.6066
13122SOL    HW239945   1.057   5.541   3.588  0.1821  0.2171  0.3357
13123SOL     OW39946   5.484   3.245   1.623 -0.0028  0.6185  0.9905
13123SOL    HW139947   5.400   3.274   1.587  0.2202  1.0904  0.8348
13123SOL    HW239948   5.544   3.317   1.603  1.0212 -0.7235 -1.0969
13124SOL     OW39949   4.070   6.160   5.288 -0.0302  0.5074  0.0030
13124SOL    HW139950   4.152   6.131   5.249  1.0109  1.0275  1.6711
13124SOL    HW239951   4.073   6.256   5.282 -0.4251  0.5377  0.2341
13125SOL     OW39952   6.777   1.918   6.414  0.7792 -0.3451  0.0110
13125SOL    HW139953   6.818   1.959   6.489  1.8299 -1.5359  0.1171
13125SOL    HW239954   6.747   1.991   6.359 -0.5070  0.5465  1.8063
13126SOL     OW39955   0.257   7.058   8.898  0.3778  0.1082 -0.0918
13126SOL    HW139956   0.289   6.975   8.933 -1.2092 -1.2416 -1.5962
13126SOL    HW239957   0.334   7.114   8.893  1.5116 -1.2973  0.9225
13127SOL     OW39958   6.813   1.183   6.539 -0.6101 -0.3169 -0.6945
13127SOL    HW139959   6.783   1.273   6.551  1.1013  0.3113 -0.9299
13127SOL    HW239960   6.784   1.138   6.618  1.5151  1.2897  1.1095
13128SOL     OW39961   7.229   8.521   5.097 -0.0075  0.8892 -0.3928
13128SOL    HW139962   7.273   8.600   5.128  1.7689 -0.0972 -0.2602
13128SOL    HW239963   7.271   8.450   5.145 -2.9686 -0.0507  1.0290
13129SOL     OW39964   4.159   3.109   6.510  0.2723 -0.5785 -0.6303
13129SOL    HW139965   4.205   3.187   6.539  0.2237 -1.0764  0.8744
13129SOL    HW239966   4.077   3.141   6.473 -0.2221  0.0385  0.9371
13130SOL     OW39967   5.776   4.052   4.444  0.2688 -0.7244  0.2141
13130SOL    HW139968   5.768   3.966   4.485  0.5886 -1.1396 -0.5604
13130SOL    HW239969   5.723   4.045   4.364  0.4260 -0.2615  0.0649
13131SOL     OW39970   0.199   6.507   6.564 -0.1788  0.6373 -0.3471
13131SOL    HW139971   0.290   6.506   6.592 -0.2295  1.4855 -0.1194
13131SOL    HW239972   0.203   6.521   6.470 -0.0873  2.7504 -0.0771
13132SOL     OW39973   6.619   0.350   2.802 -0.5396 -0.5341 -0.2472
13132SOL    HW139974   6.670   0.289   2.856 -0.4822 -0.2901 -0.0245
13132SOL    HW239975   6.568   0.400   2.864  2.2691  2.3499 -0.0159
13133SOL     OW39976   7.417   6.486   7.386 -0.6599  0.0946 -0.8520
13133SOL    HW139977   7.418   6.424   7.459 -2.4434  0.6414 -0.2922
13133SOL    HW239978   7.387   6.435   7.311  1.6720 -0.5909 -1.3848
13134SOL     OW39979   3.603   0.841   0.802 -0.1513  0.0510  0.3420
13134SOL    HW139980   3.610   0.923   0.852 -0.4227  0.8046 -0.8032
13134SOL    HW239981   3.544   0.863   0.729  1.1815 -0.6486 -1.0011
13135SOL     OW39982   7.891   4.846   3.110  0.1684 -0.2939  0.3159
13135SOL    HW139983   7.814   4.803   3.075 -1.2065  1.4626  1.0312
13135SOL    HW239984   7.947   4.862   3.034 -1.5733  1.1380 -0.7469
13136SOL     OW39985   7.713   1.315   6.057  0.1891  0.1694 -0.1006
13136SOL    HW139986   7.693   1.396   6.011  1.2800  0.4610 -0.0849
13136SOL    HW239987   7.756   1.343   6.137 -1.8092 -0.3278  1.2124
13137SOL     OW39988   2.248   1.442   3.163 -0.1961 -0.0983 -0.6560
13137SOL    HW139989   2.181   1.440   3.230 -0.8711  1.1484 -1.2461
13137SOL    HW239990   2.330   1.459   3.211 -0.2449 -1.8181  0.0790
13138SOL     OW39991   6.821   4.663   9.750  0.3139  0.2097  0.1109
13138SOL    HW139992   6.810   4.756   9.730 -0.2284  0.2078  0.3998
13138SOL    HW239993   6.751   4.619   9.703 -0.2438  0.0859  1.0310
13139SOL     OW39994   4.445   2.667   1.835  0.3489 -0.6286  0.3613
13139SOL    HW139995   4.519   2.630   1.884 -0.4842 -0.2023  2.0345
13139SOL    HW239996   4.470   2.759   1.822 -0.1150 -0.3266  1.4725
13140SOL     OW39997   7.825   5.820   5.090 -0.0456  0.6876 -0.0169
13140SOL    HW139998   7.901   5.864   5.052  0.0810  1.0665  0.6715
13140SOL    HW239999   7.816   5.857   5.178 -0.6963  0.2498  0.1124
13141SOL     OW40000   9.239   9.514   3.195 -0.1031 -0.2905  0.1035
13141SOL    HW140001   9.200   9.431   3.169  1.0102 -1.2040  1.2000
13141SOL    HW240002   9.321   9.519   3.146  0.8707 -0.9097  1.5745
13142SOL     OW40003   1.938   9.178   5.467 -0.2391  0.3427  0.1576
13142SOL    HW140004   1.962   9.091   5.499 -0.9991  0.7250  1.8975
13142SOL    HW240005   1.974   9.181   5.378  1.6538 -0.9539  0.7896
13143SOL     OW40006   9.884   4.368   7.203  0.2705 -0.5063  0.0873
13143SOL    HW140007   9.798   4.344   7.237  0.2052 -0.8143 -0.2872
13143SOL    HW240008   9.866   4.402   7.115  0.4820 -0.1148  0.1913
13144SOL     OW40009   1.711   0.054   0.537  0.4732 -0.3071 -0.5234
13144SOL    HW140010   1.629   0.014   0.509  1.0138 -1.5475 -0.3696
13144SOL    HW240011   1.754   0.081   0.455 -0.9271  2.1466 -0.5385
13145SOL     OW40012   8.474   1.665   8.623 -0.6814 -0.7738  0.4397
13145SOL    HW140013   8.424   1.739   8.589  3.0287  1.1701 -1.3832
13145SOL    HW240014   8.447   1.591   8.567 -1.9700 -0.0076  0.0088
13146SOL     OW40015   2.428   9.426   0.377 -0.0686  0.0639  0.3014
13146SOL    HW140016   2.475   9.446   0.296  0.8466  3.2470  1.4785
13146SOL    HW240017   2.481   9.358   0.419  0.7711  0.0992 -0.6404
13147SOL     OW40018   7.120   6.580   5.091  0.8665  0.1846 -0.3218
13147SOL    HW140019   7.196   6.636   5.076  0.7181  0.3445 -0.4801
13147SOL    HW240020   7.144   6.527   5.167  1.1042  0.2916 -0.3209
13148SOL     OW40021   4.419   1.103   1.995  0.2015 -0.5549 -0.0801
13148SOL    HW140022   4.414   1.151   1.912 -0.0081  0.8894  0.7437
13148SOL    HW240023   4.475   1.028   1.976  1.5997  0.6991 -1.0887
13149SOL     OW40024   6.407   5.514   8.103  0.5624 -0.4811 -0.1227
13149SOL    HW140025   6.457   5.510   8.022  0.4613 -1.0419 -0.1644
13149SOL    HW240026   6.409   5.606   8.129 -1.7351  0.2624 -2.2134
13150SOL     OW40027   8.652   6.553   6.803  0.6204 -0.0483 -0.2154
13150SOL    HW140028   8.721   6.504   6.847  0.7604 -0.9164 -1.3598
13150SOL    HW240029   8.655   6.522   6.713 -2.2894 -1.2839  0.0120
13151SOL     OW40030   2.028   0.985   3.570  0.0103 -0.0668  0.3075
13151SOL    HW140031   2.070   0.932   3.502  2.3064  1.8376  0.0971
13151SOL    HW240032   1.972   1.046   3.522 -1.0187 -0.8889  0.4165
13152SOL     OW40033   2.322   4.333   3.812  0.0892  0.6667  0.0266
13152SOL    HW140034   2.245   4.371   3.769 -1.4883 -0.9043  1.3097
13152SOL    HW240035   2.343   4.393   3.883 -1.8412 -0.2803  1.4942
13153SOL     OW40036   9.549   5.115   5.592  0.2178  0.3002  0.0411
13153SOL    HW140037   9.529   5.045   5.529  0.2987 -0.7723  1.1648
13153SOL    HW240038   9.469   5.124   5.643  1.4127 -1.8835  2.5658
13154SOL     OW40039   3.860   7.452   8.673 -0.1987  0.1762 -0.2405
13154SOL    HW140040   3.930   7.474   8.735 -0.5764  0.0926  0.2209
13154SOL    HW240041   3.791   7.516   8.691  0.1507  0.8975 -1.3804
13155SOL     OW40042   5.399   8.670   9.606  0.4425  0.1684  0.2355
13155SOL    HW140043   5.371   8.600   9.665  1.1309  0.3234  0.7598
13155SOL    HW240044   5.383   8.636   9.518  1.1193 -0.7921  0.4785
13156SOL     OW40045   5.653   7.710   0.157  0.4591 -0.0863 -0.5093
13156SOL    HW140046   5.600   7.765   0.214 -0.6336  0.6823 -2.1839
13156SOL    HW240047   5.606   7.627   0.154 -0.9652  0.7304 -2.3247
13157SOL     OW40048   4.130   7.177   5.381 -0.8000 -0.3471  0.1823
13157SOL    HW140049   4.193   7.109   5.359 -0.6087 -0.1459  0.1021
13157SOL    HW240050   4.116   7.167   5.475 -0.8790 -0.5850  0.1464
13158SOL     OW40051   8.176   7.508   3.443  0.5519 -0.4159  0.3393
13158SOL    HW140052   8.193   7.601   3.452 -1.0368 -0.1358  0.7352
13158SOL    HW240053   8.118   7.487   3.515  0.7499 -1.6840  0.1531
13159SOL     OW40054   0.117   0.291   8.079 -0.4192 -0.2104  0.0171
13159SOL    HW140055   0.048   0.263   8.138 -1.1291  0.1268 -0.6370
13159SOL    HW240056   0.096   0.248   7.996  0.2039 -0.1616 -0.1763
13160SOL     OW40057   5.908   3.798   1.610  0.8227 -0.4989  0.1936
13160SOL    HW140058   5.956   3.742   1.672  2.5584 -0.6961 -1.2402
13160SOL    HW240059   5.866   3.737   1.551  1.2102 -0.3116 -0.2808
13161SOL     OW40060   3.335   2.934   8.427  0.0103 -0.6650  0.0639
13161SOL    HW140061   3.285   2.948   8.507 -0.1001 -0.0981 -0.1063
13161SOL    HW240062   3.270   2.940   8.357  0.6376  2.4486 -0.3653
13162SOL     OW40063   3.357   9.924   2.265 -0.9782  0.6284  0.6151
13162SOL    HW140064   3.340   9.862   2.194  3.3317  1.9696 -1.9783
13162SOL    HW240065   3.407   9.873   2.329 -0.5265  0.5242  0.1943
13163SOL     OW40066   1.073   6.500   3.631 -0.2330  0.2663 -0.7742
13163SOL    HW140067   0.989   6.516   3.588 -0.5518 -1.7068 -0.9718
13163SOL    HW240068   1.052   6.437   3.700  0.9328  0.5333 -0.1601
13164SOL     OW40069   9.732   1.986   2.633 -0.6988 -0.8760  0.0124
13164SOL    HW140070   9.644   2.015   2.657 -1.7627 -1.5085 -2.7119
13164SOL    HW240071   9.788   2.061   2.650 -1.9135 -0.1321  0.9094
13165SOL     OW40072   0.480   2.294   7.846 -0.1463 -0.2177 -0.0690
13165SOL    HW140073   0.533   2.333   7.915  1.4666 -2.3016 -0.0500
13165SOL    HW240074   0.404   2.258   7.892  0.1652 -0.2909  0.3876
13166SOL     OW40075   9.206   5.254   5.612  0.7802 -0.0847  0.3676
13166SOL    HW140076   9.218   5.160   5.627  1.6260 -0.0325  0.0925
13166SOL    HW240077   9.195   5.290   5.700  0.0417 -0.4856  0.4474
13167SOL     OW40078   5.144   3.336   7.886 -0.0476  0.2411 -0.1851
13167SOL    HW140079   5.226   3.384   7.900 -0.4158  0.4610  1.4089
13167SOL    HW240080   5.153   3.299   7.798  2.0919 -0.3880  0.2369
13168SOL     OW40081   0.692   0.906   6.948 -0.1721 -0.0376 -0.0375
13168SOL    HW140082   0.730   0.836   6.896 -0.8072 -0.2414 -0.2367
13168SOL    HW240083   0.767   0.954   6.982  0.2603 -0.4036 -0.4587
13169SOL     OW40084   4.851   6.138   5.256  0.0060 -0.0235 -0.6238
13169SOL    HW140085   4.842   6.083   5.334 -1.0923  1.2426  0.1854
13169SOL    HW240086   4.943   6.167   5.258 -0.3977  1.3370  1.1972
13170SOL     OW40087   9.857   1.727   7.967 -0.5316  0.2503 -0.5482
13170SOL    HW140088   9.861   1.632   7.952 -0.1837  0.1507  0.1282
13170SOL    HW240089   9.764   1.748   7.960 -0.5001  0.0471 -1.7689
13171SOL     OW40090   9.747   6.693   1.411  0.7136 -0.0768  0.0591
13171SOL    HW140091   9.745   6.643   1.330  0.1325 -0.0655  0.0617
13171SOL    HW240092   9.693   6.642   1.472  0.9914  0.0108  0.3837
13172SOL     OW40093   3.218   3.446   9.856 -0.3368  0.4425 -0.2654
13172SOL    HW140094   3.141   3.476   9.808 -0.4496 -0.5663 -0.7347
13172SOL    HW240095   3.264   3.389   9.795 -0.0860 -0.2800  0.5768
13173SOL     OW40096   5.313   0.676   0.390  0.2426 -0.3397 -0.0183
13173SOL    HW140097   5.260   0.719   0.457 -0.8995 -2.3334  0.4479
13173SOL    HW240098   5.333   0.745   0.327 -0.2212  1.1781  1.4108
13174SOL     OW40099   9.335   9.418   4.772  0.1852 -0.0590  0.0221
13174SOL    HW140100   9.372   9.358   4.707  1.3675  0.0467  0.5705
13174SOL    HW240101   9.410   9.469   4.804 -0.2889 -0.3559  1.7274
13175SOL     OW40102   9.768   4.753   9.639 -0.1322  0.0762  0.1608
13175SOL    HW140103   9.782   4.685   9.705  0.5895  0.6142  0.5769
13175SOL    HW240104   9.807   4.717   9.560  0.2143 -0.0176  0.3698
13176SOL     OW40105   1.983   9.649   4.871  0.2264 -0.0756 -0.2238
13176SOL    HW140106   2.060   9.603   4.835  1.6543  0.1652  2.3254
13176SOL    HW240107   2.005   9.666   4.962 -1.8790  2.2584 -0.0444
13177SOL     OW40108   3.566   7.746   5.222 -0.0923 -0.1061  0.5356
13177SOL    HW140109   3.606   7.823   5.180 -1.1809 -0.2419 -0.8568
13177SOL    HW240110   3.636   7.707   5.273  0.8551  1.0500  0.1749
13178SOL     OW40111   2.353   4.192   7.727  0.4603 -0.0731  0.2302
13178SOL    HW140112   2.275   4.226   7.770  2.0739  2.2054  1.5956
13178SOL    HW240113   2.372   4.255   7.658  0.4274 -1.2948 -0.9318
13179SOL     OW40114   5.630   9.708   1.202 -0.3145  0.4980  0.0418
13179SOL    HW140115   5.536   9.692   1.215 -0.5873  2.6149  1.1327
13179SOL    HW240116   5.671   9.676   1.282 -0.3019  1.0104  0.2415
13180SOL     OW40117   5.971   3.449   9.011 -0.6997 -0.3873  0.2938
13180SOL    HW140118   5.881   3.465   8.983 -0.4622  0.9223  0.2500
13180SOL    HW240119   6.019   3.431   8.930 -0.4193  1.4475  0.0114
13181SOL     OW40120   8.221   1.579   2.915  0.0186  0.1646  0.2959
13181SOL    HW140121   8.262   1.559   2.999 -0.0526 -0.0051  0.2901
13181SOL    HW240122   8.183   1.666   2.927  0.4567  0.3652  0.2737
13182SOL     OW40123   4.190   9.740   8.051 -0.2102 -0.5544  0.0074
13182SOL    HW140124   4.156   9.674   7.990  1.3686 -1.4505  0.0236
13182SOL    HW240125   4.130   9.738   8.125 -1.1386 -0.7495 -0.7314
13183SOL     OW40126   0.054   6.586   4.954  0.3402  0.1957 -0.0700
13183SOL    HW140127  -0.039   6.561   4.954  0.3895 -0.0623 -1.5227
13183SOL    HW240128   0.052   6.682   4.952  0.1260  0.2172  0.6925
13184SOL     OW40129   9.605   2.383   4.844 -0.6884 -0.2084  0.1906
13184SOL    HW140130   9.676   2.378   4.779  0.7855  0.9779  1.6308
13184SOL    HW240131   9.567   2.295   4.845  0.9068 -0.9417 -0.4818
13185SOL     OW40132   1.218   6.765   2.556 -0.0373 -0.0938  0.7057
13185SOL    HW140133   1.142   6.735   2.507 -0.2910  1.5967 -0.0071
13185SOL    HW240134   1.286   6.779   2.489  0.4067 -0.1038  1.1455
13186SOL     OW40135   8.479   2.585   7.685  0.1401  0.6589 -0.5288
13186SOL    HW140136   8.389   2.614   7.668 -0.5245 -0.5534  0.7393
13186SOL    HW240137   8.498   2.616   7.773  0.0232 -1.2191  0.1962
13187SOL     OW40138   4.497   2.858   3.691 -0.3863  0.0006  0.4962
13187SOL    HW140139   4.508   2.828   3.781  0.1837  0.3157  0.5365
13187SOL    HW240140   4.471   2.950   3.699 -1.8352 -0.3866  0.3691
13188SOL     OW40141   2.022   1.060   5.442 -0.2521 -0.0689  0.1556
13188SOL    HW140142   2.056   0.995   5.503 -2.2639  0.8672  2.4539
13188SOL    HW240143   1.959   1.012   5.388 -1.1565 -0.2798  1.3269
13189SOL     OW40144   5.535   4.951   2.602  0.3490 -0.3735 -0.5142
13189SOL    HW140145   5.565   4.861   2.595  0.4302 -0.5921  1.7814
13189SOL    HW240146   5.463   4.948   2.665 -2.0909  0.6998 -3.0491
13190SOL     OW40147   8.907  -0.030   0.551  0.1718 -0.1216 -0.4119
13190SOL    HW140148   8.981  -0.016   0.491  1.2411  0.0565  0.9108
13190SOL    HW240149   8.907   0.047   0.608 -1.1608 -0.0381 -0.4847
13191SOL     OW40150   6.476   9.384   4.579  0.0839 -0.2909 -0.3017
13191SOL    HW140151   6.423   9.377   4.500 -0.5997 -0.8066  0.2010
13191SOL    HW240152   6.526   9.302   4.582  1.7301  0.6143 -1.3338
13192SOL     OW40153   6.147   0.611   2.250  0.4610  0.4426 -0.0257
13192SOL    HW140154   6.211   0.553   2.209  0.4625  0.6765 -0.3555
13192SOL    HW240155   6.185   0.634   2.334  0.2928 -0.3365  0.2701
13193SOL     OW40156   6.440   3.778   1.864 -0.0641  0.3021  0.2241
13193SOL    HW140157   6.452   3.781   1.958  2.2236 -1.2061  0.0549
13193SOL    HW240158   6.368   3.717   1.851 -0.7870  0.9725  0.9842
13194SOL     OW40159   5.087   0.854   0.564 -0.1261 -0.6731 -0.1346
13194SOL    HW140160   5.021   0.922   0.579 -1.5160 -1.8559 -0.6021
13194SOL    HW240161   5.086   0.801   0.643  2.2952  0.8417  1.0160
13195SOL     OW40162   0.477   6.589   5.508 -0.4226 -0.1851  1.1411
13195SOL    HW140163   0.509   6.499   5.515 -0.3041 -0.0406  3.0103
13195SOL    HW240164   0.382   6.580   5.502 -0.3256 -0.5463 -2.9795
13196SOL     OW40165   7.679   9.144   7.174 -0.1940  0.1584  0.4460
13196SOL    HW140166   7.617   9.214   7.194 -1.4196  0.1274 -2.7674
13196SOL    HW240167   7.749   9.187   7.125  0.0845 -0.5313  0.2338
13197SOL     OW40168   1.741   4.456   7.797 -0.3564  0.1096  0.2439
13197SOL    HW140169   1.704   4.378   7.755 -0.1517 -1.2400  2.3596
13197SOL    HW240170   1.666   4.512   7.815 -0.6728 -0.1723 -0.1942
13198SOL     OW40171   1.011   1.747   0.625  0.2685 -0.1874  0.6375
13198SOL    HW140172   0.927   1.793   0.634  0.0889 -0.2509 -0.5695
13198SOL    HW240173   1.002   1.669   0.681 -0.5578 -0.2983  0.3622
13199SOL     OW40174   9.494   8.053   1.385 -0.0193 -0.6523 -0.2280
13199SOL    HW140175   9.578   8.071   1.428 -0.2559  3.4443 -1.1473
13199SOL    HW240176   9.429   8.096   1.440 -0.9601 -0.0475 -1.7459
13200SOL     OW40177   6.645   8.181   8.399 -0.4875  0.5584 -0.1565
13200SOL    HW140178   6.713   8.181   8.467 -0.3004 -1.0343 -0.2931
13200SOL    HW240179   6.572   8.227   8.438 -0.5185 -0.6281  1.3044
13201SOL     OW40180  10.004   2.779   2.824  0.1346 -0.1755  0.2787
13201SOL    HW140181   9.950   2.771   2.903 -0.1811  0.6954  0.1581
13201SOL    HW240182   9.942   2.771   2.752  0.2224  0.4207  0.1355
13202SOL     OW40183   1.010   8.225   0.171  0.2943  0.2108 -0.5652
13202SOL    HW140184   1.080   8.287   0.193  0.8169 -0.6272  0.2128
13202SOL    HW240185   0.937   8.280   0.142  0.2275  1.2802  1.4909
13203SOL     OW40186   4.140   1.138   5.861  0.8872 -0.5687 -0.0164
13203SOL    HW140187   4.091   1.107   5.937 -1.6445 -0.6618 -1.5720
13203SOL    HW240188   4.158   1.230   5.880  2.1071 -1.0672  1.5031
13204SOL     OW40189   3.408   7.698   5.943 -0.1602  0.0925  0.0186
13204SOL    HW140190   3.380   7.751   6.019 -1.5957  0.8351 -0.9795
13204SOL    HW240191   3.419   7.762   5.872 -1.5907 -0.8870 -1.1322
13205SOL     OW40192   5.534   3.672   4.036 -0.3760  0.4823 -0.3624
13205SOL    HW140193   5.577   3.755   4.057 -2.5026  1.5801 -0.0423
13205SOL    HW240194   5.534   3.623   4.119  0.2453  0.4762 -0.3666
13206SOL     OW40195   8.768   1.646   0.255 -0.2706 -0.1361 -0.5274
13206SOL    HW140196   8.798   1.709   0.320 -0.2681 -0.5587 -0.1165
13206SOL    HW240197   8.842   1.587   0.242 -1.1021 -1.5600  0.9536
13207SOL     OW40198   7.638   3.142   6.204 -0.3063 -0.1729  0.3059
13207SOL    HW140199   7.644   3.222   6.152 -0.2844 -0.7261 -0.5538
13207SOL    HW240200   7.546   3.138   6.231 -0.3113  0.1285  0.3438
13208SOL     OW40201   5.457   8.850   2.988 -0.4589  0.4699  0.0960
13208SOL    HW140202   5.548   8.842   2.958 -0.2755 -2.5700  1.1404
13208SOL    HW240203   5.405   8.840   2.908  0.0705  1.8492 -0.4547
13209SOL     OW40204   5.131   5.530   6.702 -0.0506  0.8114  0.5735
13209SOL    HW140205   5.063   5.486   6.755 -1.4480 -0.1971 -1.8780
13209SOL    HW240206   5.128   5.621   6.730  0.0127  0.1532  2.9274
13210SOL     OW40207   7.249   1.903   8.346 -0.1105  0.3718  0.0139
13210SOL    HW140208   7.259   1.887   8.440 -2.6197 -3.1052 -0.1027
13210SOL    HW240209   7.312   1.844   8.305 -1.0561 -0.3466 -0.4449
13211SOL     OW40210   3.286   6.075   6.923  0.3897 -0.3847 -0.1986
13211SOL    HW140211   3.218   6.052   6.986  1.5247 -0.4383  1.0525
13211SOL    HW240212   3.255   6.156   6.883 -0.3300 -0.3192  0.4670
13212SOL     OW40213   0.142   8.757   9.464  0.2104 -0.0216  0.6556
13212SOL    HW140214   0.051   8.776   9.487 -0.6059 -0.6255 -1.8657
13212SOL    HW240215   0.137   8.691   9.395  2.5856  0.0197  0.3562
13213SOL     OW40216   3.220   9.542   8.711  0.3250 -0.1515 -0.2244
13213SOL    HW140217   3.229   9.507   8.623 -0.5563 -1.3571  0.1434
13213SOL    HW240218   3.125   9.550   8.724  0.4749  1.2717  0.1422
13214SOL     OW40219   2.325   8.648   4.813  0.0228  0.1386 -0.3451
13214SOL    HW140220   2.314   8.596   4.734  1.4075 -1.4158  0.4218
13214SOL    HW240221   2.310   8.738   4.785 -1.3243 -0.5409 -1.9654
13215SOL     OW40222   2.074   8.436   3.537  0.2699 -1.1608  0.0028
13215SOL    HW140223   2.156   8.420   3.490 -0.8469 -1.6969 -1.8876
13215SOL    HW240224   2.007   8.430   3.469 -1.1200  2.2588  0.8769
13216SOL     OW40225   3.631   8.374   3.893  0.1332 -0.0121  0.1528
13216SOL    HW140226   3.687   8.449   3.911  2.0770 -0.5949 -2.7659
13216SOL    HW240227   3.571   8.404   3.824 -1.2203 -0.2821  1.1624
13217SOL     OW40228   6.212   0.570   3.236  0.0937  0.2072  0.1727
13217SOL    HW140229   6.184   0.504   3.172 -1.0596  0.2137  0.6256
13217SOL    HW240230   6.151   0.642   3.224  1.2866  1.1673 -0.2444
13218SOL     OW40231   8.412   1.241   9.660 -0.3908 -0.2781  0.2245
13218SOL    HW140232   8.342   1.288   9.616 -2.0266 -1.8930  0.9749
13218SOL    HW240233   8.422   1.160   9.610  1.2073  0.0456 -0.0535
13219SOL     OW40234   2.684   3.453   4.212  0.1760 -0.1700 -0.3885
13219SOL    HW140235   2.702   3.359   4.210  1.0483 -0.0319  0.1668
13219SOL    HW240236   2.633   3.466   4.293 -0.4720 -0.2395 -0.7774
13220SOL     OW40237   4.946   8.040   0.554  0.4294  0.6555 -0.3295
13220SOL    HW140238   5.013   8.080   0.609  1.3762  1.0219 -1.7169
13220SOL    HW240239   4.969   7.947   0.553  2.4247  1.0786 -2.7183
13221SOL     OW40240   0.913   4.125   1.254 -0.6206 -0.5199 -0.5141
13221SOL    HW140241   0.912   4.029   1.252 -1.4048 -0.5040 -1.0195
13221SOL    HW240242   1.005   4.148   1.238 -0.8870 -1.1326 -3.3362
13222SOL     OW40243   9.964   1.636   2.825 -0.4319  0.1161  0.0814
13222SOL    HW140244   9.984   1.705   2.888 -0.9040  0.6331 -0.3181
13222SOL    HW240245   9.876   1.658   2.793 -0.3840 -0.3923 -0.4132
13223SOL     OW40246   4.327   7.618   2.063  0.3480 -0.3217 -0.1655
13223SOL    HW140247   4.396   7.649   2.122 -0.6130  1.4536  0.1241
13223SOL    HW240248   4.272   7.562   2.118  1.4630 -1.6729 -0.3762
13224SOL     OW40249   4.003   5.130   2.065 -0.0059  0.0826  0.0960
13224SOL    HW140250   3.925   5.099   2.111 -0.2389  1.5105  0.7297
13224SOL    HW240251   4.020   5.063   1.999 -1.4695 -0.5150  0.2726
13225SOL     OW40252   2.605   4.984   7.952  0.2821  0.3554  0.3140
13225SOL    HW140253   2.603   5.066   7.902 -0.4269  0.0994 -0.0857
13225SOL    HW240254   2.633   5.011   8.039 -1.5764  1.3010  0.6732
13226SOL     OW40255   7.768   2.707   7.035  0.2980 -0.0891 -0.1019
13226SOL    HW140256   7.710   2.776   7.005  1.1408  0.3290 -0.8358
13226SOL    HW240257   7.836   2.752   7.086  1.9048 -0.0645 -2.1145
13227SOL     OW40258   5.429   6.874   7.797  0.5853  0.1922 -0.4819
13227SOL    HW140259   5.505   6.869   7.855  0.2774  0.8262 -0.0128
13227SOL    HW240260   5.384   6.954   7.823 -0.6040 -0.5032 -0.3325
13228SOL     OW40261   1.544   8.168   1.888  0.1903  0.5067 -0.1617
13228SOL    HW140262   1.480   8.122   1.833  1.7104 -2.7080  0.4787
13228SOL    HW240263   1.622   8.176   1.834  0.6923  0.1516  0.4866
13229SOL     OW40264   8.820   6.282   3.906  0.4942 -0.5289 -0.1646
13229SOL    HW140265   8.732   6.290   3.942  0.0384  0.3059 -1.4314
13229SOL    HW240266   8.856   6.370   3.911  1.6790 -1.0529  1.3224
13230SOL     OW40267   5.874   6.134   5.936  0.0880 -0.2422 -0.4696
13230SOL    HW140268   5.963   6.170   5.933 -0.0995  0.3184  0.2199
13230SOL    HW240269   5.883   6.052   5.984  0.0079  0.6060  1.0577
13231SOL     OW40270   6.086   2.631   0.749 -0.3348 -0.0507  0.2217
13231SOL    HW140271   6.094   2.726   0.750 -2.0472  0.1752 -1.2732
13231SOL    HW240272   6.174   2.600   0.730 -0.2556  1.4498 -2.4264
13232SOL     OW40273   2.884   5.542   6.811 -0.4966 -0.1260  0.0023
13232SOL    HW140274   2.948   5.470   6.808  0.2563  0.5305  0.0476
13232SOL    HW240275   2.800   5.500   6.792  0.0057 -0.9269 -0.5052
13233SOL     OW40276   3.730   7.401   9.559  0.0284 -0.0935  0.1319
13233SOL    HW140277   3.657   7.456   9.529 -1.3889 -0.5996  2.3824
13233SOL    HW240278   3.808   7.452   9.538 -1.0907  1.5194 -0.3461
13234SOL     OW40279   5.432   5.634   1.634 -0.4329 -0.3111  1.3520
13234SOL    HW140280   5.359   5.625   1.696 -1.3659 -1.0096  0.2025
13234SOL    HW240281   5.389   5.640   1.549  0.8727 -0.5561  0.6662
13235SOL     OW40282   5.959   2.124   0.596 -0.4629 -0.2824  0.4860
13235SOL    HW140283   5.909   2.070   0.658  0.7458  0.7330  2.4496
13235SOL    HW240284   5.916   2.210   0.601 -0.3115 -0.1774 -0.0445
13236SOL     OW40285   8.590   5.952   3.970 -0.0153 -0.2377 -0.0950
13236SOL    HW140286   8.547   6.024   3.925  0.0934  2.7077  3.9408
13236SOL    HW240287   8.526   5.922   4.034  1.0767 -1.5289  0.4287
13237SOL     OW40288   6.139   4.155   5.535 -0.0829 -0.5423  0.6395
13237SOL    HW140289   6.080   4.098   5.486  0.1012  1.1497 -1.7349
13237SOL    HW240290   6.203   4.096   5.574 -0.4056 -2.0320 -0.9823
13238SOL     OW40291   2.074   3.885   1.572 -0.7294 -0.0890 -0.3677
13238SOL    HW140292   1.998   3.942   1.578  0.6813  1.7604  1.0553
13238SOL    HW240293   2.130   3.910   1.646  0.8448 -2.0346 -0.7829
13239SOL     OW40294   4.837   9.334   9.902  0.0612  0.0360 -0.8542
13239SOL    HW140295   4.789   9.379   9.832 -0.3336  0.1849 -0.4939
13239SOL    HW240296   4.904   9.283   9.856  0.0400  0.4132 -1.3161
13240SOL     OW40297   0.610   1.315   9.009 -0.5027 -0.2292 -0.4802
13240SOL    HW140298   0.579   1.395   8.967  0.2960  0.3894  0.0906
13240SOL    HW240299   0.572   1.244   8.956 -0.4391  0.5179 -1.5620
13241SOL     OW40300   7.008   3.534   3.203 -0.1380 -0.6083  0.3385
13241SOL    HW140301   7.017   3.484   3.284  0.6945 -0.1211  0.5584
13241SOL    HW240302   7.075   3.500   3.145  0.0144 -0.1863  0.2628
13242SOL     OW40303   7.505   6.160   3.655  0.0125  0.8015  0.3564
13242SOL    HW140304   7.447   6.118   3.718 -1.8867  0.9085 -1.2180
13242SOL    HW240305   7.470   6.248   3.644  1.9717  1.7375  1.1462
13243SOL     OW40306   4.542   3.019   4.144  0.1058  0.2901 -0.1986
13243SOL    HW140307   4.578   2.976   4.222  0.9339 -0.4295 -0.9604
13243SOL    HW240308   4.563   3.111   4.155 -2.9480  0.8712  2.1747
13244SOL     OW40309   2.357   5.824   1.308 -0.4452 -0.0223  0.0208
13244SOL    HW140310   2.339   5.736   1.339 -0.1043  0.0345  0.3916
13244SOL    HW240311   2.314   5.829   1.222 -1.0060 -0.3345  0.2786
13245SOL     OW40312   5.654   1.871   5.696 -0.0020 -0.2088  0.2981
13245SOL    HW140313   5.595   1.888   5.770 -0.1064  0.1685  0.1327
13245SOL    HW240314   5.669   1.776   5.698  1.2389 -0.0184  1.7393
13246SOL     OW40315   6.672   0.653   7.964 -0.3262 -0.8334 -0.1255
13246SOL    HW140316   6.610   0.726   7.957  1.7007  1.3623  2.5817
13246SOL    HW240317   6.618   0.577   7.984 -2.2191  0.8827  1.6316
13247SOL     OW40318   3.904   7.774   4.444  0.2832 -0.2571 -0.2865
13247SOL    HW140319   3.889   7.822   4.525 -2.8026 -0.6124 -0.5278
13247SOL    HW240320   3.915   7.842   4.378  1.3629  0.0324  0.1654
13248SOL     OW40321   6.377   5.588   4.453  0.2513  0.2118 -0.2227
13248SOL    HW140322   6.336   5.511   4.413  0.8101  0.6650 -1.7779
13248SOL    HW240323   6.368   5.575   4.547 -1.4639 -0.7672 -0.4868
13249SOL     OW40324   7.185   8.749   7.470  0.1229  0.0138  0.0064
13249SOL    HW140325   7.265   8.735   7.420 -0.0653 -1.5953  0.1172
13249SOL    HW240326   7.123   8.785   7.406 -0.1017 -1.9785 -0.9652
13250SOL     OW40327   4.942   9.025   3.053  0.4498 -0.0479 -0.0640
13250SOL    HW140328   4.851   9.020   3.082  0.5092 -0.7377  0.0112
13250SOL    HW240329   4.993   9.020   3.134  0.5317  1.8546  0.0376
13251SOL     OW40330   6.155   9.077   9.834  0.3304  0.5540  0.0347
13251SOL    HW140331   6.165   8.983   9.821 -0.8056  0.2899  0.9332
13251SOL    HW240332   6.184   9.092   9.924 -1.3173  0.7317  0.5665
13252SOL     OW40333   0.907   9.304   9.343 -0.3137 -0.3694  0.2285
13252SOL    HW140334   0.968   9.329   9.273 -0.3178 -0.8050  0.0658
13252SOL    HW240335   0.820   9.324   9.308 -0.5504 -3.2048 -1.0764
13253SOL     OW40336   4.208   7.219   0.611 -0.2235 -0.0952 -0.2006
13253SOL    HW140337   4.260   7.156   0.561 -1.7607 -2.0529  0.5597
13253SOL    HW240338   4.215   7.189   0.702  1.4782  2.6523  0.7056
13254SOL     OW40339   4.546   7.645   6.381  0.1069  0.6442  0.6560
13254SOL    HW140340   4.496   7.614   6.305 -0.1984  2.1277  0.2121
13254SOL    HW240341   4.589   7.725   6.350  0.8812  0.6590  1.7295
13255SOL     OW40342   9.606   3.358   5.278 -0.6489  0.3228  0.1663
13255SOL    HW140343   9.628   3.345   5.186  1.6281  1.5497  0.4566
13255SOL    HW240344   9.510   3.356   5.281 -0.8642  2.0761 -2.5487
13256SOL     OW40345   9.641   1.258   8.325  0.4458 -0.1097  0.1813
13256SOL    HW140346   9.626   1.336   8.272  1.7081  0.7749  1.0541
13256SOL    HW240347   9.722   1.220   8.291  0.6846 -0.1377  0.7561
13257SOL     OW40348   1.185   4.117   9.838 -1.0044 -0.5147  0.0347
13257SOL    HW140349   1.213   4.039   9.886 -0.3884 -0.7319 -0.6587
13257SOL    HW240350   1.125   4.083   9.771 -1.6268 -0.2499  0.4493
13258SOL     OW40351   2.004   3.172   3.077  0.0140  0.0791 -0.2602
13258SOL    HW140352   2.086   3.180   3.030 -0.9534  2.3846 -1.7419
13258SOL    HW240353   2.014   3.231   3.152  0.0954 -0.4877  0.1796
13259SOL     OW40354   9.467   9.934   6.829 -0.0465  0.3023 -0.6032
13259SOL    HW140355   9.408   9.922   6.903  0.8858 -2.2229 -0.1380
13259SOL    HW240356   9.478   9.846   6.793 -0.1718  1.3832 -3.5710
13260SOL     OW40357   6.683   7.290   1.073  0.5588  0.3653 -0.3322
13260SOL    HW140358   6.703   7.205   1.113 -1.2085  0.3168  0.5876
13260SOL    HW240359   6.603   7.318   1.117  0.4444  1.9631 -1.4705
13261SOL     OW40360   3.934   9.304   6.432 -0.0443 -0.1572  0.2679
13261SOL    HW140361   3.911   9.369   6.365  0.7538  0.0193  0.1473
13261SOL    HW240362   3.942   9.222   6.384  0.2847 -0.0780  0.1836
13262SOL     OW40363   9.370   7.034   3.152 -0.1700 -0.1837 -0.0917
13262SOL    HW140364   9.459   7.037   3.189 -0.1524  0.5364 -0.1795
13262SOL    HW240365   9.328   6.961   3.198 -0.6395  1.5837  2.5123
13263SOL     OW40366   4.531   5.461   4.652  0.3383  0.6952  0.0320
13263SOL    HW140367   4.488   5.419   4.578  1.7345  0.0914 -0.4743
13263SOL    HW240368   4.612   5.496   4.616  1.0788  0.3293  1.2875
13264SOL     OW40369   3.112   9.772   3.339 -0.1141 -0.1695 -0.3506
13264SOL    HW140370   3.181   9.728   3.388  1.6458  2.9607  0.2738
13264SOL    HW240371   3.036   9.768   3.398  0.9929  0.5534  1.2156
13265SOL     OW40372   1.993   0.965   4.468 -0.4075  0.2342  0.2186
13265SOL    HW140373   2.022   1.056   4.467  0.7533 -0.1169  0.4526
13265SOL    HW240374   2.065   0.917   4.510 -1.3196 -0.6860  0.7947
13266SOL     OW40375   5.579   0.760   6.640 -0.2217  0.4332 -0.4271
13266SOL    HW140376   5.510   0.807   6.594 -2.1227 -2.2512 -0.5494
13266SOL    HW240377   5.552   0.760   6.732 -0.5267 -0.7751 -0.4993
13267SOL     OW40378   7.452   8.938   4.172  0.0835  0.1064 -0.3875
13267SOL    HW140379   7.515   8.928   4.100  0.0793  0.9556 -0.5141
13267SOL    HW240380   7.503   8.918   4.250  0.1473 -0.5991 -0.6007
13268SOL     OW40381   4.125   4.874   0.445  0.2175 -0.5531 -0.3078
13268SOL    HW140382   4.206   4.838   0.479  0.4286 -0.4680 -0.7080
13268SOL    HW240383   4.151   4.957   0.405 -0.0877 -0.4626 -0.3214
13269SOL     OW40384   6.864   2.785   1.526 -0.8514  0.2681  0.2637
13269SOL    HW140385   6.796   2.786   1.459 -1.0590  0.1156  0.4698
13269SOL    HW240386   6.920   2.711   1.503  0.4535  1.5953 -1.0862
13270SOL     OW40387   6.105   5.210   6.121  0.1116  0.5702  0.2549
13270SOL    HW140388   6.139   5.152   6.053 -1.7992  1.5866 -1.6908
13270SOL    HW240389   6.180   5.265   6.145  0.7865  0.3456 -1.2126
13271SOL     OW40390   8.577   8.620   4.244 -0.3930  0.6338 -0.0476
13271SOL    HW140391   8.632   8.544   4.226 -2.5687 -0.8330 -1.0349
13271SOL    HW240392   8.638   8.693   4.254  1.6393 -0.6696 -2.0871
13272SOL     OW40393   9.560   8.040   5.374  0.2466  0.0630  0.0772
13272SOL    HW140394   9.602   7.973   5.320 -1.7827 -0.3272 -1.1653
13272SOL    HW240395   9.550   8.115   5.315 -1.0573  0.0040  0.1939
13273SOL     OW40396   1.584   0.119   3.894 -0.1820 -0.0249 -0.0527
13273SOL    HW140397   1.530   0.116   3.973  0.7329 -2.4764  0.5971
13273SOL    HW240398   1.525   0.092   3.824 -0.6474  0.7702  0.0213
13274SOL     OW40399   5.486   5.134   5.837  0.0090 -0.2113 -0.1246
13274SOL    HW140400   5.467   5.045   5.864 -1.2657  0.1101  0.0726
13274SOL    HW240401   5.502   5.128   5.743 -0.0024 -0.6550 -0.0994
13275SOL     OW40402   4.985   7.280   4.548  0.1485  0.5063 -0.2878
13275SOL    HW140403   4.946   7.301   4.463 -1.3064 -0.1260  0.1866
13275SOL    HW240404   5.041   7.204   4.531 -0.2509  0.2916 -0.6563
13276SOL     OW40405   2.022   4.513   3.842 -0.1721  0.0300 -0.3475
13276SOL    HW140406   2.038   4.582   3.906  1.0034  0.3601 -0.9829
13276SOL    HW240407   2.024   4.432   3.894  0.0649  0.3465  0.1452
13277SOL     OW40408   0.223   3.580   9.366 -0.2289 -0.0301  0.1105
13277SOL    HW140409   0.243   3.561   9.457 -2.7519  1.4211  1.0617
13277SOL    HW240410   0.261   3.667   9.351  1.2886 -0.7855 -0.6789
13278SOL     OW40411   4.931   1.708   2.184  0.2146 -0.0763  0.1613
13278SOL    HW140412   4.848   1.754   2.176  0.1325 -0.3994 -1.0429
13278SOL    HW240413   4.907   1.618   2.205  0.3057  0.0315  0.7476
13279SOL     OW40414   6.357   0.325   6.996  0.1354 -0.3728  0.0873
13279SOL    HW140415   6.330   0.349   7.085 -0.5932 -1.1017  0.0720
13279SOL    HW240416   6.451   0.344   6.994  0.2907 -0.9274  1.2018
13280SOL     OW40417   8.301   7.422   6.060 -0.0135 -0.3891 -0.8605
13280SOL    HW140418   8.323   7.382   6.144 -0.6765 -0.5854 -0.7719
13280SOL    HW240419   8.385   7.432   6.015  0.0725 -3.0599 -1.4237
13281SOL     OW40420   9.652   1.972   1.057 -0.3016 -0.0590  0.3447
13281SOL    HW140421   9.651   1.964   1.152  1.0683 -2.0270  0.2594
13281SOL    HW240422   9.740   2.003   1.036  0.5016 -2.5429 -0.3525
13282SOL     OW40423   3.480   3.270   6.773  0.4785  0.3028 -0.0128
13282SOL    HW140424   3.558   3.317   6.746  1.1049 -1.2391 -1.0709
13282SOL    HW240425   3.433   3.330   6.831  1.8687  1.6771 -0.2704
13283SOL     OW40426   9.907   2.036   8.576  0.2494 -0.8114  0.0980
13283SOL    HW140427   9.978   1.980   8.609  0.6990 -0.2164  0.1539
13283SOL    HW240428   9.946   2.083   8.503  0.1041 -0.0217  0.5167
13284SOL     OW40429   5.310   4.057   5.361  0.2770  0.0011  0.3251
13284SOL    HW140430   5.339   3.971   5.330  1.5840  0.2331  0.8352
13284SOL    HW240431   5.361   4.119   5.309  2.8945  0.4016  3.0953
13285SOL     OW40432   0.217   7.537   6.579 -0.4383 -0.4193 -0.0103
13285SOL    HW140433   0.229   7.475   6.651  2.0458  0.1548  0.1436
13285SOL    HW240434   0.235   7.623   6.616  0.9952 -0.1184 -1.2970
13286SOL     OW40435   1.026   8.515   5.817  0.1010  0.2088  0.5383
13286SOL    HW140436   1.065   8.429   5.805  0.6566  0.3800  1.0775
13286SOL    HW240437   0.952   8.500   5.876 -0.0414  0.0483  0.3237
13287SOL     OW40438   1.485   1.005   1.003 -0.3818 -0.8684  0.6278
13287SOL    HW140439   1.435   1.008   1.085 -0.9627  0.7191  0.2403
13287SOL    HW240440   1.434   0.947   0.946 -0.0382 -1.8844  1.3199
13288SOL     OW40441   9.057   5.674   9.633  0.0805  0.2031  0.5677
13288SOL    HW140442   8.961   5.674   9.626  0.1148  2.9736 -2.0034
13288SOL    HW240443   9.078   5.758   9.672  1.4595  1.5264 -2.6830
13289SOL     OW40444   0.435   9.344   5.269  0.0541  0.8996  0.0568
13289SOL    HW140445   0.432   9.251   5.249  0.4527  0.9824 -0.3777
13289SOL    HW240446   0.438   9.348   5.365 -0.6908  0.4875  0.1057
13290SOL     OW40447   0.112   7.780   4.414  0.1621 -0.1191 -0.0295
13290SOL    HW140448   0.175   7.831   4.362 -0.9270  1.2856 -0.0402
13290SOL    HW240449   0.096   7.834   4.491 -0.7160 -0.6498  0.1727
13291SOL     OW40450   7.296   2.189   5.025 -0.4357  0.5680  0.2488
13291SOL    HW140451   7.298   2.099   5.056  1.3888  0.1124 -1.0678
13291SOL    HW240452   7.341   2.239   5.094  0.9703  0.0245 -0.2442
13292SOL     OW40453   8.432   2.815   0.694 -0.6748  0.1106 -0.0534
13292SOL    HW140454   8.399   2.752   0.630  0.4963  0.0959 -0.6648
13292SOL    HW240455   8.411   2.901   0.657 -0.0632  0.1008 -0.4402
13293SOL     OW40456   4.213   6.752   7.974 -0.0427 -0.1881 -0.3902
13293SOL    HW140457   4.240   6.738   8.065  0.1866 -0.8327 -0.5486
13293SOL    HW240458   4.293   6.778   7.929  0.3231 -1.8593 -0.8104
13294SOL     OW40459   0.612   3.685   2.129  0.1307 -0.8447  0.0955
13294SOL    HW140460   0.619   3.689   2.225 -1.4879  2.3916  0.1843
13294SOL    HW240461   0.557   3.608   2.113  0.6071 -1.5881  1.7019
13295SOL     OW40462   6.573   7.281   7.637  0.2525  0.6846  0.1391
13295SOL    HW140463   6.530   7.216   7.693  0.0883 -0.2664 -1.0430
13295SOL    HW240464   6.595   7.233   7.558 -0.7726  2.3096 -1.1891
13296SOL     OW40465   1.076   8.213   5.172 -0.2051  0.4668  0.1349
13296SOL    HW140466   1.059   8.299   5.210  0.5069  1.1313 -0.9884
13296SOL    HW240467   1.171   8.209   5.165 -0.1994 -0.6550  0.6916
13297SOL     OW40468   1.103   7.595   8.615 -0.0695 -0.4738 -0.7707
13297SOL    HW140469   1.033   7.659   8.601 -0.4347 -1.0944 -1.9613
13297SOL    HW240470   1.115   7.593   8.710 -0.4766  0.8919 -0.6653
13298SOL     OW40471   5.930   6.936   6.198 -0.3342 -0.4789  0.6525
13298SOL    HW140472   5.953   6.859   6.249  0.2773  0.3314  1.6302
13298SOL    HW240473   5.844   6.963   6.231  0.5845  0.7667  2.2091
13299SOL     OW40474   2.632   1.377   8.127  0.2979 -0.1041 -0.1159
13299SOL    HW140475   2.666   1.291   8.104  0.0463 -0.2773  0.1573
13299SOL    HW240476   2.706   1.437   8.112  0.5846 -0.4159  0.0418
13300SOL     OW40477   1.060   4.889   5.765  1.1927  0.2448  0.1879
13300SOL    HW140478   1.018   4.941   5.696 -1.2998 -1.0113  0.6741
13300SOL    HW240479   1.079   4.805   5.724  3.2358  0.7294  0.0216
13301SOL     OW40480   7.492   3.534   7.655 -0.3427  0.3521 -0.0714
13301SOL    HW140481   7.544   3.522   7.735  0.4422  2.8347 -0.1239
13301SOL    HW240482   7.458   3.624   7.663 -1.5188  0.0965 -1.8266
13302SOL     OW40483   1.589   1.339   8.455  0.5839 -0.0067 -0.4416
13302SOL    HW140484   1.566   1.429   8.430  2.2411  0.2213 -1.2789
13302SOL    HW240485   1.506   1.298   8.478 -0.3467  1.3917 -1.2094
13303SOL     OW40486   8.036   6.103   6.895  0.2045  0.0728  0.3838
13303SOL    HW140487   8.022   6.139   6.808 -0.5732 -1.7338 -0.2811
13303SOL    HW240488   7.949   6.079   6.926  0.6979 -1.5301  0.6272
13304SOL     OW40489   9.773   3.446   5.739  0.2770  0.5380 -0.0521
13304SOL    HW140490   9.815   3.532   5.747 -1.2184  1.3259 -0.3954
13304SOL    HW240491   9.733   3.447   5.653 -0.6871 -0.0856  0.3793
13305SOL     OW40492   8.287   9.140   8.816  0.5665  0.4087  0.2391
13305SOL    HW140493   8.234   9.093   8.880  0.5239 -2.2402 -1.5684
13305SOL    HW240494   8.244   9.225   8.806 -1.2068 -0.3075  1.4232
13306SOL     OW40495   9.111   9.937   5.386  0.2572  0.2994 -0.1770
13306SOL    HW140496   9.192   9.947   5.335  0.8183 -1.0880  0.3922
13306SOL    HW240497   9.084  10.027   5.406  2.1597  0.7824  0.3966
13307SOL     OW40498   4.074   4.373   5.110 -0.2583  0.0929  0.5158
13307SOL    HW140499   4.049   4.348   5.199  2.5270 -0.8777  1.1365
13307SOL    HW240500   4.133   4.448   5.122 -0.0789  0.1385 -0.5320
13308SOL     OW40501   4.987   9.168   6.224  0.3359  0.2636  0.4265
13308SOL    HW140502   5.013   9.206   6.308  3.9554  0.3518 -0.5712
13308SOL    HW240503   4.964   9.077   6.246  2.1881 -0.0153  1.4522
13309SOL     OW40504   3.302   4.832   4.985 -0.0676  0.1638 -0.3103
13309SOL    HW140505   3.269   4.866   5.068  2.1514 -0.5835  0.9557
13309SOL    HW240506   3.346   4.906   4.944 -1.7810  0.7265 -1.2253
13310SOL     OW40507   6.384   8.387   4.923 -0.8824 -0.4006 -0.1067
13310SOL    HW140508   6.405   8.352   4.836  3.8725 -2.5101  1.5338
13310SOL    HW240509   6.355   8.311   4.973 -1.0659  0.2602  0.8052
13311SOL     OW40510   7.583   9.472   8.194 -0.1629 -0.2280  0.2023
13311SOL    HW140511   7.636   9.415   8.251  0.3102 -1.1284 -1.0780
13311SOL    HW240512   7.642   9.544   8.171  0.2695 -0.8080 -0.5704
13312SOL     OW40513   2.662   4.495   0.374 -0.0574 -0.1995 -0.5769
13312SOL    HW140514   2.751   4.466   0.393 -0.0890 -1.1009 -1.7407
13312SOL    HW240515   2.644   4.563   0.440  0.4399 -1.9663  1.4668
13313SOL     OW40516   9.175   8.757   5.208 -0.5312  0.0148  0.0849
13313SOL    HW140517   9.148   8.757   5.116 -0.2482  0.1099  0.0013
13313SOL    HW240518   9.266   8.728   5.206  0.1732  2.0162  0.1246
13314SOL     OW40519   5.409   0.110   1.224  0.0567  0.7299  0.2874
13314SOL    HW140520   5.322   0.146   1.212 -1.1649 -2.1169 -0.3392
13314SOL    HW240521   5.395   0.029   1.273  2.0894 -0.6881 -1.2685
13315SOL     OW40522   6.755   2.856   4.417 -0.3341  0.1829  0.3449
13315SOL    HW140523   6.747   2.856   4.322  3.3437 -0.1207 -0.0850
13315SOL    HW240524   6.672   2.819   4.448 -1.9957  1.1178 -2.6406
13316SOL     OW40525   2.158   8.423   2.541 -0.4336 -0.3036 -0.0265
13316SOL    HW140526   2.178   8.512   2.511  0.1151 -0.6039 -0.5700
13316SOL    HW240527   2.065   8.426   2.563 -0.2980  0.5458  0.4797
13317SOL     OW40528   1.137   2.925   4.391 -0.0509 -0.1976 -0.4459
13317SOL    HW140529   1.158   2.884   4.475 -0.3440 -1.6353 -1.0365
13317SOL    HW240530   1.077   2.995   4.413  0.9659  0.3537  0.6802
13318SOL     OW40531   4.327   4.124   6.929  0.1212  0.2555 -0.2346
13318SOL    HW140532   4.339   4.155   6.839  0.2430  0.0166 -0.3008
13318SOL    HW240533   4.251   4.173   6.961  0.0769  0.3411 -0.4681
13319SOL     OW40534   0.158   1.385   6.748  0.0978  0.0561  0.1654
13319SOL    HW140535   0.212   1.405   6.824  1.6609  0.4456 -0.9892
13319SOL    HW240536   0.165   1.463   6.693  0.2969 -0.8159 -1.0853
13320SOL     OW40537   2.922   9.953   9.029  0.4228 -0.5349 -0.3410
13320SOL    HW140538   2.881   9.867   9.013 -1.3032  0.0249  0.7384
13320SOL    HW240539   2.914   9.999   8.945 -0.8031 -0.6194 -0.2968
13321SOL     OW40540   0.177   0.987   1.802  0.5967 -0.2725 -0.1518
13321SOL    HW140541   0.211   0.996   1.891 -1.5602  0.4940  0.6561
13321SOL    HW240542   0.130   0.904   1.803 -2.0355  1.1415  0.4115
13322SOL     OW40543   0.542   5.030   4.151  0.1194 -0.4070  0.2324
13322SOL    HW140544   0.594   5.033   4.071 -1.4490  0.3589 -0.8079
13322SOL    HW240545   0.541   5.120   4.182 -0.7892 -0.3487  0.0713
13323SOL     OW40546   6.466   9.506   1.135 -0.1648 -0.1815  0.2266
13323SOL    HW140547   6.395   9.547   1.184  0.0212 -0.1966  0.5120
13323SOL    HW240548   6.469   9.416   1.169 -0.0536 -0.1997  0.1674
13324SOL     OW40549   1.854   3.361   0.528  0.0639  0.5908  0.1148
13324SOL    HW140550   1.805   3.279   0.530  0.7807  0.0285 -2.1827
13324SOL    HW240551   1.895   3.367   0.614 -0.6218 -1.0804  0.5839
13325SOL     OW40552   6.996   5.574   0.979 -0.1222  0.0949  0.0094
13325SOL    HW140553   6.911   5.535   0.997  0.3415  0.2175  2.8765
13325SOL    HW240554   6.982   5.668   0.991  0.4408  0.0959  0.7544
13326SOL     OW40555   8.895   7.730   3.187 -0.6267 -0.5964 -0.2276
13326SOL    HW140556   8.932   7.693   3.267 -1.3185  0.4352  0.5887
13326SOL    HW240557   8.853   7.655   3.143 -1.0142 -1.0027  0.8156
13327SOL     OW40558   0.730   4.909   3.626  0.4134  0.1020 -0.3085
13327SOL    HW140559   0.703   4.890   3.536  1.8258 -0.0752 -0.7163
13327SOL    HW240560   0.731   5.005   3.631  2.6319  0.1957 -1.2645
13328SOL     OW40561   9.211   8.540   5.773 -0.1060  0.1465  0.1471
13328SOL    HW140562   9.140   8.479   5.754 -0.8164  0.9796  0.0476
13328SOL    HW240563   9.200   8.610   5.709  0.5030  0.5276  0.4506
13329SOL     OW40564   7.352   6.878   1.770  0.1693  0.3651 -0.1824
13329SOL    HW140565   7.317   6.904   1.684  0.2818  2.1802  0.2976
13329SOL    HW240566   7.286   6.819   1.805 -0.8601  1.1916 -0.6749
13330SOL     OW40567   9.357   4.371   2.713  0.0641  0.0337  0.0206
13330SOL    HW140568   9.335   4.352   2.804  0.5237 -3.1445 -0.4115
13330SOL    HW240569   9.281   4.340   2.663  1.5014 -2.3653 -0.8644
13331SOL     OW40570   4.417   1.144   0.216  0.0315 -0.1818 -0.5533
13331SOL    HW140571   4.413   1.144   0.312  1.0352  0.8448 -0.4876
13331SOL    HW240572   4.405   1.052   0.192 -2.5670 -0.1976  0.3987
13332SOL     OW40573   8.022   8.289   0.280 -0.4230 -0.5099 -0.1822
13332SOL    HW140574   7.956   8.346   0.240 -0.2020  1.3201  1.9221
13332SOL    HW240575   8.051   8.232   0.208 -2.2340  0.5397 -1.8287
13333SOL     OW40576   6.034   4.162   1.559  0.2079 -0.0815 -0.3049
13333SOL    HW140577   6.118   4.132   1.592  0.0165 -0.0905  0.1835
13333SOL    HW240578   5.970   4.131   1.623 -0.2008 -0.3145 -0.8133
13334SOL     OW40579   7.401   7.465   5.129 -0.1530 -0.0324  0.3070
13334SOL    HW140580   7.389   7.559   5.115 -0.9347 -0.2858 -0.8614
13334SOL    HW240581   7.347   7.444   5.205  0.3189  0.5171  0.8036
13335SOL     OW40582   8.843   7.411   4.032 -0.0976 -0.2971 -0.0893
13335SOL    HW140583   8.769   7.439   4.086 -1.6100 -1.0749 -1.6360
13335SOL    HW240584   8.915   7.399   4.093 -1.1250  0.9125  1.4309
13336SOL     OW40585   9.405   6.513   1.508 -0.1284 -0.7266  0.0710
13336SOL    HW140586   9.345   6.571   1.554  0.3768  1.3335 -1.6920
13336SOL    HW240587   9.489   6.525   1.552  0.1568  0.5833 -0.7605
13337SOL     OW40588   0.879   5.141   9.275  0.0780  0.2609  0.4896
13337SOL    HW140589   0.816   5.098   9.217 -0.1342  0.2181  0.7537
13337SOL    HW240590   0.837   5.223   9.301  0.9509  1.2145 -0.9497
13338SOL     OW40591   6.980   2.636   3.307  0.3334  0.1667  0.0172
13338SOL    HW140592   7.032   2.595   3.238 -1.0211 -0.3838 -0.7136
13338SOL    HW240593   7.027   2.718   3.327  0.2357  0.8514 -2.2988
13339SOL     OW40594   3.508   3.222   8.429 -0.2430 -0.5124  0.4767
13339SOL    HW140595   3.517   3.131   8.400 -1.0115 -1.2440  2.4006
13339SOL    HW240596   3.588   3.238   8.479 -0.2102 -0.1784  0.3195
13340SOL     OW40597   7.678   5.829   0.046  0.3790 -0.2765  0.0013
13340SOL    HW140598   7.658   5.736   0.060  1.5940 -0.2519  2.4107
13340SOL    HW240599   7.772   5.830   0.028  0.7989  0.5951  2.0171
13341SOL     OW40600   7.242   3.788   3.625 -0.1749  0.0497 -0.0811
13341SOL    HW140601   7.307   3.858   3.624  0.0756 -0.1728  0.3036
13341SOL    HW240602   7.220   3.774   3.533  0.7174 -0.2301 -0.2587
13342SOL     OW40603   4.463   5.270   6.430  0.2003 -0.7719  0.1376
13342SOL    HW140604   4.517   5.315   6.365 -0.4645 -0.6563 -0.3514
13342SOL    HW240605   4.490   5.306   6.514  0.7020 -0.5370 -0.1209
13343SOL     OW40606   9.446   0.619   0.166  0.0637 -0.1671  0.1714
13343SOL    HW140607   9.492   0.691   0.124  2.1909 -1.6840 -0.2785
13343SOL    HW240608   9.483   0.614   0.254 -1.9812  0.8810  1.1667
13344SOL     OW40609   3.127   3.704   7.709  0.0668 -0.1118 -0.1313
13344SOL    HW140610   3.072   3.651   7.767  0.4242  1.3561  1.6652
13344SOL    HW240611   3.122   3.660   7.624 -2.5783 -0.9343  0.3359
13345SOL     OW40612   9.651   8.357   9.381 -0.3083  1.0045  0.0804
13345SOL    HW140613   9.555   8.359   9.381 -0.3992 -0.9216  0.8147
13345SOL    HW240614   9.676   8.400   9.462 -0.4832  2.1841 -0.4622
13346SOL     OW40615   5.579   6.809   4.047 -0.4691  0.1525 -0.2686
13346SOL    HW140616   5.509   6.745   4.037 -0.0068 -0.1308 -2.1381
13346SOL    HW240617   5.601   6.835   3.957  1.5526  0.5142  0.2699
13347SOL     OW40618   1.419   5.392   8.441  0.8014 -0.0190  0.6238
13347SOL    HW140619   1.333   5.390   8.484  0.9565  1.0186  1.0040
13347SOL    HW240620   1.401   5.360   8.352 -0.6284  3.0500 -0.3319
13348SOL     OW40621   3.867   0.906   8.453  0.3868 -0.3833  0.1104
13348SOL    HW140622   3.924   0.983   8.446  0.8847 -0.7822 -0.2592
13348SOL    HW240623   3.840   0.906   8.545 -2.5749  2.2964 -0.6046
13349SOL     OW40624   1.484   5.123   3.030 -0.4643 -0.1252  0.1820
13349SOL    HW140625   1.446   5.041   3.062  0.0593 -0.2975  0.3629
13349SOL    HW240626   1.570   5.099   2.996 -0.3087  0.3502  0.2321
13350SOL     OW40627   3.249   7.855   2.005 -0.2952 -0.6556 -0.2285
13350SOL    HW140628   3.255   7.780   1.946 -1.6404  0.9391 -2.5878
13350SOL    HW240629   3.276   7.930   1.952  1.2515  0.5618  2.1050
13351SOL     OW40630   5.808   7.709   3.346 -0.3628  0.1973  0.2303
13351SOL    HW140631   5.827   7.767   3.273  0.6893 -0.3133  0.0872
13351SOL    HW240632   5.753   7.640   3.308  2.0728 -1.3489 -0.6662
13352SOL     OW40633   5.359   2.050   2.399  0.4162  0.1946  0.3226
13352SOL    HW140634   5.366   2.043   2.494  4.1793 -1.0452  0.1396
13352SOL    HW240635   5.383   1.964   2.366  1.1592  1.1134 -1.7523
13353SOL     OW40636   9.688   7.662   0.682 -0.1025  0.1454 -0.1414
13353SOL    HW140637   9.666   7.720   0.756 -0.4471  0.9779 -0.8814
13353SOL    HW240638   9.637   7.696   0.609 -2.1095 -2.4918 -0.0890
13354SOL     OW40639   4.989   0.394   3.579  0.8361 -0.1611 -0.4707
13354SOL    HW140640   5.026   0.348   3.503  1.3155 -0.6379  0.0401
13354SOL    HW240641   5.063   0.443   3.615  1.0636 -1.3159  0.7105
13355SOL     OW40642   7.344   7.531   7.451 -0.1372  0.9394  0.6898
13355SOL    HW140643   7.326   7.552   7.542 -0.2849  0.8647  0.6789
13355SOL    HW240644   7.404   7.599   7.421  0.5299  0.5326  1.0616
13356SOL     OW40645   7.806   2.020   4.790  0.0267 -1.0992 -1.0322
13356SOL    HW140646   7.883   1.975   4.825  0.0069  0.2805  0.9405
13356SOL    HW240647   7.838   2.105   4.762 -0.6855 -0.6343 -0.4909
13357SOL     OW40648   0.914   0.626   3.342 -0.1078 -0.3007  0.2099
13357SOL    HW140649   0.949   0.569   3.274  1.8472  1.3763 -0.3112
13357SOL    HW240650   0.987   0.637   3.404 -1.4403 -0.7998  1.9459
13358SOL     OW40651   0.276   2.094   6.903  0.3295  0.5280  0.0943
13358SOL    HW140652   0.263   2.118   6.812  0.4897  0.9328  0.1758
13358SOL    HW240653   0.247   2.171   6.953 -0.9837 -0.1710  0.4458
13359SOL     OW40654   9.524   5.608   8.039  0.0548 -0.1147  0.3507
13359SOL    HW140655   9.595   5.628   8.100  0.6562  2.1695 -0.9883
13359SOL    HW240656   9.567   5.568   7.964 -0.1388  0.6696 -0.1890
13360SOL     OW40657   1.109   7.368   1.183 -0.0909 -0.3317  0.0143
13360SOL    HW140658   1.105   7.313   1.105  1.3286 -0.4660  0.0074
13360SOL    HW240659   1.141   7.452   1.151  1.7282 -0.7635  0.6031
13361SOL     OW40660   9.025   2.742   5.701 -0.2901  0.4094  0.2792
13361SOL    HW140661   9.014   2.652   5.671 -2.1246  0.8558 -0.5292
13361SOL    HW240662   9.101   2.739   5.759 -0.1622 -1.5975  0.0768
13362SOL     OW40663   9.516   5.527   9.294 -0.2870  0.0941  0.2926
13362SOL    HW140664   9.484   5.472   9.365  1.4623 -0.5764  0.5977
13362SOL    HW240665   9.560   5.600   9.338 -0.7659  0.6512 -0.1250
13363SOL     OW40666   0.240   3.532   4.784 -0.1829 -0.6409  0.4645
13363SOL    HW140667   0.283   3.456   4.824  0.8841 -0.8104 -0.9189
13363SOL    HW240668   0.279   3.538   4.697 -1.2860  0.6564  0.0311
13364SOL     OW40669   5.381   5.974   9.155  0.4661 -0.4864  0.1458
13364SOL    HW140670   5.309   5.943   9.100 -0.4102  1.4648  0.1141
13364SOL    HW240671   5.338   6.015   9.230  1.4804  1.5829 -0.3487
13365SOL     OW40672   4.636   0.948   9.053  0.2999 -0.6146 -0.8504
13365SOL    HW140673   4.589   0.990   9.125  1.3053  0.6162 -0.8911
13365SOL    HW240674   4.670   0.867   9.092  1.4996  0.4029  0.3071
13366SOL     OW40675   5.506   9.343   9.394 -0.2786  0.2958  0.2405
13366SOL    HW140676   5.513   9.434   9.423  1.9046 -0.2985  1.8855
13366SOL    HW240677   5.506   9.292   9.475  3.2873 -1.3355 -0.5929
13367SOL     OW40678   6.869   4.102   4.938  0.1960 -0.7322 -0.0808
13367SOL    HW140679   6.844   4.056   5.018 -1.4671  0.7599  0.3256
13367SOL    HW240680   6.816   4.181   4.939  1.3141  0.0985 -1.8796
13368SOL     OW40681   4.359   9.496   6.567  0.4022  0.3179  0.4304
13368SOL    HW140682   4.376   9.421   6.624  2.0064 -0.2273 -0.6960
13368SOL    HW240683   4.369   9.572   6.624  1.6909 -0.2259  0.9663
13369SOL     OW40684   5.289   3.378   3.195  0.3857 -0.7930 -0.0833
13369SOL    HW140685   5.318   3.288   3.211 -1.5869 -1.3711  0.5660
13369SOL    HW240686   5.287   3.387   3.100 -1.7262 -2.3054 -0.2403
13370SOL     OW40687   1.637   7.472   1.519  0.3094  0.7698 -0.2131
13370SOL    HW140688   1.573   7.438   1.457  0.0474  0.2738  0.3257
13370SOL    HW240689   1.708   7.507   1.464  0.6282 -0.7077 -0.7752
13371SOL     OW40690   5.982   1.863   4.964 -0.1253  0.0232  0.3583
13371SOL    HW140691   6.028   1.831   5.041  1.2399  0.8186 -0.0705
13371SOL    HW240692   5.890   1.867   4.989  0.2490 -0.0790  1.8178
13372SOL     OW40693   3.410   9.808   7.324  0.1230  0.0713 -0.3965
13372SOL    HW140694   3.381   9.717   7.328 -1.6377  0.6407  1.1143
13372SOL    HW240695   3.357   9.848   7.255  0.2611  0.1473 -0.4582
13373SOL     OW40696   0.396   0.389   1.031  0.1845 -0.7889  0.3731
13373SOL    HW140697   0.377   0.471   1.077  2.3967 -1.0691  1.9193
13373SOL    HW240698   0.313   0.341   1.034 -0.9144  1.0043  0.1791
13374SOL     OW40699   2.407   3.640   3.860  0.2245 -0.9793 -0.1226
13374SOL    HW140700   2.486   3.682   3.894 -0.5448  1.2242 -0.8426
13374SOL    HW240701   2.394   3.564   3.916  1.3997  0.0785  1.7015
13375SOL     OW40702   9.061   6.450   1.182  0.9054  0.2420 -0.3170
13375SOL    HW140703   9.102   6.443   1.268 -0.5710  0.1567  0.4231
13375SOL    HW240704   8.975   6.488   1.200  1.3836  2.3640 -2.0116
13376SOL     OW40705   5.219   4.876   8.891 -0.5518  0.4639  0.0666
13376SOL    HW140706   5.301   4.830   8.906  0.3063  1.1883 -2.0818
13376SOL    HW240707   5.233   4.964   8.927  0.9869  1.7295 -3.1731
13377SOL     OW40708   7.501   2.316   7.961 -0.8038  0.4280 -0.0795
13377SOL    HW140709   7.560   2.247   7.932 -0.4524  0.6971 -0.0063
13377SOL    HW240710   7.445   2.274   8.026 -2.0856 -0.3802 -1.6405
13378SOL     OW40711   9.238   6.490   4.968 -0.3947  0.7129 -0.0724
13378SOL    HW140712   9.308   6.496   5.033  0.3409  0.4035 -0.8133
13378SOL    HW240713   9.187   6.413   4.995  1.4726 -1.0796 -1.2789
13379SOL     OW40714   6.962   8.980   3.531 -0.1196 -0.3473  0.3247
13379SOL    HW140715   7.014   8.908   3.567 -0.0465 -0.6645 -0.4037
13379SOL    HW240716   6.996   8.992   3.443 -0.8276 -0.1068  0.0788
13380SOL     OW40717   3.466   3.866   1.497  0.2866 -0.0672 -1.0802
13380SOL    HW140718   3.480   3.823   1.582  4.2397  2.5057 -0.1254
13380SOL    HW240719   3.417   3.802   1.446 -2.0405 -1.9131  2.9308
13381SOL     OW40720   8.535   4.555   5.162 -0.0160  0.3080 -0.3006
13381SOL    HW140721   8.455   4.603   5.184 -1.6457 -1.7390 -1.3453
13381SOL    HW240722   8.605   4.620   5.168 -1.6779  2.0757  1.1231
13382SOL     OW40723   8.514   7.045   4.593  0.8111 -0.2333 -0.0045
13382SOL    HW140724   8.594   7.084   4.630  2.0649 -2.5470 -0.1294
13382SOL    HW240725   8.454   7.120   4.583  2.2655  1.2966  1.8066
13383SOL     OW40726   6.842   3.632   1.783 -0.5813  0.0617  0.6786
13383SOL    HW140727   6.894   3.596   1.711 -0.0963  0.2404  0.9331
13383SOL    HW240728   6.751   3.621   1.755 -0.4125 -0.4253  0.3082
13384SOL     OW40729   7.279   4.691   0.190  0.3149  0.3392  0.4434
13384SOL    HW140730   7.270   4.652   0.103 -2.2560  0.6228  0.5036
13384SOL    HW240731   7.316   4.778   0.174  0.7933  0.0162 -0.2493
13385SOL     OW40732   8.502   8.623   0.391  0.3829 -0.3957 -0.2219
13385SOL    HW140733   8.536   8.591   0.308 -2.3894 -0.8271 -1.3085
13385SOL    HW240734   8.481   8.544   0.441  1.6755 -0.1382  0.7771
13386SOL     OW40735   8.706   9.368   2.553 -0.2854 -1.0245 -0.3379
13386SOL    HW140736   8.620   9.345   2.517 -1.8054  0.4355  2.0464
13386SOL    HW240737   8.722   9.457   2.522 -0.7442 -0.4593  0.9467
13387SOL     OW40738   5.559   6.344   2.622 -0.1290  0.0843  0.2157
13387SOL    HW140739   5.494   6.304   2.680  0.2429 -0.9379 -0.0401
13387SOL    HW240740   5.562   6.435   2.648 -0.8896 -0.0908  0.9509
13388SOL     OW40741   3.700   6.878   3.049  0.1131 -0.3019  0.1052
13388SOL    HW140742   3.744   6.896   3.132 -2.0422  0.1076  1.2363
13388SOL    HW240743   3.713   6.957   2.997  1.8824 -0.7444 -0.1538
13389SOL     OW40744   7.275   3.226   1.939 -0.3111  0.1970 -0.3760
13389SOL    HW140745   7.298   3.157   1.877 -0.5132  1.0930 -1.4863
13389SOL    HW240746   7.298   3.190   2.025 -0.1364 -1.1204 -0.9517
13390SOL     OW40747   0.601   2.000   9.643  0.2147 -0.0689  0.0018
13390SOL    HW140748   0.586   2.037   9.556  0.8771 -1.3473 -0.6858
13390SOL    HW240749   0.695   2.006   9.655 -0.0188  1.7744  1.4516
13391SOL     OW40750   4.017   0.132   7.780 -0.1268 -0.7005  0.1633
13391SOL    HW140751   3.936   0.166   7.742 -0.3296 -1.0398  0.2890
13391SOL    HW240752   4.086   0.189   7.744 -0.3932 -0.5489 -0.1163
13392SOL     OW40753   8.362   8.523   7.919  0.1092 -0.1615  0.4770
13392SOL    HW140754   8.328   8.554   8.003  0.2283 -1.9614  1.2299
13392SOL    HW240755   8.457   8.537   7.925  0.4323 -2.4753  1.6762
13393SOL     OW40756   9.696   3.189   1.866 -0.0284 -0.3238 -0.0407
13393SOL    HW140757   9.784   3.213   1.892 -0.3383  2.2139 -1.0232
13393SOL    HW240758   9.683   3.233   1.782 -2.0907 -0.9348 -0.1063
13394SOL     OW40759   4.788   5.497   6.057 -0.0629  0.1010  0.1313
13394SOL    HW140760   4.847   5.466   5.990  1.8339 -1.0985  2.2140
13394SOL    HW240761   4.838   5.564   6.105 -0.9526  0.2048  0.9604
13395SOL     OW40762   7.172   2.633   2.089 -0.1210  0.3599 -0.0709
13395SOL    HW140763   7.144   2.724   2.080 -2.2584 -0.3390 -1.2694
13395SOL    HW240764   7.242   2.622   2.025  0.1007  1.1478  0.0378
13396SOL     OW40765   2.325   2.057   3.477  0.2610  0.0660  0.4236
13396SOL    HW140766   2.307   2.040   3.570 -1.1899  1.4811  0.4437
13396SOL    HW240767   2.263   2.000   3.430  0.2985  0.0871  0.3488
13397SOL     OW40768   0.931   8.143   4.356  0.9848 -0.4211  0.6475
13397SOL    HW140769   0.968   8.199   4.424 -0.8692  0.1536  1.2356
13397SOL    HW240770   0.856   8.192   4.323  0.0893 -1.9962  0.2583
13398SOL     OW40771   9.137   5.519   9.928 -0.1368 -0.0959  0.5053
13398SOL    HW140772   9.092   5.571   9.862  0.3281 -0.2529  0.0627
13398SOL    HW240773   9.192   5.582   9.975 -2.2956  0.4944  2.3986
13399SOL     OW40774   3.451   0.562   7.322 -0.5418 -0.4431 -0.2114
13399SOL    HW140775   3.407   0.505   7.259  0.9717 -1.4324 -0.4152
13399SOL    HW240776   3.453   0.512   7.404 -0.6060 -0.0323  0.0479
13400SOL     OW40777   1.482   6.704   7.499  0.4402  0.5304  0.1978
13400SOL    HW140778   1.535   6.784   7.487  1.9813 -0.4083  0.4554
13400SOL    HW240779   1.446   6.687   7.412  0.1417  1.4684  0.1243
13401SOL     OW40780   4.937   3.313   3.284 -0.0623 -0.6568 -0.0749
13401SOL    HW140781   4.987   3.344   3.207  1.0190  0.2367  0.9411
13401SOL    HW240782   5.001   3.262   3.334 -1.2452 -2.8010 -0.6163
13402SOL     OW40783   3.438   9.323   4.062 -0.6567  0.4362  0.2135
13402SOL    HW140784   3.415   9.387   3.995  0.5335  0.8304  0.1611
13402SOL    HW240785   3.381   9.248   4.044  1.1200 -0.3815 -2.6807
13403SOL     OW40786   4.706   9.871   3.273  0.1467  0.0189 -0.4229
13403SOL    HW140787   4.678   9.834   3.357  1.1436 -0.3561 -0.2445
13403SOL    HW240788   4.741   9.957   3.297 -1.8730  1.0212 -0.7957
13404SOL     OW40789   0.654   8.241   6.024 -0.1805  0.1205 -0.1773
13404SOL    HW140790   0.620   8.281   6.103 -1.2401 -1.2344  0.1014
13404SOL    HW240791   0.576   8.210   5.977  0.3611  1.4671 -2.1036
13405SOL     OW40792   0.991   1.106   0.207 -0.0179 -0.0743 -0.0992
13405SOL    HW140793   0.935   1.183   0.198  0.3405  0.0401 -1.6522
13405SOL    HW240794   0.961   1.046   0.139  0.3495 -0.9038  0.4544
13406SOL     OW40795   7.331   3.413   9.344  0.0254  0.1127 -0.7053
13406SOL    HW140796   7.374   3.391   9.261  1.3985 -1.6778  0.3963
13406SOL    HW240797   7.274   3.338   9.363 -1.1698  1.0217 -0.5583
13407SOL     OW40798   3.343   2.123   8.790  0.1199 -0.4931  0.0449
13407SOL    HW140799   3.306   2.189   8.848 -0.0439 -0.4760 -0.0776
13407SOL    HW240800   3.438   2.131   8.802  0.1045 -0.1898 -0.0198
13408SOL     OW40801   3.140   9.596   2.733  0.0916 -0.2066  0.3171
13408SOL    HW140802   3.112   9.681   2.767  0.9038 -0.5100  1.8314
13408SOL    HW240803   3.235   9.602   2.728  0.1569 -1.0190  0.4145
13409SOL     OW40804   7.566   3.349   6.739  0.0717 -0.2636  0.5355
13409SOL    HW140805   7.543   3.441   6.749  1.6027  0.2009  0.0337
13409SOL    HW240806   7.482   3.304   6.733 -0.7047  1.0591  1.0586
13410SOL     OW40807   7.035   5.937   9.214  0.3145  0.1019 -0.5427
13410SOL    HW140808   6.994   5.852   9.233  3.6230 -1.6717 -0.5625
13410SOL    HW240809   7.055   5.974   9.300 -0.1177  0.3391 -0.5419
13411SOL     OW40810   8.578   7.919   3.328  0.6024 -0.2434  0.0507
13411SOL    HW140811   8.649   7.955   3.274 -0.2264  1.7348  0.1943
13411SOL    HW240812   8.537   7.853   3.272  2.2742 -1.1274 -0.1831
13412SOL     OW40813   5.964   8.417   4.328  0.0523  0.3304 -0.4960
13412SOL    HW140814   6.021   8.370   4.389 -3.2773  1.9834  4.6249
13412SOL    HW240815   5.987   8.509   4.340 -0.2255  0.6956 -2.4553
13413SOL     OW40816   8.628   7.124   5.235  0.2088  0.0103  0.0078
13413SOL    HW140817   8.710   7.134   5.187  0.2667  0.6382  0.2298
13413SOL    HW240818   8.597   7.036   5.211 -0.1481  0.5856 -1.8039
13414SOL     OW40819   1.292   9.244   2.200  0.0801 -0.7053  0.3621
13414SOL    HW140820   1.220   9.182   2.200 -1.0241  0.5339  0.5488
13414SOL    HW240821   1.367   9.194   2.232 -0.5042 -2.2171 -0.5313
13415SOL     OW40822   6.369   3.109   5.141  0.7178  0.0665 -0.1861
13415SOL    HW140823   6.344   3.051   5.070 -0.7363  0.4243  0.0066
13415SOL    HW240824   6.338   3.065   5.220  1.0114  0.3722  0.1049
13416SOL     OW40825   7.137   3.668   8.673  0.3928  0.5320 -0.2672
13416SOL    HW140826   7.060   3.671   8.616  0.7171 -0.1950 -0.7620
13416SOL    HW240827   7.205   3.715   8.624  0.5899  0.1629 -0.3476
13417SOL     OW40828   8.486   1.705   8.325 -0.2594 -0.1766 -0.3085
13417SOL    HW140829   8.521   1.757   8.252 -0.0812  0.4617  0.2267
13417SOL    HW240830   8.543   1.629   8.330  1.1297  0.8849  0.6009
13418SOL     OW40831   0.978   3.878   0.951 -0.0951  0.5529 -0.3601
13418SOL    HW140832   1.033   3.923   1.015 -2.1210  0.4375  1.5886
13418SOL    HW240833   0.890   3.911   0.968 -0.9302 -0.6109 -2.1296
13419SOL     OW40834   3.702   8.393   2.063  0.1108 -0.3762  0.4875
13419SOL    HW140835   3.620   8.411   2.107  0.0580 -0.6066  0.4838
13419SOL    HW240836   3.711   8.463   1.998  0.2028 -0.0234  0.8791
13420SOL     OW40837   6.744   9.858   6.801  0.5547  0.3362 -0.3435
13420SOL    HW140838   6.705   9.944   6.820 -0.8190  0.2164 -2.2424
13420SOL    HW240839   6.681   9.795   6.835  0.5603  0.1122 -0.7399
13421SOL     OW40840   0.476   5.959   7.248  0.1514  0.5445  0.0306
13421SOL    HW140841   0.401   5.958   7.188  0.3926 -0.7546 -0.2945
13421SOL    HW240842   0.530   6.032   7.218  0.2586 -0.0636 -1.3421
13422SOL     OW40843   9.620   8.531   4.860 -0.0152 -0.1436  0.2983
13422SOL    HW140844   9.703   8.505   4.899  0.2962  0.3201 -0.0345
13422SOL    HW240845   9.614   8.479   4.780  0.3103  0.3230 -0.0461
13423SOL     OW40846   0.349   3.305   2.645  0.5445 -0.2066 -0.3456
13423SOL    HW140847   0.268   3.352   2.666  1.3109 -0.1163  2.8849
13423SOL    HW240848   0.326   3.213   2.655  0.4076 -0.2938 -1.3360
13424SOL     OW40849   5.852   9.610   6.710  0.0932 -0.4213 -0.2494
13424SOL    HW140850   5.827   9.520   6.733 -0.8879 -0.6970 -2.1714
13424SOL    HW240851   5.772   9.661   6.724  0.2491 -0.1141 -0.4729
13425SOL     OW40852   6.465   1.371   9.379  0.1481  0.0411  0.1846
13425SOL    HW140853   6.486   1.318   9.301  3.7978 -0.8966  1.6034
13425SOL    HW240854   6.443   1.457   9.344  1.4657 -0.4034 -1.9523
13426SOL     OW40855   5.721   0.568   7.212  0.4899 -0.0288  0.1572
13426SOL    HW140856   5.728   0.652   7.166  0.2568  0.1056  0.3708
13426SOL    HW240857   5.636   0.571   7.256  1.2289  0.3555  1.6131
13427SOL     OW40858   8.731   8.423   7.262  0.5440 -0.1290 -0.3721
13427SOL    HW140859   8.669   8.456   7.197  1.0984 -0.8205 -1.2723
13427SOL    HW240860   8.758   8.501   7.311 -0.0540  0.3654 -0.8150
13428SOL     OW40861   1.626   8.540   9.257  0.2493 -0.2149  0.0019
13428SOL    HW140862   1.667   8.459   9.286 -0.5205 -0.5593  0.1526
13428SOL    HW240863   1.542   8.542   9.303  0.4949  0.9516  0.4461
13429SOL     OW40864   5.813   6.910   0.397 -0.2949  0.0773 -0.0102
13429SOL    HW140865   5.860   6.924   0.315 -0.1636  0.0528  0.0605
13429SOL    HW240866   5.749   6.981   0.400  0.9009  1.1908  0.7289
13430SOL     OW40867   1.426   2.983   0.381 -0.3558 -0.2401  0.3726
13430SOL    HW140868   1.349   2.941   0.343 -0.3822  0.0520  0.0984
13430SOL    HW240869   1.470   3.023   0.306 -0.4861  0.4711  0.6714
13431SOL     OW40870   3.171   7.864   2.277 -0.0420 -0.1628 -0.1982
13431SOL    HW140871   3.183   7.867   2.182  2.7948  1.2602  0.1208
13431SOL    HW240872   3.122   7.944   2.298 -0.1784 -0.1974 -0.3752
13432SOL     OW40873   1.581   8.371   3.336 -0.4222  0.0092 -0.3940
13432SOL    HW140874   1.536   8.304   3.285 -1.4491 -0.3319  0.8780
13432SOL    HW240875   1.509   8.423   3.374  0.3408  1.4628 -0.8765
13433SOL     OW40876   9.831   8.352   2.694  0.2072 -0.0418 -0.0528
13433SOL    HW140877   9.893   8.281   2.714 -0.3168  0.0674  2.3334
13433SOL    HW240878   9.807   8.338   2.603  2.7441 -0.8541 -0.6917
13434SOL     OW40879   4.288   2.590   5.893 -0.5331 -0.5226 -0.2349
13434SOL    HW140880   4.321   2.552   5.811  1.5933 -1.5810  1.0412
13434SOL    HW240881   4.214   2.533   5.917  0.1428 -1.4891 -0.3678
13435SOL     OW40882   9.891   2.569   0.409 -0.0270  0.7449  0.4044
13435SOL    HW140883   9.906   2.483   0.370  0.8799  1.3239 -0.5570
13435SOL    HW240884   9.968   2.585   0.464  1.6964  2.4967 -2.3199
13436SOL     OW40885   2.546   5.569   1.726  0.3049  0.1264  0.3006
13436SOL    HW140886   2.552   5.657   1.761  0.8021  0.3924 -0.4219
13436SOL    HW240887   2.455   5.543   1.740 -0.0785  1.0941 -0.2851
13437SOL     OW40888   9.220   4.994   5.615  0.0254 -0.2897 -0.1956
13437SOL    HW140889   9.233   4.918   5.558  0.7163  0.1275 -0.6123
13437SOL    HW240890   9.125   4.997   5.629  0.1115 -2.2070  1.2143
13438SOL     OW40891   8.656   3.195   2.898  0.5149 -0.3517 -0.6398
13438SOL    HW140892   8.582   3.161   2.847 -0.2754 -0.3136  0.4410
13438SOL    HW240893   8.684   3.121   2.951  0.3285  0.0172 -0.0165
13439SOL     OW40894   6.564   8.729   9.907  0.0183 -0.7639 -0.8178
13439SOL    HW140895   6.497   8.689   9.850 -1.2624  0.8331 -0.5073
13439SOL    HW240896   6.582   8.814   9.866  1.4436 -0.9212 -0.5551
13440SOL     OW40897   5.030   9.523   1.661 -0.4708  0.0335 -0.0181
13440SOL    HW140898   4.965   9.538   1.730 -1.5389  0.9048 -1.1721
13440SOL    HW240899   5.024   9.430   1.641 -0.4889 -0.1307  0.7275
13441SOL     OW40900   6.313   1.888   2.402 -0.1923  0.0460 -0.0625
13441SOL    HW140901   6.349   1.849   2.481 -0.5776 -0.8323 -0.3103
13441SOL    HW240902   6.372   1.862   2.332 -0.2408  0.2216 -0.1693
13442SOL     OW40903   9.893   9.084   4.114  0.7135 -0.2239 -0.3299
13442SOL    HW140904   9.947   9.073   4.035 -0.3637 -1.1762 -0.9732
13442SOL    HW240905   9.810   9.041   4.092 -0.4364  1.4438  0.5074
13443SOL     OW40906   8.620   4.010   6.875 -0.3788 -0.1934  0.0356
13443SOL    HW140907   8.551   4.075   6.864  0.1441  0.0399 -2.5451
13443SOL    HW240908   8.581   3.942   6.931 -2.5300  0.1487 -0.9537
13444SOL     OW40909   0.567   9.988   2.530  0.4785 -0.4876  0.2688
13444SOL    HW140910   0.609   9.902   2.538  2.2834  0.3659  0.5420
13444SOL    HW240911   0.508   9.992   2.605  1.5269 -0.9052  1.1441
13445SOL     OW40912   5.330   2.826   9.247 -0.5783  0.6729 -0.0209
13445SOL    HW140913   5.252   2.881   9.245 -1.2806 -0.2947  0.1918
13445SOL    HW240914   5.340   2.803   9.339  0.2972  1.2500  0.0363
13446SOL     OW40915   8.679   7.227   7.898 -0.2033 -0.3686  0.9511
13446SOL    HW140916   8.727   7.235   7.815  0.0309 -1.8878  0.9182
13446SOL    HW240917   8.599   7.179   7.875  1.4102 -3.9119  2.0886
13447SOL     OW40918   4.804   0.174   5.046 -0.5024 -0.0536  0.4015
13447SOL    HW140919   4.792   0.239   5.115  1.4099 -1.2458  1.9834
13447SOL    HW240920   4.720   0.129   5.040 -0.5633 -0.3208  2.4347
13448SOL     OW40921   2.276   2.263   6.130  0.3959 -0.1370 -0.1012
13448SOL    HW140922   2.185   2.244   6.153  1.3321 -2.8215  1.9167
13448SOL    HW240923   2.288   2.354   6.157 -1.6749  0.3348 -0.5531
13449SOL     OW40924   0.411   8.131   5.311 -0.1151  0.2298  0.2498
13449SOL    HW140925   0.386   8.195   5.244  0.6889  0.2769 -0.0213
13449SOL    HW240926   0.360   8.053   5.291  2.0269 -0.7174 -2.1205
13450SOL     OW40927   8.950   5.570   0.745  0.4924  0.3006 -0.1385
13450SOL    HW140928   8.939   5.629   0.671  1.2086  0.6899  0.0479
13450SOL    HW240929   8.861   5.542   0.768  0.3925 -1.8089 -2.6857
13451SOL     OW40930   0.911   0.844   1.343 -0.1190 -0.2615  0.0532
13451SOL    HW140931   0.919   0.761   1.296  0.2278 -0.2582  0.1017
13451SOL    HW240932   0.817   0.858   1.352 -0.1801 -0.7766  0.2668
13452SOL     OW40933   7.272   0.938   4.968 -0.2651 -0.0942  0.0995
13452SOL    HW140934   7.183   0.974   4.964 -0.3510 -0.1643  1.2353
13452SOL    HW240935   7.260   0.845   4.984 -0.0357 -0.7086 -2.7376
13453SOL     OW40936   0.509   9.693   3.845  0.2765  0.3724 -0.1195
13453SOL    HW140937   0.463   9.707   3.763  0.2162 -2.3450 -0.6386
13453SOL    HW240938   0.441   9.663   3.906  0.8435 -0.9450 -0.0970
13454SOL     OW40939   1.093   1.524   9.117 -0.0353  0.1194 -0.2102
13454SOL    HW140940   1.006   1.487   9.105  0.2241 -0.4959 -0.2282
13454SOL    HW240941   1.123   1.544   9.029  0.2413 -0.6157 -0.2922
13455SOL     OW40942   2.725   9.651   4.795 -0.1569  0.8036  0.3462
13455SOL    HW140943   2.759   9.724   4.846  2.1198  0.6768 -0.8731
13455SOL    HW240944   2.641   9.682   4.761 -0.3011  1.9727  1.6795
13456SOL     OW40945   7.373   8.729   5.193 -0.4443  0.4072  0.4172
13456SOL    HW140946   7.357   8.724   5.287 -1.8916  0.6157  0.2052
13456SOL    HW240947   7.402   8.820   5.179  1.2670 -0.0324  0.8338
13457SOL     OW40948   2.085   5.654   2.977  0.3919 -0.1098  1.2373
13457SOL    HW140949   2.142   5.714   2.929  1.8164 -0.4376  2.4548
13457SOL    HW240950   2.002   5.701   2.985  0.7197  0.7035  0.1161
13458SOL     OW40951   4.295   3.509   5.941 -0.1282  0.6783  0.2849
13458SOL    HW140952   4.327   3.420   5.932  1.2087  0.9209  2.0345
13458SOL    HW240953   4.350   3.560   5.881  0.5864  0.6060  0.8551
13459SOL     OW40954   8.280   3.249   4.028  0.5440  0.1353 -0.2588
13459SOL    HW140955   8.246   3.252   3.939 -0.6312 -0.5463  0.1308
13459SOL    HW240956   8.331   3.168   4.031  0.6303  0.1876 -0.3352
13460SOL     OW40957   5.755   0.784   6.414 -0.6962  0.3019  0.0513
13460SOL    HW140958   5.775   0.692   6.398 -0.6774  0.0719  1.2608
13460SOL    HW240959   5.693   0.783   6.486 -0.3234  1.2526  0.4118
13461SOL     OW40960   0.316   5.532   7.513  0.2763  0.1967  0.2381
13461SOL    HW140961   0.320   5.602   7.448 -0.5447 -0.7178 -0.8274
13461SOL    HW240962   0.386   5.472   7.489 -0.0874 -0.1913  0.1216
13462SOL     OW40963   6.726   0.723   0.466 -0.0746 -0.0660  0.1313
13462SOL    HW140964   6.759   0.778   0.395 -1.2266  0.6277  0.1139
13462SOL    HW240965   6.758   0.764   0.546  0.2910 -0.2181  0.0668
13463SOL     OW40966   5.725   9.476   7.878  0.2723 -0.2341  0.6475
13463SOL    HW140967   5.656   9.532   7.912  0.6118 -0.8677  2.4946
13463SOL    HW240968   5.791   9.474   7.947  1.9801  0.0236 -0.8850
13464SOL     OW40969   9.266   5.775   6.232 -0.1558  0.7782  0.0931
13464SOL    HW140970   9.324   5.700   6.245 -0.7330  0.1348 -0.8557
13464SOL    HW240971   9.290   5.810   6.146 -0.0378  1.5418  0.4377
13465SOL     OW40972   9.313   0.453   5.057 -0.0299  0.2379  0.1080
13465SOL    HW140973   9.235   0.432   5.006  0.3950 -1.7617  0.2032
13465SOL    HW240974   9.293   0.424   5.145  0.9632 -0.7036  0.0424
13466SOL     OW40975   6.496   6.707   9.138 -0.1021  0.1049  0.6681
13466SOL    HW140976   6.461   6.795   9.129 -1.5918 -0.5040  0.1558
13466SOL    HW240977   6.533   6.705   9.226  0.0619  1.2671  0.6419
13467SOL     OW40978   9.576   8.027   4.866  0.3317 -0.1481  0.0987
13467SOL    HW140979   9.549   8.053   4.778 -2.4402 -0.5798  0.7177
13467SOL    HW240980   9.671   8.036   4.866  0.6383 -1.7634 -3.4662
13468SOL     OW40981   5.685   6.368   0.770  0.2187 -0.1244  0.1423
13468SOL    HW140982   5.646   6.432   0.829  1.9597 -1.1764  2.5864
13468SOL    HW240983   5.778   6.370   0.790  0.5216 -2.3496 -0.7803
13469SOL     OW40984   1.282   7.377   8.108 -0.7167  0.1551  0.9228
13469SOL    HW140985   1.206   7.403   8.055  0.0995  1.1366  0.1836
13469SOL    HW240986   1.356   7.384   8.048 -0.0870 -1.2541  1.5045
13470SOL     OW40987   8.655   1.491   8.340 -0.0445  0.5163 -0.1803
13470SOL    HW140988   8.748   1.509   8.355  0.6052 -0.5148 -2.5012
13470SOL    HW240989   8.653   1.402   8.306 -1.5639  1.3672 -2.5770
13471SOL     OW40990   4.171   0.586   4.091 -0.0975  0.1359  0.1743
13471SOL    HW140991   4.252   0.617   4.131 -0.4366  0.5266  0.5677
13471SOL    HW240992   4.124   0.542   4.162 -0.1637 -0.2231 -0.0884
13472SOL     OW40993   5.549   0.304   9.908  0.1539 -0.4282  0.1611
13472SOL    HW140994   5.587   0.377   9.957  0.2534 -0.8311  0.7021
13472SOL    HW240995   5.546   0.232   9.972 -1.2099 -0.5055  0.0413
13473SOL     OW40996   3.833   5.021   2.769 -0.0824 -0.4107 -0.3224
13473SOL    HW140997   3.833   5.115   2.754  0.3881 -0.2316  0.6867
13473SOL    HW240998   3.926   4.997   2.767 -0.1146 -0.6375  0.6161
13474SOL     OW40999   8.368   5.091   1.143  0.3190 -0.0903 -0.6594
13474SOL    HW141000   8.413   5.022   1.094 -1.2362  0.4598 -3.0427
13474SOL    HW241001   8.351   5.159   1.079 -1.3974  0.9234  0.7771
13475SOL     OW41002   1.408   0.174   2.682  0.2391 -0.3619 -0.0065
13475SOL    HW141003   1.398   0.228   2.604  1.0477  0.3037  0.3382
13475SOL    HW241004   1.373   0.227   2.753 -0.3959 -0.9213  0.1118
13476SOL     OW41005   8.917   0.195   6.489  0.2918 -0.4739  0.4911
13476SOL    HW141006   8.834   0.207   6.535  0.5203  0.6567  0.6512
13476SOL    HW241007   8.892   0.176   6.399 -0.1633 -2.6680  1.0070
13477SOL     OW41008   5.350   7.292   3.969 -0.2570  0.2076  0.2422
13477SOL    HW141009   5.355   7.223   3.903 -0.5213 -2.0341  2.4283
13477SOL    HW241010   5.317   7.368   3.921 -1.1317 -1.4850 -2.0370
13478SOL     OW41011   1.247   5.295   4.736 -0.3858  0.4725 -0.1929
13478SOL    HW141012   1.316   5.234   4.759  1.1193  1.9939 -0.4578
13478SOL    HW241013   1.200   5.253   4.664 -0.2536 -0.9245  0.5122
13479SOL     OW41014   7.437   6.086   5.692 -0.0750 -0.3580  0.5263
13479SOL    HW141015   7.345   6.064   5.685  0.3643 -1.8501 -1.8512
13479SOL    HW241016   7.480   6.005   5.719  0.5590  0.2942  1.5284
13480SOL     OW41017   1.106   6.433   2.678 -0.1485 -0.1551  0.1994
13480SOL    HW141018   1.113   6.375   2.602  0.2229  1.7388 -1.2776
13480SOL    HW241019   1.047   6.502   2.650  1.3944  1.5534  0.9964
13481SOL     OW41020   1.769   0.809   2.167  0.7317  0.2008 -0.6895
13481SOL    HW141021   1.856   0.778   2.141 -0.0855 -0.7059 -2.5237
13481SOL    HW241022   1.708   0.746   2.127 -0.8011  1.2676 -0.1265
13482SOL     OW41023   6.846   0.609   1.799  0.4699 -0.3764 -0.1502
13482SOL    HW141024   6.840   0.545   1.727 -1.3741  0.2933 -0.6508
13482SOL    HW241025   6.935   0.599   1.832  1.6294 -0.2672 -2.9480
13483SOL     OW41026   3.226   6.144   3.505 -0.2234  0.2645  0.4250
13483SOL    HW141027   3.281   6.173   3.432 -0.1821 -0.3586  0.1989
13483SOL    HW241028   3.220   6.049   3.494  0.0942  0.1143  1.4476
13484SOL     OW41029   5.496   0.752   7.584  0.2181 -0.3693  0.0443
13484SOL    HW141030   5.464   0.680   7.529 -1.4510  1.0006 -0.8624
13484SOL    HW241031   5.569   0.789   7.535 -1.6842  1.2855 -1.7628
13485SOL     OW41032   7.066   0.094   5.953  0.0538 -0.1507 -0.3935
13485SOL    HW141033   6.977   0.126   5.937 -0.5503 -1.4267  0.2790
13485SOL    HW241034   7.120   0.173   5.955 -1.1910  0.7162 -0.0073
13486SOL     OW41035   3.293   6.847   5.554 -0.0023 -0.2225 -0.2186
13486SOL    HW141036   3.316   6.940   5.561 -1.6919  0.2245 -0.1290
13486SOL    HW241037   3.201   6.843   5.581  0.1823 -2.0059  0.2461
13487SOL     OW41038   4.223   3.552   9.613  0.1022 -0.4968  0.9753
13487SOL    HW141039   4.280   3.578   9.685 -0.1451  0.4153  0.8550
13487SOL    HW241040   4.136   3.581   9.639 -0.3659 -2.1231  1.2684
13488SOL     OW41041   1.237   8.618   5.221 -0.0984 -0.5505 -0.2926
13488SOL    HW141042   1.315   8.640   5.272  1.3219  0.3321 -2.6792
13488SOL    HW241043   1.219   8.696   5.170 -0.6975 -1.7404 -2.0058
13489SOL     OW41044   2.208   3.277   2.940  0.0473 -0.4515  0.3081
13489SOL    HW141045   2.234   3.346   3.000  0.5537 -1.1528  0.9189
13489SOL    HW241046   2.193   3.321   2.857  2.2904  0.1262  0.1582
13490SOL     OW41047   0.296   1.615   2.205 -0.6055 -0.4442  0.1915
13490SOL    HW141048   0.372   1.563   2.178  0.9744  1.1859  1.3147
13490SOL    HW241049   0.300   1.616   2.300 -2.2143 -0.5302  0.2818
13491SOL     OW41050   0.526   4.796   9.930 -0.0816 -0.2208  0.2073
13491SOL    HW141051   0.543   4.821  10.021  2.5500  0.4623 -0.4079
13491SOL    HW241052   0.451   4.849   9.904 -1.2152 -0.8029  2.0873
13492SOL     OW41053   0.237   9.339   8.103  0.4542  0.2419 -0.1171
13492SOL    HW141054   0.318   9.368   8.060  1.1558  0.6058  1.3756
13492SOL    HW241055   0.191   9.420   8.123 -0.2051  0.0414 -0.7861
13493SOL     OW41056   8.775   3.465   8.555  0.7052  0.3636  0.4012
13493SOL    HW141057   8.750   3.458   8.463 -0.0809  0.2489  0.6103
13493SOL    HW241058   8.696   3.497   8.599 -0.0082 -2.5963  1.5155
13494SOL     OW41059   6.762   3.653   0.132 -0.6112 -0.2537  0.4577
13494SOL    HW141060   6.710   3.691   0.203 -1.3590 -0.0197 -0.1948
13494SOL    HW241061   6.733   3.701   0.054 -0.9046 -1.5319 -0.2425
13495SOL     OW41062   3.996   1.429   7.096 -0.2277  0.2515  0.2552
13495SOL    HW141063   3.942   1.464   7.167  0.3540  2.9731 -0.5166
13495SOL    HW241064   4.082   1.417   7.134 -0.4432 -0.4143  0.5407
13496SOL     OW41065   3.565   3.451   4.403  0.4442  0.3785 -0.3880
13496SOL    HW141066   3.551   3.357   4.393  0.7040  0.2092  0.7115
13496SOL    HW241067   3.594   3.461   4.494 -0.3893  1.6150 -0.2438
13497SOL     OW41068   3.615   1.522   1.669 -0.8046  0.4299 -0.1095
13497SOL    HW141069   3.549   1.504   1.736 -0.4001 -1.5430 -0.1823
13497SOL    HW241070   3.682   1.456   1.683  0.0498  0.9629 -1.4923
13498SOL     OW41071   0.534   4.137   5.709 -0.4300  0.2599  0.1971
13498SOL    HW141072   0.621   4.150   5.672 -0.3376 -0.7022  0.0259
13498SOL    HW241073   0.538   4.178   5.795 -0.1647  1.1924 -0.2475
13499SOL     OW41074   2.849   5.805   8.001 -0.4074  0.1806  0.0550
13499SOL    HW141075   2.812   5.863   7.935 -0.9591 -0.8232 -0.5402
13499SOL    HW241076   2.856   5.859   8.079 -2.2235  0.6987 -0.0883
13500SOL     OW41077   0.792   4.270   2.391 -0.4945 -0.3825 -0.3603
13500SOL    HW141078   0.731   4.217   2.443 -0.2619 -0.1044  0.2075
13500SOL    HW241079   0.876   4.259   2.435  0.2907 -2.2057 -2.1618
13501SOL     OW41080   4.032   8.099   4.669  0.2395  0.0121 -0.8890
13501SOL    HW141081   4.087   8.094   4.590  0.8162 -0.4407 -0.4713
13501SOL    HW241082   4.094   8.089   4.741 -0.5745 -2.4507 -0.4341
13502SOL     OW41083   9.540   3.790   7.216  0.0282 -0.1125  0.2841
13502SOL    HW141084   9.612   3.834   7.262  0.6485  1.0658 -1.7138
13502SOL    HW241085   9.464   3.804   7.273  0.3334  3.0273  0.0996
13503SOL     OW41086   1.431   8.762   3.089  0.1507 -0.3146 -0.1713
13503SOL    HW141087   1.419   8.766   2.994 -2.2247 -1.5965 -0.0086
13503SOL    HW241088   1.420   8.852   3.119 -0.4452 -0.0962 -1.0061
13504SOL     OW41089   1.373   0.429   6.553 -0.3652  0.2433 -0.1058
13504SOL    HW141090   1.304   0.379   6.510 -1.1195  0.5633  0.6938
13504SOL    HW241091   1.342   0.520   6.551  0.8661  0.6661 -1.3133
13505SOL     OW41092   1.897   0.077   2.918  0.4545 -0.0794 -0.3020
13505SOL    HW141093   1.825   0.075   2.981  0.5784 -0.6435 -0.1728
13505SOL    HW241094   1.925   0.169   2.917  0.8025 -0.1547  0.8688
13506SOL     OW41095   3.376   3.413   7.586 -0.0417 -0.8715 -0.3428
13506SOL    HW141096   3.320   3.340   7.610  2.0549 -2.5758 -0.2928
13506SOL    HW241097   3.439   3.420   7.659  0.1400  0.6434 -0.6074
13507SOL     OW41098   0.156   2.794   0.354 -0.2466 -0.0713 -0.4283
13507SOL    HW141099   0.147   2.737   0.430 -1.7943 -1.0224 -1.2634
13507SOL    HW241100   0.158   2.883   0.390  1.0552 -0.5746  0.8183
13508SOL     OW41101   2.262   3.524   6.233  0.0423 -0.0715 -0.4516
13508SOL    HW141102   2.191   3.467   6.203 -1.8809  2.1520 -0.4622
13508SOL    HW241103   2.222   3.577   6.302  1.6960  1.2849 -0.4772
13509SOL     OW41104   2.058   6.455   6.675 -0.1712 -0.3255  0.2423
13509SOL    HW141105   2.018   6.388   6.620 -0.7967 -1.5877  2.1414
13509SOL    HW241106   2.005   6.455   6.755  0.7504  1.3719  0.9063
13510SOL     OW41107   5.212   7.721   7.691  0.3477 -0.4281  0.4233
13510SOL    HW141108   5.189   7.639   7.647 -0.8140  0.2876 -0.3784
13510SOL    HW241109   5.127   7.762   7.710  0.9198  1.0404 -0.0767
13511SOL     OW41110   6.863   2.221   8.320  0.2694 -0.2597 -0.1924
13511SOL    HW141111   6.860   2.283   8.247 -0.9293  1.9864  1.6280
13511SOL    HW241112   6.863   2.276   8.398  0.9259 -2.5691  1.5381
13512SOL     OW41113   8.093   8.513   8.383  0.1928 -0.2522  0.5465
13512SOL    HW141114   8.163   8.495   8.445  0.4535 -0.8367  0.0888
13512SOL    HW241115   8.012   8.496   8.431  0.3401  0.6270  1.1430
13513SOL     OW41116   7.199   8.063   4.601 -0.4429 -0.3892 -0.1230
13513SOL    HW141117   7.106   8.070   4.579 -0.3068 -0.4122 -0.7223
13513SOL    HW241118   7.224   8.151   4.628 -0.2420  0.0430 -1.6090
13514SOL     OW41119   2.307   4.143   9.140 -0.2643 -0.3349  0.5274
13514SOL    HW141120   2.378   4.153   9.203  2.0671 -0.8249 -1.8076
13514SOL    HW241121   2.351   4.145   9.055 -3.3830  1.9919 -1.2353
13515SOL     OW41122   6.455   3.750   8.159 -0.3057  0.1435  0.5665
13515SOL    HW141123   6.377   3.771   8.209 -0.4341  0.7059  0.1484
13515SOL    HW241124   6.430   3.673   8.107 -1.0961  1.1825 -0.6658
13516SOL     OW41125   1.031   9.072   5.910 -0.1534  0.7452  0.1294
13516SOL    HW141126   1.114   9.107   5.877 -0.1223  0.8838  0.3517
13516SOL    HW241127   0.965   9.106   5.849 -0.2367  1.9814  0.8713
13517SOL     OW41128   8.665   0.918   1.407 -0.6808 -0.0542 -0.5771
13517SOL    HW141129   8.714   0.845   1.369 -0.6937  0.4446 -1.5888
13517SOL    HW241130   8.607   0.878   1.471  0.0196 -0.8163 -0.4118
13518SOL     OW41131   4.090   4.516   3.295  1.0186  0.6700  0.4674
13518SOL    HW141132   4.053   4.456   3.230  1.3135 -1.0213  1.7751
13518SOL    HW241133   4.036   4.594   3.290 -0.0775 -0.1314 -0.5634
13519SOL     OW41134   3.746   4.707   2.224 -0.1633  0.3985  0.3776
13519SOL    HW141135   3.760   4.753   2.142 -2.6055  2.3653  0.9299
13519SOL    HW241136   3.822   4.731   2.278  1.1606 -0.4397 -1.0161
13520SOL     OW41137   6.324   8.066   2.983 -0.4694 -0.5801 -0.1766
13520SOL    HW141138   6.406   8.017   2.971 -0.4489 -0.3354 -1.1456
13520SOL    HW241139   6.270   8.010   3.038 -0.0282 -1.2061 -0.3668
13521SOL     OW41140   6.512   5.452   4.697 -0.5164 -0.2731  0.2949
13521SOL    HW141141   6.430   5.404   4.714 -0.9691  0.6888  0.9046
13521SOL    HW241142   6.551   5.464   4.783 -0.8348  1.1743  0.2540
13522SOL     OW41143   5.400   6.203   8.784  0.4426  0.2859  0.0850
13522SOL    HW141144   5.339   6.129   8.783  1.0701 -0.2635 -1.4724
13522SOL    HW241145   5.465   6.179   8.850 -1.8274  1.6719  3.0846
13523SOL     OW41146   5.285   9.485   7.714  0.0172 -0.1268 -0.3860
13523SOL    HW141147   5.293   9.433   7.794 -0.8597 -1.1453 -0.9269
13523SOL    HW241148   5.341   9.440   7.650  1.5511  1.2765 -0.1031
13524SOL     OW41149   8.442   4.823   8.722 -0.9355 -0.6376 -0.3501
13524SOL    HW141150   8.448   4.728   8.717 -1.3022 -0.7061  0.4008
13524SOL    HW241151   8.528   4.852   8.751 -1.0910 -0.8137  0.3009
13525SOL     OW41152   3.182   0.804   5.954 -0.4591  0.1612 -0.5402
13525SOL    HW141153   3.098   0.799   6.000 -2.0388  1.4521 -3.0149
13525SOL    HW241154   3.221   0.885   5.984  0.6554 -1.0957  1.6399
13526SOL     OW41155   1.637   9.446   7.784  1.1232  0.1104 -0.1225
13526SOL    HW141156   1.665   9.537   7.771 -0.7143  1.2241  2.7710
13526SOL    HW241157   1.555   9.439   7.736  0.5401  0.4477  0.8089
13527SOL     OW41158   7.715   1.172   6.457  0.0685 -0.1671  0.0347
13527SOL    HW141159   7.727   1.263   6.430  0.1384 -0.6628 -1.7244
13527SOL    HW241160   7.801   1.144   6.488  0.4612 -0.1143 -0.9932
13528SOL     OW41161   4.543   1.671   6.180 -0.3001 -0.8362 -0.6796
13528SOL    HW141162   4.520   1.750   6.229  1.4144 -0.6292 -0.1544
13528SOL    HW241163   4.484   1.604   6.215  1.1144 -0.8074  2.0489
13529SOL     OW41164   0.721   9.651   9.381 -0.1738  0.1178 -0.2029
13529SOL    HW141165   0.698   9.711   9.310  0.6665  0.0153 -0.5687
13529SOL    HW241166   0.816   9.644   9.377 -0.2629 -1.2655 -0.1800
13530SOL     OW41167   0.907   7.770   9.084  0.1933 -0.1015  0.3286
13530SOL    HW141168   0.962   7.816   9.020 -1.1945  0.2917 -0.6097
13530SOL    HW241169   0.911   7.825   9.162  1.1225 -0.0775  0.2751
13531SOL     OW41170   3.411   0.396   4.194 -0.0909  0.1200 -0.7402
13531SOL    HW141171   3.448   0.308   4.198 -1.7318 -0.5761  0.0605
13531SOL    HW241172   3.416   0.428   4.285 -0.0123  0.6352 -0.9220
13532SOL     OW41173   5.273   9.258   3.184 -0.2134  0.3071  0.1005
13532SOL    HW141174   5.179   9.265   3.167  0.0626  0.7650 -1.3833
13532SOL    HW241175   5.309   9.221   3.103  1.2927  3.1364 -0.6368
13533SOL     OW41176   1.607   2.867   1.752 -0.3617  0.0667  0.4272
13533SOL    HW141177   1.528   2.918   1.738 -0.5324  0.6548  2.9823
13533SOL    HW241178   1.602   2.795   1.689 -0.9396  2.2166 -2.1354
13534SOL     OW41179   7.019   8.322   6.713  0.5074 -0.1415  0.3745
13534SOL    HW141180   6.998   8.230   6.695  2.3821 -0.5068 -0.1112
13534SOL    HW241181   7.092   8.319   6.775 -0.0959  1.0461  1.1808
13535SOL     OW41182   0.258   4.450   1.739 -0.7891 -0.3668 -0.2472
13535SOL    HW141183   0.163   4.459   1.746 -0.6355  2.8389 -0.5994
13535SOL    HW241184   0.271   4.378   1.677 -2.9328 -1.4650  0.4792
13536SOL     OW41185   6.794   2.497   8.131 -0.2505  0.0558  0.2976
13536SOL    HW141186   6.790   2.581   8.085  0.5244  0.8063  1.5551
13536SOL    HW241187   6.726   2.444   8.089  0.4611  0.6555 -1.7616
13537SOL     OW41188   7.380   4.115   4.461  0.3243 -0.3986 -0.3403
13537SOL    HW141189   7.457   4.058   4.464  1.4677  1.0872  0.0058
13537SOL    HW241190   7.411   4.194   4.416 -1.2443 -0.1090 -0.9484
13538SOL     OW41191   3.021   8.556   7.449 -0.5196 -0.5584  0.4527
13538SOL    HW141192   3.004   8.559   7.543  0.7988  1.5296  0.6757
13538SOL    HW241193   3.066   8.638   7.430  2.2276 -2.3420 -1.3992
13539SOL     OW41194   1.699   3.354   5.934  0.2777  1.1571 -0.0955
13539SOL    HW141195   1.630   3.348   6.000  1.1304 -1.9534  0.6673
13539SOL    HW241196   1.778   3.372   5.983  0.6528  0.5164 -0.4529
13540SOL     OW41197   8.488   5.587   1.036  0.1621  0.4682 -0.1339
13540SOL    HW141198   8.393   5.599   1.028 -0.2244 -0.3749  2.3374
13540SOL    HW241199   8.511   5.529   0.962 -1.5375 -0.5896  0.0996
13541SOL     OW41200   9.297   4.632   7.939  0.2131 -0.1000  0.0354
13541SOL    HW141201   9.299   4.648   8.033 -1.4669  1.6153 -0.1508
13541SOL    HW241202   9.260   4.712   7.902 -1.0099 -1.4546 -1.8868
13542SOL     OW41203   3.957   1.940   4.086 -0.2125 -0.3048 -0.1294
13542SOL    HW141204   4.036   1.902   4.049  0.6587  1.1633  0.1243
13542SOL    HW241205   3.989   1.999   4.154 -1.5553  0.0235  0.2485
13543SOL     OW41206   0.541   8.583   0.124  0.1013 -0.5242  0.1582
13543SOL    HW141207   0.485   8.512   0.093  0.0482 -0.1329 -0.6874
13543SOL    HW241208   0.523   8.656   0.064  1.4235 -0.3486 -0.0707
13544SOL     OW41209   4.534   8.042   7.079 -0.1997 -0.2635  0.3730
13544SOL    HW141210   4.586   7.987   7.021 -1.2148  0.2380 -1.0596
13544SOL    HW241211   4.598   8.095   7.127  0.6699 -0.9833  0.0215
13545SOL     OW41212   3.053   6.709   0.686 -0.3705 -0.4299  0.0685
13545SOL    HW141213   3.144   6.689   0.704  0.6802  1.5610 -2.3735
13545SOL    HW241214   3.039   6.795   0.725 -0.9296 -0.3175 -0.3627
13546SOL     OW41215   7.669   1.782   2.633  0.3698  0.3526 -0.5758
13546SOL    HW141216   7.698   1.695   2.661  1.2030  0.8354  0.1394
13546SOL    HW241217   7.614   1.767   2.557  1.8193 -0.6892 -1.4512
13547SOL     OW41218   1.266   8.810   9.918 -0.0570  0.2508  0.1825
13547SOL    HW141219   1.315   8.747   9.971  1.2222 -0.0509 -1.3063
13547SOL    HW241220   1.226   8.758   9.849 -1.2941  0.7195  0.5070
13548SOL     OW41221   7.073   7.496   5.207  0.4990 -0.3285 -0.6025
13548SOL    HW141222   7.082   7.410   5.167  0.2729 -0.7927  0.3067
13548SOL    HW241223   7.130   7.492   5.285 -0.1365  0.0541 -0.1101
13549SOL     OW41224   1.559   3.268   8.535  0.1244 -0.6981  0.1557
13549SOL    HW141225   1.493   3.211   8.574 -1.5181  0.5514 -0.6682
13549SOL    HW241226   1.516   3.354   8.528  2.7032  0.8675  1.9520
13550SOL     OW41227   0.226   2.303   3.194  0.3173 -0.8096  0.1577
13550SOL    HW141228   0.312   2.342   3.206  0.1088 -0.1406 -0.4308
13550SOL    HW241229   0.169   2.348   3.256  0.0048  0.0995 -0.7539
13551SOL     OW41230   9.935   4.795   5.016  0.0747 -0.1019 -0.4573
13551SOL    HW141231   9.963   4.779   5.106  0.5772 -1.8721 -0.8852
13551SOL    HW241232   9.915   4.889   5.014 -0.0107 -0.0171  1.4994
13552SOL     OW41233   9.026   0.999   7.703  0.5218 -0.1240 -0.2652
13552SOL    HW141234   9.079   0.919   7.711 -0.0236 -0.5491 -0.8194
13552SOL    HW241235   9.081   1.060   7.654  1.2762  0.1598  0.8790
13553SOL     OW41236   8.816   5.618   3.618  0.4644  0.3381  0.0196
13553SOL    HW141237   8.858   5.564   3.552  1.2112  2.2121 -1.1038
13553SOL    HW241238   8.885   5.676   3.650 -0.2728  0.5680  1.2817
13554SOL     OW41239   9.657   8.399   2.949  0.5431  0.2784  0.4112
13554SOL    HW141240   9.739   8.388   2.901 -0.6862 -0.7573 -1.5815
13554SOL    HW241241   9.627   8.310   2.967  0.5368  0.6459  2.4354
13555SOL     OW41242   4.413   0.895   1.189 -0.3354 -0.2289 -0.0245
13555SOL    HW141243   4.409   0.989   1.172 -2.0670 -0.5333 -1.7555
13555SOL    HW241244   4.373   0.884   1.275 -0.8414  0.5655 -0.1497
13556SOL     OW41245   8.777   5.719   3.024  0.1972 -0.1485  0.5154
13556SOL    HW141246   8.841   5.711   2.953 -1.4279  0.4307 -1.0950
13556SOL    HW241247   8.723   5.793   2.998  0.3640  0.9661  3.0923
13557SOL     OW41248   0.871   6.665   0.636  0.2899  0.5308  0.3738
13557SOL    HW141249   0.814   6.723   0.686  0.7306 -0.2076  1.7712
13557SOL    HW241250   0.811   6.602   0.595 -0.2399  2.2028 -1.5653
13558SOL     OW41251   6.729   1.812   7.350  0.3520  0.1773  0.4167
13558SOL    HW141252   6.801   1.848   7.401  0.0460 -1.0783  1.8077
13558SOL    HW241253   6.713   1.876   7.281  1.4024  1.4783  1.3492
13559SOL     OW41254   8.374   4.288   1.062 -0.3191 -0.4478 -0.1064
13559SOL    HW141255   8.401   4.338   0.985 -2.0479  0.5346 -0.1281
13559SOL    HW241256   8.429   4.321   1.133 -0.1264  0.1309 -0.5181
13560SOL     OW41257   9.168   8.494   6.583  0.5614 -0.4336 -0.3405
13560SOL    HW141258   9.215   8.465   6.504  1.2937 -1.5292  0.4708
13560SOL    HW241259   9.236   8.510   6.648 -0.0573  0.1301  0.1850
13561SOL     OW41260   8.990   1.929   3.796 -0.8532  0.4131 -0.1355
13561SOL    HW141261   9.005   1.971   3.881  0.0913  2.2567 -1.1550
13561SOL    HW241262   9.069   1.875   3.783 -0.8052  0.4549 -0.0262
13562SOL     OW41263   8.753   5.725   1.082 -0.0895  0.4460 -0.2015
13562SOL    HW141264   8.807   5.654   1.116  0.0257  0.8991  0.5740
13562SOL    HW241265   8.672   5.681   1.054  0.4061 -0.1364 -0.7485
13563SOL     OW41266   1.383   2.203   7.593 -0.5209 -0.2654  0.1119
13563SOL    HW141267   1.420   2.290   7.608 -1.7407 -0.2177  3.7962
13563SOL    HW241268   1.289   2.216   7.595 -0.8431 -1.3040 -2.8396
13564SOL     OW41269   6.924   4.143   1.731 -0.0384 -0.5096 -0.0466
13564SOL    HW141270   6.852   4.097   1.772 -0.3136  0.0980  0.1662
13564SOL    HW241271   6.985   4.074   1.704 -0.9685 -1.0588 -0.7582
13565SOL     OW41272   3.521   7.304   7.214 -0.1001  0.5956 -0.0463
13565SOL    HW141273   3.484   7.239   7.154 -0.4952  1.7667 -1.1058
13565SOL    HW241274   3.475   7.385   7.193 -0.1552  1.0704  1.7660
13566SOL     OW41275   1.849   6.403   0.813 -0.1578 -0.0901 -0.1842
13566SOL    HW141276   1.830   6.497   0.817 -1.8504 -0.4325  1.1936
13566SOL    HW241277   1.849   6.375   0.905  1.5822 -1.2236 -0.4958
13567SOL     OW41278   4.081   6.863   9.726 -0.1418  0.4207  0.0480
13567SOL    HW141279   4.010   6.899   9.779 -0.1880 -0.5738  0.6982
13567SOL    HW241280   4.060   6.888   9.637 -0.8210  0.9271  0.3431
13568SOL     OW41281   2.809   9.254   6.948 -0.4574 -0.1601  0.3807
13568SOL    HW141282   2.806   9.339   6.905 -0.6381 -0.2305  0.2526
13568SOL    HW241283   2.751   9.263   7.024  0.2328  0.1116  0.8868
13569SOL     OW41284   5.497   3.395   2.256 -0.3891 -0.3786  0.0878
13569SOL    HW141285   5.555   3.471   2.263  0.2131 -0.7526 -0.7525
13569SOL    HW241286   5.448   3.395   2.338 -0.8174  1.2622 -0.1294
13570SOL     OW41287   1.957   9.907   5.343 -0.2742  0.5696  0.1255
13570SOL    HW141288   2.011   9.981   5.371 -0.5768  0.5214  0.8493
13570SOL    HW241289   1.873   9.921   5.386 -0.0568 -0.6603  0.9959
13571SOL     OW41290   3.824   4.760   0.134  0.5805 -0.2495 -0.5804
13571SOL    HW141291   3.853   4.722   0.051  1.0353 -0.5452 -0.2900
13571SOL    HW241292   3.879   4.719   0.200 -1.5523 -2.0592  0.1905
13572SOL     OW41293   0.932   3.246   1.110  0.2016  0.2937  0.0123
13572SOL    HW141294   0.899   3.195   1.036  0.3567  2.1923 -1.4617
13572SOL    HW241295   1.010   3.290   1.076  0.8924  0.4075  1.6476
13573SOL     OW41296   9.707   1.734   6.376  0.3210 -0.5011 -0.0661
13573SOL    HW141297   9.738   1.712   6.464  2.7286  3.1966  0.2394
13573SOL    HW241298   9.785   1.734   6.322 -0.4476  1.1255 -1.2596
13574SOL     OW41299   5.159   6.454   4.460  0.2696 -0.5599  0.3108
13574SOL    HW141300   5.234   6.495   4.503 -0.4636  2.2828 -0.8559
13574SOL    HW241301   5.197   6.394   4.397  1.6531  1.1367 -0.5651
13575SOL     OW41302   0.973   8.461   7.760  0.4152 -0.3014 -0.1268
13575SOL    HW141303   0.881   8.481   7.780  0.7204  0.7424  0.3227
13575SOL    HW241304   1.021   8.539   7.788  1.2038  0.1244 -2.4236
13576SOL     OW41305   6.899   7.005   9.156 -0.2443 -0.2305 -0.1747
13576SOL    HW141306   6.884   6.917   9.121 -0.8579 -0.5852  0.9113
13576SOL    HW241307   6.865   7.001   9.246  0.8204  0.7752  0.3038
13577SOL     OW41308   2.586   3.698   2.836 -0.4075 -0.0366 -0.2085
13577SOL    HW141309   2.635   3.780   2.832 -0.1182 -0.1783  0.4156
13577SOL    HW241310   2.585   3.675   2.928 -0.3214 -0.8326 -0.3989
13578SOL     OW41311   6.904   6.388   6.508  0.0754  0.3183  0.4237
13578SOL    HW141312   6.864   6.308   6.543  1.5454 -0.4687  0.3835
13578SOL    HW241313   6.960   6.420   6.578  0.1322  0.8648  0.1360
13579SOL     OW41314   2.752   9.620   1.583 -0.1799  0.2157 -0.8545
13579SOL    HW141315   2.688   9.646   1.649 -0.2598  0.5686 -1.0695
13579SOL    HW241316   2.837   9.643   1.622 -0.2460  0.7515 -1.0164
13580SOL     OW41317   0.234   2.408   6.035  0.1871  0.3799 -0.0435
13580SOL    HW141318   0.297   2.392   5.964 -0.5462  0.5569 -0.7419
13580SOL    HW241319   0.275   2.477   6.088  0.0530  1.3838 -1.1922
13581SOL     OW41320   8.796   2.336   1.314 -0.1543  0.2794 -0.1264
13581SOL    HW141321   8.876   2.388   1.312 -0.1791  0.3004 -1.4922
13581SOL    HW241322   8.749   2.367   1.391  0.2913  1.5785 -0.3584
13582SOL     OW41323   4.272   1.854   1.823 -0.2133  0.3305  0.0326
13582SOL    HW141324   4.262   1.770   1.866  1.6134  0.0917  0.0797
13582SOL    HW241325   4.187   1.897   1.833 -1.5469 -1.9046 -0.9195
13583SOL     OW41326   8.046   1.871   4.864  0.3586 -0.0056  0.1564
13583SOL    HW141327   8.139   1.887   4.877  0.2247  2.6255 -1.3724
13583SOL    HW241328   8.039   1.778   4.844  2.8220  0.0116 -1.0718
13584SOL     OW41329   9.878   7.760   6.447  0.0763 -0.1384  0.0575
13584SOL    HW141330   9.906   7.689   6.505 -0.1862 -0.9984 -0.8285
13584SOL    HW241331   9.795   7.789   6.483 -0.0067 -0.5556  0.2056
13585SOL     OW41332   1.410   0.659   0.315 -0.2225 -0.1335 -0.2762
13585SOL    HW141333   1.431   0.623   0.401  0.0683  0.1767 -0.2165
13585SOL    HW241334   1.338   0.720   0.332 -0.7007 -0.6668 -0.3740
13586SOL     OW41335   1.531   7.830   9.601 -0.1894  0.5060 -0.0419
13586SOL    HW141336   1.436   7.828   9.609 -0.2077  0.2947 -0.3067
13586SOL    HW241337   1.559   7.739   9.616  0.0707  0.7572  1.1752
13587SOL     OW41338   5.918   9.174   6.544  0.1170 -0.7246 -0.1912
13587SOL    HW141339   5.847   9.238   6.542  0.0789 -0.6262  1.9391
13587SOL    HW241340   5.998   9.225   6.531  0.1721 -0.0214  2.4381
13588SOL     OW41341   2.426   5.396   4.151  0.0233 -0.6515 -0.2944
13588SOL    HW141342   2.458   5.444   4.228  0.8905 -1.9360  0.1709
13588SOL    HW241343   2.505   5.374   4.102 -0.4449 -0.7626 -1.0141
13589SOL     OW41344   0.148   1.364   8.694 -0.3368 -0.1357 -0.2215
13589SOL    HW141345   0.234   1.331   8.672  0.4506  1.6178  0.0178
13589SOL    HW241346   0.146   1.365   8.790 -0.6876 -0.3016 -0.2224
13590SOL     OW41347   7.089   7.116   4.714  0.5908  0.2932 -0.1576
13590SOL    HW141348   7.081   7.107   4.809  1.0449 -0.7299 -0.1986
13590SOL    HW241349   7.183   7.113   4.697  0.5255  0.6822 -0.6281
13591SOL     OW41350   2.216   4.676   5.584  1.0869  0.3771  0.0359
13591SOL    HW141351   2.285   4.727   5.543  1.6499  0.1646  0.7076
13591SOL    HW241352   2.152   4.661   5.514  1.7140  0.5749 -0.5814
13592SOL     OW41353   4.608   5.202   1.808 -0.0271  0.3646 -0.3784
13592SOL    HW141354   4.520   5.171   1.787 -0.5575 -0.5313  2.6580
13592SOL    HW241355   4.666   5.152   1.751 -1.4278  0.7766 -2.2363
13593SOL     OW41356   5.549   5.722   2.141  0.4101  0.1182 -0.8414
13593SOL    HW141357   5.602   5.758   2.069  0.3482  0.4704 -0.7116
13593SOL    HW241358   5.609   5.663   2.188  0.5513  0.1586 -0.9714
13594SOL     OW41359   4.088   9.398   6.159  0.2542  0.2414 -0.3033
13594SOL    HW141360   4.025   9.445   6.214  1.7751  0.4228  1.3667
13594SOL    HW241361   4.136   9.468   6.114  1.4944  0.2766  1.0188
13595SOL     OW41362   4.904   3.582   8.479 -0.2990  0.6971 -0.2924
13595SOL    HW141363   4.952   3.653   8.521 -0.4224  1.2535 -1.0759
13595SOL    HW241364   4.931   3.584   8.387  0.0462 -0.5737 -0.2466
13596SOL     OW41365   6.358   2.092   4.477 -0.2195  0.3083 -0.3565
13596SOL    HW141366   6.423   2.125   4.415 -0.1896  1.2621  0.1714
13596SOL    HW241367   6.292   2.161   4.482 -0.9930 -0.4001 -0.4490
13597SOL     OW41368   6.609   0.637   1.274 -0.3369 -0.2935  0.0331
13597SOL    HW141369   6.565   0.719   1.252 -0.3062 -0.6902 -1.6721
13597SOL    HW241370   6.597   0.628   1.368 -1.0971  1.2252  0.1159
13598SOL     OW41371   8.913   1.943   6.577  0.6272  0.0198  0.1884
13598SOL    HW141372   8.876   1.882   6.640 -0.0146 -0.0375 -0.2340
13598SOL    HW241373   8.935   1.889   6.501  0.7475  0.2005  0.0932
13599SOL     OW41374   0.391   6.936   6.411  0.0509 -0.5019  0.4513
13599SOL    HW141375   0.395   7.005   6.477 -3.2391 -0.8681  1.2293
13599SOL    HW241376   0.358   6.860   6.459 -2.3815 -0.7980 -1.4871
13600SOL     OW41377   3.202   4.117   0.552 -0.3250 -0.0030  0.5317
13600SOL    HW141378   3.177   4.192   0.497  1.4020  1.4676  1.6225
13600SOL    HW241379   3.176   4.143   0.640 -0.1848 -0.9283  0.8507
13601SOL     OW41380   4.137   7.533   3.360 -0.4153  0.1627 -0.2833
13601SOL    HW141381   4.096   7.520   3.445  0.4733  0.1135  0.1546
13601SOL    HW241382   4.161   7.445   3.331 -1.2568  0.1226 -0.8672
13602SOL     OW41383   3.438   7.148   8.315  0.1295  0.0870  0.1074
13602SOL    HW141384   3.395   7.124   8.234  3.1238 -1.6115 -1.1714
13602SOL    HW241385   3.409   7.082   8.378 -1.2388  0.6559  0.0945
13603SOL     OW41386   2.129   4.258   5.063  0.0293  0.8918  0.2243
13603SOL    HW141387   2.079   4.214   5.132 -1.4428  3.2252  0.7586
13603SOL    HW241388   2.214   4.276   5.103 -0.8002  2.2025  1.4712
13604SOL     OW41389   0.559   9.837   5.484 -0.2564 -0.3281 -0.1444
13604SOL    HW141390   0.628   9.772   5.502 -1.2839 -1.1241  1.0831
13604SOL    HW241391   0.478   9.794   5.513 -1.3358  0.4449 -1.9101
13605SOL     OW41392   4.917   8.559   7.777 -1.0451  0.2080 -0.0828
13605SOL    HW141393   4.970   8.532   7.701  0.4560 -0.4610  1.1598
13605SOL    HW241394   4.944   8.649   7.794 -1.4410  0.3849 -0.3796
13606SOL     OW41395   5.121   8.688   6.755 -0.9727  0.6921  0.4607
13606SOL    HW141396   5.038   8.650   6.785 -0.8561 -0.4830 -0.5883
13606SOL    HW241397   5.184   8.617   6.766 -0.6027  0.7788 -0.9324
13607SOL     OW41398   3.499   0.291   2.191 -0.7142  0.4124  0.0073
13607SOL    HW141399   3.443   0.245   2.129 -0.8407 -1.8386  1.6874
13607SOL    HW241400   3.485   0.247   2.275  1.6102  1.4659  1.0537
13608SOL     OW41401   2.922   8.017   0.429  0.4973  0.0935 -0.3266
13608SOL    HW141402   2.831   8.042   0.411  0.3370 -0.2893 -0.0586
13608SOL    HW241403   2.965   8.020   0.344  0.1908  0.1151 -0.4816
13609SOL     OW41404   9.931   3.424   9.816 -0.1836 -0.0399 -0.1154
13609SOL    HW141405   9.966   3.434   9.728  1.4355  0.1434  0.5031
13609SOL    HW241406   9.983   3.485   9.869  0.0734 -1.3771  1.2424
13610SOL     OW41407   7.247   2.711   5.349  0.1442 -0.4809 -0.2481
13610SOL    HW141408   7.173   2.749   5.396  0.2228  0.6028 -0.9494
13610SOL    HW241409   7.312   2.694   5.417  0.1187  0.7186  0.1058
13611SOL     OW41410   6.396   5.291   5.037 -0.5775 -0.3988  0.5728
13611SOL    HW141411   6.462   5.341   4.989 -0.1656 -1.6031 -0.1804
13611SOL    HW241412   6.416   5.306   5.129  0.3697 -0.2468  0.3541
13612SOL     OW41413   7.889   4.310   5.901 -0.3891 -0.0004 -0.3770
13612SOL    HW141414   7.844   4.249   5.844 -1.0074  2.7229 -3.0634
13612SOL    HW241415   7.818   4.359   5.944  0.0799 -1.4327  2.2166
13613SOL     OW41416   9.576   4.726   8.185  0.3589 -0.3913  0.3046
13613SOL    HW141417   9.598   4.777   8.263 -2.0437  0.7156  0.3438
13613SOL    HW241418   9.497   4.679   8.209 -0.3292 -0.1692 -1.3975
13614SOL     OW41419   3.837   8.526   6.986 -0.0437  0.1976 -0.3733
13614SOL    HW141420   3.923   8.486   6.967  0.6901  2.0497 -1.1717
13614SOL    HW241421   3.830   8.598   6.924 -2.4325 -0.1871 -0.6515
13615SOL     OW41422   1.644   3.935   1.036 -0.4390  0.0136  0.5220
13615SOL    HW141423   1.622   4.001   0.971 -0.0056 -0.6402 -0.3042
13615SOL    HW241424   1.734   3.910   1.017 -0.0812  0.2708  1.7874
13616SOL     OW41425   5.316   7.594   6.385 -0.0175 -0.2340  0.5900
13616SOL    HW141426   5.370   7.548   6.322 -0.2733  1.4702 -0.9376
13616SOL    HW241427   5.227   7.585   6.352 -0.0006  1.9328 -0.1903
13617SOL     OW41428   9.140   7.701   6.413  0.1640  0.0745  0.4181
13617SOL    HW141429   9.181   7.705   6.327  1.9573  1.5225  1.2439
13617SOL    HW241430   9.063   7.758   6.407 -0.6896 -1.1558 -0.6496
13618SOL     OW41431   6.629   8.430   7.228 -0.5131  0.0703  0.2456
13618SOL    HW141432   6.602   8.491   7.297 -1.7660 -1.5618  1.2733
13618SOL    HW241433   6.549   8.411   7.179 -0.4515 -1.6377  0.7202
13619SOL     OW41434   2.326   0.863   5.003 -0.3719  0.6358 -0.0362
13619SOL    HW141435   2.332   0.958   5.013 -0.0288  0.5683  0.4425
13619SOL    HW241436   2.403   0.838   4.952  0.7321  0.3767  1.6747
13620SOL     OW41437   4.629   5.266   5.427  0.1454  0.1320  0.7283
13620SOL    HW141438   4.658   5.232   5.342  1.3409  1.8926  0.3736
13620SOL    HW241439   4.577   5.343   5.405  0.5456  0.6604  1.5720
13621SOL     OW41440   5.422   8.997   5.930 -0.8257  0.1439  0.5227
13621SOL    HW141441   5.459   8.994   6.018 -1.2424  1.4860  0.7682
13621SOL    HW241442   5.342   8.945   5.936  0.2239 -1.5499  0.3621
13622SOL     OW41443   3.371   2.425   5.658 -0.5309 -0.2516  0.0460
13622SOL    HW141444   3.345   2.361   5.592 -1.3370  0.2844 -0.1675
13622SOL    HW241445   3.347   2.385   5.741  1.3137 -1.3320  0.1310
13623SOL     OW41446   6.857   9.300   7.648  0.1633  0.2151 -0.2518
13623SOL    HW141447   6.870   9.393   7.628  0.6927  0.1146 -0.4040
13623SOL    HW241448   6.942   9.271   7.681  0.1198 -0.3112 -0.5898
13624SOL     OW41449   8.693   1.923   2.242 -0.5737  0.2188 -0.1497
13624SOL    HW141450   8.642   1.932   2.323 -2.8182 -0.2865 -1.4256
13624SOL    HW241451   8.633   1.879   2.181  1.1043  0.4400 -2.0419
13625SOL     OW41452   5.351   2.388   5.571  0.4317 -0.0057 -0.2637
13625SOL    HW141453   5.261   2.392   5.537 -0.7257  2.2248  2.6584
13625SOL    HW241454   5.347   2.322   5.641  1.0281  0.2236 -0.0126
13626SOL     OW41455   2.125   6.266   9.319 -0.3376  0.4101 -0.2842
13626SOL    HW141456   2.103   6.290   9.409 -1.1730 -1.4332  0.0454
13626SOL    HW241457   2.206   6.216   9.327 -1.4331 -1.4501 -0.2700
13627SOL     OW41458   4.916   7.609   3.096  0.2639  0.4065  0.5399
13627SOL    HW141459   4.850   7.668   3.060  0.7487  1.0013  0.6036
13627SOL    HW241460   4.978   7.596   3.025 -0.5760 -1.1841  0.0585
13628SOL     OW41461   9.588   0.448   1.711 -0.4954 -0.4863  0.1900
13628SOL    HW141462   9.665   0.444   1.655 -0.7174 -1.5476 -0.0507
13628SOL    HW241463   9.623   0.461   1.799  0.0034 -1.5267  0.1579
13629SOL     OW41464   5.508   8.210   6.773 -0.2143 -0.3895 -0.6677
13629SOL    HW141465   5.428   8.212   6.827 -0.6703  0.9013 -1.3675
13629SOL    HW241466   5.488   8.265   6.698  0.6195 -1.7061 -1.9089
13630SOL     OW41467   0.248   7.814   3.727 -0.1295 -0.1768  0.7432
13630SOL    HW141468   0.255   7.801   3.632  1.3474  1.7655  0.5242
13630SOL    HW241469   0.154   7.813   3.744 -0.4182 -0.7725 -0.7056
13631SOL     OW41470   5.688   4.384   1.921 -0.2487  0.2613 -0.3006
13631SOL    HW141471   5.598   4.360   1.946 -0.1514  1.2149  1.0655
13631SOL    HW241472   5.695   4.476   1.945  0.8713  0.3961 -1.1058
13632SOL     OW41473   2.043   1.238   4.490 -0.4622 -0.1240 -0.0823
13632SOL    HW141474   2.105   1.273   4.555 -1.4786 -0.0368  0.8752
13632SOL    HW241475   2.094   1.230   4.410 -0.0205  3.1427 -0.2515
13633SOL     OW41476   1.894   8.391   7.052  0.2662 -0.2614  0.0843
13633SOL    HW141477   1.989   8.392   7.063  0.2635 -0.4814  0.1426
13633SOL    HW241478   1.862   8.340   7.127  0.1330 -0.5124 -0.1398
13634SOL     OW41479   3.703   1.387   6.260  0.5196 -0.2091 -0.1469
13634SOL    HW141480   3.677   1.438   6.184  2.2951  0.9111 -0.0635
13634SOL    HW241481   3.778   1.434   6.296  1.1974 -1.9889  0.9145
13635SOL     OW41482   1.551   3.479   5.650 -0.3868  0.1581  0.0206
13635SOL    HW141483   1.498   3.532   5.590  2.0936  2.3420 -0.3816
13635SOL    HW241484   1.543   3.390   5.616  0.5321  1.2280 -3.3646
13636SOL     OW41485   3.684   7.391   7.771 -0.2387  0.2018 -0.8509
13636SOL    HW141486   3.667   7.297   7.779  0.0046  0.2157 -0.1195
13636SOL    HW241487   3.687   7.423   7.861 -0.1585  0.8860 -1.0891
13637SOL     OW41488   7.384   4.108   7.802 -0.1215  0.0258  0.1500
13637SOL    HW141489   7.289   4.118   7.810 -0.2485  0.1123 -1.2743
13637SOL    HW241490   7.418   4.142   7.885 -1.1823  2.6002 -0.3478
13638SOL     OW41491   3.196   2.907   1.660  0.7118  0.1629 -0.2888
13638SOL    HW141492   3.111   2.933   1.693  0.9560  0.0171  0.4716
13638SOL    HW241493   3.250   2.986   1.667  0.8371  0.0593 -0.0960
13639SOL     OW41494   3.594   4.408   7.968 -0.5703 -0.1300 -0.1986
13639SOL    HW141495   3.656   4.345   8.003 -0.2392  0.4797  0.3348
13639SOL    HW241496   3.629   4.432   7.883 -0.0197  0.2713  0.1334
13640SOL     OW41497   5.471   5.751   6.058 -0.3207  0.5056 -0.2237
13640SOL    HW141498   5.525   5.752   5.979  0.1942  0.7556  0.1258
13640SOL    HW241499   5.392   5.703   6.033 -0.1883  0.6367 -0.9063
13641SOL     OW41500   7.003   5.295   4.199  0.8364  0.5888  0.3078
13641SOL    HW141501   6.948   5.359   4.154  1.0396  0.7060  0.2233
13641SOL    HW241502   7.047   5.346   4.267 -0.4677  0.1663  1.5230
13642SOL     OW41503   4.720   3.052   0.155  0.7779 -0.3141 -0.0810
13642SOL    HW141504   4.712   3.121   0.221  2.0700 -0.6558  0.4605
13642SOL    HW241505   4.734   2.972   0.206  0.6178 -0.7719 -0.7428
13643SOL     OW41506   2.054   3.596   4.686  0.2153  0.6506 -0.4525
13643SOL    HW141507   2.094   3.611   4.601 -0.7465  2.4305 -0.6365
13643SOL    HW241508   1.961   3.588   4.668  0.1449 -0.4232  0.2929
13644SOL     OW41509   2.497   2.701   9.466  0.3220  0.0426 -0.2816
13644SOL    HW141510   2.467   2.791   9.475 -1.9168 -0.2741 -3.2367
13644SOL    HW241511   2.592   2.707   9.461  0.2541  2.1493  0.2379
13645SOL     OW41512   5.503   0.524   3.981  0.5376 -0.2191  0.0754
13645SOL    HW141513   5.564   0.548   3.911  1.0954 -1.8772 -0.0474
13645SOL    HW241514   5.419   0.561   3.954  1.1619  0.8183 -0.4930
13646SOL     OW41515   6.872   7.059   1.536 -0.5028  0.1924 -0.1090
13646SOL    HW141516   6.866   7.114   1.615  0.3033 -0.4189  0.3935
13646SOL    HW241517   6.959   7.020   1.541 -0.9238 -0.8432 -0.6540
13647SOL     OW41518   5.100   0.098   5.259 -0.4808 -0.4061  0.2441
13647SOL    HW141519   5.065   0.178   5.220  1.3861  0.8421  0.9915
13647SOL    HW241520   5.142   0.052   5.186 -0.5575 -0.1309  0.0280
13648SOL     OW41521   2.064   0.588   9.298  0.0367  0.0100 -0.5845
13648SOL    HW141522   2.077   0.590   9.392  0.4257  0.7592 -0.6500
13648SOL    HW241523   2.059   0.494   9.276  0.2734 -0.1701  0.1268
13649SOL     OW41524   7.437   3.731   3.819 -0.0272  0.1368  0.0161
13649SOL    HW141525   7.365   3.717   3.757 -0.1713 -1.5870  0.5209
13649SOL    HW241526   7.495   3.793   3.775 -1.0198  0.3459 -1.0608
13650SOL     OW41527   2.821   7.175   4.134 -0.1456 -0.5847  0.6617
13650SOL    HW141528   2.876   7.098   4.122 -0.7785 -1.3012  2.1468
13650SOL    HW241529   2.869   7.246   4.091  1.3408 -1.4376  0.8578
13651SOL     OW41530   8.285   7.156   3.091 -0.3211  0.3134  0.2401
13651SOL    HW141531   8.274   7.202   3.174 -1.8025 -1.9639  1.4031
13651SOL    HW241532   8.197   7.156   3.052  0.0630  0.1240 -0.6542
13652SOL     OW41533   3.890   7.777   2.776 -0.5543  0.0558  0.0916
13652SOL    HW141534   3.873   7.844   2.843  1.3973  1.0695 -0.3354
13652SOL    HW241535   3.902   7.826   2.695 -1.7311 -1.0714 -0.8053
13653SOL     OW41536   8.652   5.852   7.019 -0.0153  0.3409 -0.3810
13653SOL    HW141537   8.597   5.897   7.083  0.9023 -0.1666  0.8121
13653SOL    HW241538   8.741   5.872   7.045  0.3969 -0.9937 -0.6705
13654SOL     OW41539   1.336   5.911   6.870 -0.4509  0.5070  0.0179
13654SOL    HW141540   1.274   5.856   6.919 -1.1328  1.6687  0.4840
13654SOL    HW241541   1.344   5.991   6.922  1.1755  0.5327 -0.2237
13655SOL     OW41542   9.094   2.865   6.891  0.6531 -0.4348  0.1681
13655SOL    HW141543   9.145   2.790   6.923  0.7710 -0.4312 -0.0100
13655SOL    HW241544   9.085   2.850   6.797  0.7282 -0.1973  0.1206
13656SOL     OW41545   1.118   4.746   1.301  0.3254  0.0439 -0.1929
13656SOL    HW141546   1.087   4.671   1.352 -1.2191  1.1903  0.6019
13656SOL    HW241547   1.147   4.810   1.366  2.4854 -0.1301 -0.8763
13657SOL     OW41548   3.827   9.621   9.665 -0.4096 -0.2363  0.2804
13657SOL    HW141549   3.913   9.581   9.681 -0.4409 -0.3007  0.2888
13657SOL    HW241550   3.780   9.609   9.748 -0.6181 -0.6883  0.0981
13658SOL     OW41551   4.727   2.225   0.718 -0.2087 -0.4370  0.2472
13658SOL    HW141552   4.751   2.218   0.625  2.1629  1.4674  0.6155
13658SOL    HW241553   4.683   2.309   0.726 -2.4720 -1.5863  0.5353
13659SOL     OW41554   2.052   1.735   5.949 -0.0540  0.3423 -0.6896
13659SOL    HW141555   1.997   1.784   6.010 -0.3686 -0.2499 -0.4891
13659SOL    HW241556   1.990   1.677   5.904  0.4770 -0.6406 -0.1590
13660SOL     OW41557   0.319   7.995   4.347 -0.0326 -0.0824 -0.1479
13660SOL    HW141558   0.366   7.916   4.320 -0.2551 -0.7683  1.3680
13660SOL    HW241559   0.352   8.014   4.435 -1.5141  0.2674  0.3629
13661SOL     OW41560   1.637   8.534   0.719 -0.7891  0.2583  0.0867
13661SOL    HW141561   1.637   8.463   0.654  0.3947  1.3740 -1.2013
13661SOL    HW241562   1.687   8.604   0.677  0.8885  0.6724  2.5978
13662SOL     OW41563   0.408   8.227   9.517  0.0158 -0.1197 -0.1648
13662SOL    HW141564   0.366   8.191   9.595  1.7035  0.4267  1.0508
13662SOL    HW241565   0.502   8.222   9.535  0.4076  1.7393 -1.3648
13663SOL     OW41566   6.610   2.482   4.106  0.1711  0.2026  0.2131
13663SOL    HW141567   6.556   2.439   4.172  1.3681  1.4509  2.1240
13663SOL    HW241568   6.556   2.484   4.027 -1.0108 -2.0881  0.8867
13664SOL     OW41569   0.009   2.444   3.379 -0.0915  0.0069  0.1872
13664SOL    HW141570   0.061   2.443   3.459 -0.0334 -1.0879  0.1443
13664SOL    HW241571  -0.052   2.517   3.392  0.2396  0.1519  1.0143
13665SOL     OW41572   5.549   7.146   4.762  0.0231  0.3105 -0.0805
13665SOL    HW141573   5.526   7.058   4.731  1.2132 -0.0405  0.0138
13665SOL    HW241574   5.475   7.172   4.817  0.4625 -1.3795  1.4055
13666SOL     OW41575   6.883   5.581   6.570 -0.3507  0.3252 -0.2125
13666SOL    HW141576   6.892   5.497   6.525 -1.4004 -0.1790  0.4815
13666SOL    HW241577   6.845   5.559   6.655  1.4862  1.2720  0.9191
13667SOL     OW41578   8.706   8.161   8.357 -1.0549 -0.1731 -0.2808
13667SOL    HW141579   8.642   8.090   8.361 -2.4023  1.0223  0.4632
13667SOL    HW241580   8.661   8.233   8.312  0.1863  0.3185 -0.8125
13668SOL     OW41581   8.701   2.025   5.792  0.4472  0.2673 -0.9644
13668SOL    HW141582   8.725   2.017   5.885  3.7352  0.3440 -1.6745
13668SOL    HW241583   8.691   1.935   5.762 -1.7910  0.2500 -0.3774
13669SOL     OW41584   4.548   3.810   8.858 -0.3785  0.4539 -0.1208
13669SOL    HW141585   4.461   3.825   8.894 -1.6904 -0.2352 -2.7587
13669SOL    HW241586   4.548   3.857   8.775  2.4694  1.9434  0.5916
13670SOL     OW41587   3.745   0.735   2.547 -0.6497  0.4726 -0.0417
13670SOL    HW141588   3.677   0.694   2.601 -0.6748  0.2897 -0.2140
13670SOL    HW241589   3.772   0.811   2.598 -3.1191  2.3311 -1.2837
13671SOL     OW41590   9.152   3.470   1.764  0.0384  0.3989  0.0925
13671SOL    HW141591   9.083   3.476   1.697 -1.4657 -0.6475  1.4605
13671SOL    HW241592   9.113   3.509   1.842  0.3185 -1.6942  1.3613
13672SOL     OW41593   1.772   5.812   6.253  0.7383  0.2846 -0.3787
13672SOL    HW141594   1.762   5.862   6.172  0.7580  1.1784  0.1570
13672SOL    HW241595   1.696   5.837   6.306  0.1670 -1.0880 -0.5203
13673SOL     OW41596   3.771   8.835   2.915  0.3004 -0.0729 -0.4883
13673SOL    HW141597   3.861   8.832   2.946 -0.0133  1.9224  0.7570
13673SOL    HW241598   3.726   8.894   2.975 -1.6909 -0.4592 -1.4930
13674SOL     OW41599   6.187   0.790   2.520  0.1186 -0.0467 -0.4222
13674SOL    HW141600   6.276   0.822   2.506 -0.2545  0.4339 -1.8530
13674SOL    HW241601   6.137   0.868   2.542 -0.1084 -0.1875 -0.4370
13675SOL     OW41602   6.021   9.566   0.996  0.4906  0.3249  0.2936
13675SOL    HW141603   6.063   9.492   1.040 -0.2196 -0.1881  0.1282
13675SOL    HW241604   5.989   9.530   0.913 -0.2322  0.7035  0.3942
13676SOL     OW41605   0.147   2.533   3.606 -0.0029  0.1208 -0.0729
13676SOL    HW141606   0.076   2.505   3.664  0.5925  0.6553  0.9567
13676SOL    HW241607   0.177   2.615   3.644  0.6062  0.3390 -0.9955
13677SOL     OW41608   7.293   9.620   7.220 -0.1803  0.0684 -0.3345
13677SOL    HW141609   7.263   9.577   7.140  0.4839  1.5872 -1.4479
13677SOL    HW241610   7.213   9.643   7.267 -0.5996 -0.1305 -0.9510
13678SOL     OW41611   4.789   3.994   0.186  0.4074 -0.2876 -0.2110
13678SOL    HW141612   4.863   3.964   0.239  0.4965 -1.1951 -0.8390
13678SOL    HW241613   4.715   3.992   0.246  0.2789 -2.3901 -0.3466
13679SOL     OW41614   0.540   3.582   9.149  0.0545  0.0743  0.8880
13679SOL    HW141615   0.546   3.575   9.244  1.0084  2.2189  1.0401
13679SOL    HW241616   0.452   3.617   9.134  0.3599  0.9365  1.0800
13680SOL     OW41617   5.258   5.453   2.187 -0.6659  0.0170 -0.1681
13680SOL    HW141618   5.298   5.510   2.121  3.6006  0.7632  2.6111
13680SOL    HW241619   5.232   5.513   2.257 -2.2850 -0.9975  0.1357
13681SOL     OW41620   0.760   8.656   2.581 -0.3473  0.2181 -0.2901
13681SOL    HW141621   0.831   8.597   2.604 -1.3358 -1.1013 -0.4507
13681SOL    HW241622   0.724   8.685   2.665 -0.5064 -0.2394 -0.1973
13682SOL     OW41623   3.685   2.950   8.612 -0.7590 -0.5184 -0.4849
13682SOL    HW141624   3.763   2.925   8.660 -0.6202 -0.3283 -0.6110
13682SOL    HW241625   3.690   3.045   8.605 -1.0898 -0.4872 -0.3397
13683SOL     OW41626   0.597   7.544   6.306 -0.2951  0.3640 -0.3135
13683SOL    HW141627   0.573   7.636   6.317  1.3341  0.6024  1.8542
13683SOL    HW241628   0.528   7.496   6.350 -0.5223  0.6073 -0.3980
13684SOL     OW41629   4.077   2.540   7.944  0.3200  0.2012 -0.0823
13684SOL    HW141630   4.058   2.470   8.006  0.4740 -0.8787 -1.2071
13684SOL    HW241631   4.024   2.614   7.973  0.2164 -0.3511  1.1739
13685SOL     OW41632   9.766   2.748   0.983 -0.1521 -0.5179  0.3506
13685SOL    HW141633   9.709   2.688   0.935  0.1881 -0.6162  0.0624
13685SOL    HW241634   9.708   2.818   1.014 -0.8227 -1.6917  1.9047
13686SOL     OW41635   8.010   3.783   0.173 -0.0959  0.3574 -0.0117
13686SOL    HW141636   8.066   3.773   0.250 -0.2199 -3.0940 -0.2213
13686SOL    HW241637   7.925   3.808   0.209  0.2292  0.3212  0.8102
13687SOL     OW41638   1.905   1.169   5.997  0.1642  0.9075  0.1166
13687SOL    HW141639   1.920   1.256   6.033  1.1397  0.1196  1.6930
13687SOL    HW241640   1.992   1.134   5.982 -0.2180  0.0388 -0.1359
13688SOL     OW41641   0.732   4.998   6.707 -0.5717  0.1124  0.1694
13688SOL    HW141642   0.751   5.081   6.752 -0.7942  0.6354 -0.6689
13688SOL    HW241643   0.797   4.995   6.636 -1.0217 -0.0707 -0.2387
13689SOL     OW41644   2.377   3.312   4.995  0.3172  0.1525  0.2771
13689SOL    HW141645   2.397   3.234   4.942  0.6978  0.4259  0.0145
13689SOL    HW241646   2.319   3.364   4.939 -0.8389 -0.4471  0.8781
13690SOL     OW41647   3.443   3.606   6.061 -0.7857 -0.4256 -0.2989
13690SOL    HW141648   3.539   3.603   6.066 -0.7715  0.5895  0.4187
13690SOL    HW241649   3.415   3.516   6.078 -0.0084 -0.4060  1.2906
13691SOL     OW41650   9.086   2.736   9.463 -0.2096 -0.3501  0.2225
13691SOL    HW141651   9.053   2.654   9.428  0.9454 -0.7503  0.0163
13691SOL    HW241652   9.018   2.766   9.524 -1.6222 -0.3488 -1.2746
13692SOL     OW41653   2.659   9.082   1.195  0.3572  0.2626 -0.5021
13692SOL    HW141654   2.748   9.105   1.220  0.6986 -1.4004 -0.0798
13692SOL    HW241655   2.616   9.059   1.278 -0.6742  1.6237 -0.6175
13693SOL     OW41656   4.058   0.508   9.100 -0.0188  0.1410  0.0252
13693SOL    HW141657   4.046   0.441   9.033  1.7207  0.9834 -1.2070
13693SOL    HW241658   3.988   0.572   9.083 -0.0752 -0.0532 -0.4802
13694SOL     OW41659   1.738   1.022   5.807 -0.0462  0.1140 -0.2544
13694SOL    HW141660   1.776   1.075   5.877  3.1896  1.1270 -2.5362
13694SOL    HW241661   1.813   1.000   5.751 -2.0680 -2.7354 -2.0822
13695SOL     OW41662   8.445   0.812   0.765  0.0232  0.0558  0.4839
13695SOL    HW141663   8.462   0.884   0.704  3.2819  0.7085  1.9790
13695SOL    HW241664   8.395   0.852   0.836  0.4406  0.4924  0.5399
13696SOL     OW41665   2.674   6.443   5.906  0.0877 -0.0466  0.3264
13696SOL    HW141666   2.604   6.506   5.890  0.2637  0.3537  1.1098
13696SOL    HW241667   2.630   6.358   5.909 -0.5892  0.3201  2.1391
13697SOL     OW41668   2.696   8.132   6.117  0.1512 -0.1286 -0.1944
13697SOL    HW141669   2.719   8.093   6.202  3.1831  0.5511 -0.5686
13697SOL    HW241670   2.641   8.066   6.075  2.9464 -3.0009  0.2229
13698SOL     OW41671   4.306   9.296   3.185 -0.4742 -0.5418 -0.5078
13698SOL    HW141672   4.363   9.293   3.262 -0.8643 -3.1570 -0.2310
13698SOL    HW241673   4.291   9.389   3.170  1.1044  0.1000  1.4561
13699SOL     OW41674   5.141   6.425   2.647  0.2068 -0.1728 -0.4104
13699SOL    HW141675   5.144   6.385   2.560 -0.2168  1.0805 -1.0270
13699SOL    HW241676   5.059   6.395   2.685  0.0710 -0.1822 -0.7106
13700SOL     OW41677   5.298   2.318   0.707  0.1763 -0.4462  0.2188
13700SOL    HW141678   5.376   2.268   0.681 -0.6106 -1.9365  0.6304
13700SOL    HW241679   5.226   2.256   0.698 -0.6279  0.1282  2.2606
13701SOL     OW41680   2.917   8.180   0.806  0.0757 -0.0368  0.0610
13701SOL    HW141681   2.886   8.092   0.827  1.5127 -1.1331 -2.0892
13701SOL    HW241682   2.860   8.209   0.735 -0.9809  1.2064  1.3545
13702SOL     OW41683   9.306   3.960   5.102  0.3145 -0.5737  0.2135
13702SOL    HW141684   9.313   4.011   5.182 -0.8523 -1.3112  0.8215
13702SOL    HW241685   9.231   3.902   5.117 -0.3628 -0.2589 -1.6587
13703SOL     OW41686   3.460   4.238   1.619 -0.3850  0.4800  0.1133
13703SOL    HW141687   3.417   4.166   1.666  1.7986 -1.7944 -1.1100
13703SOL    HW241688   3.454   4.213   1.527 -0.0598  2.2035 -0.4101
13704SOL     OW41689   0.830   9.501   1.434 -0.0826  0.2357 -0.1320
13704SOL    HW141690   0.790   9.424   1.475 -0.5514  0.3011 -0.4586
13704SOL    HW241691   0.758   9.563   1.424  0.4540  1.0542  0.9043
13705SOL     OW41692   0.066   8.176   5.270  0.5905 -0.3817  0.0626
13705SOL    HW141693   0.087   8.171   5.363  3.1243 -1.3344 -0.4926
13705SOL    HW241694   0.066   8.085   5.241 -0.9978 -0.1552 -0.7386
13706SOL     OW41695   5.745   7.560   9.542  0.1841  0.3289 -0.5468
13706SOL    HW141696   5.753   7.656   9.546 -0.0353  0.3946 -1.5040
13706SOL    HW241697   5.681   7.539   9.610 -0.5222  0.9719 -0.9931
13707SOL     OW41698   2.131   5.048   0.794 -0.4777 -0.0199  0.5204
13707SOL    HW141699   2.120   4.985   0.865 -1.6020 -1.4457 -0.8720
13707SOL    HW241700   2.219   5.084   0.808 -0.7373 -0.1014  2.7259
13708SOL     OW41701   9.739   7.396   7.207  0.5410  0.0638  0.0349
13708SOL    HW141702   9.780   7.416   7.291 -1.6168 -1.1000  1.4435
13708SOL    HW241703   9.685   7.473   7.187 -0.7640 -0.5896  0.9324
13709SOL     OW41704   8.555   1.016   5.361  0.0411  0.0395 -0.0382
13709SOL    HW141705   8.546   1.096   5.413 -2.5841 -0.4380  0.3674
13709SOL    HW241706   8.486   1.022   5.296 -0.5379 -2.1081  0.3141
13710SOL     OW41707   4.801   9.656   3.131  0.2510  0.0719 -0.1708
13710SOL    HW141708   4.859   9.697   3.067 -0.7068 -0.7921 -1.6529
13710SOL    HW241709   4.761   9.729   3.177  2.1532  0.6912  0.5834
13711SOL     OW41710   0.070   1.356   9.672 -0.6834  0.1836  0.3085
13711SOL    HW141711   0.126   1.312   9.608 -0.0254  1.3247  0.0645
13711SOL    HW241712  -0.011   1.306   9.673  0.3933 -1.6562  0.8109
13712SOL     OW41713   4.990   7.983   8.389 -0.2879  0.2720  0.1344
13712SOL    HW141714   5.029   7.927   8.456  1.5388 -0.3138 -1.3358
13712SOL    HW241715   4.922   7.928   8.350  1.5430 -1.0777 -1.3533
13713SOL     OW41716   2.195   8.704   9.642  0.2817  0.1250 -0.0763
13713SOL    HW141717   2.142   8.745   9.710 -0.9037 -0.0650 -0.8573
13713SOL    HW241718   2.162   8.614   9.637  0.1463  0.2217 -1.1062
13714SOL     OW41719   9.304   1.659   5.057 -0.2266 -0.3707  0.3435
13714SOL    HW141720   9.221   1.611   5.060 -0.8321  0.2843 -2.4712
13714SOL    HW241721   9.371   1.591   5.055 -0.7030 -0.9234  2.0071
13715SOL     OW41722   5.242   8.537   7.034 -0.4562  0.5645 -0.2200
13715SOL    HW141723   5.302   8.542   7.108  0.1181 -0.9228 -0.5420
13715SOL    HW241724   5.247   8.623   6.993  1.8790  0.3790 -0.5094
13716SOL     OW41725   0.817   2.554   1.402 -0.2286  0.2043 -0.0068
13716SOL    HW141726   0.788   2.631   1.354 -0.1708  0.7071  0.7502
13716SOL    HW241727   0.742   2.531   1.457 -0.8909 -1.3242 -1.4621
13717SOL     OW41728   5.652   3.871   0.286 -0.1682  0.1700 -0.3662
13717SOL    HW141729   5.701   3.951   0.266  0.3037  0.2875  1.0919
13717SOL    HW241730   5.665   3.858   0.380 -1.8281 -0.5654 -0.1954
13718SOL     OW41731   4.738   3.339   8.303 -0.4013  0.1843 -0.2895
13718SOL    HW141732   4.784   3.423   8.295 -1.2449  0.8227  1.2376
13718SOL    HW241733   4.798   3.285   8.355 -1.0736  0.8337  1.2225
13719SOL     OW41734   8.497   3.970   5.714 -0.1149  0.2446  0.6513
13719SOL    HW141735   8.519   4.009   5.629  2.0620 -1.4951  0.3285
13719SOL    HW241736   8.418   4.017   5.742 -0.2209  1.6823 -1.7621
13720SOL     OW41737   0.661   7.161   0.675 -0.3432  0.6354  0.9557
13720SOL    HW141738   0.654   7.079   0.724  0.5740  0.9217  1.5753
13720SOL    HW241739   0.755   7.168   0.654 -0.5696  1.0181  0.0207
13721SOL     OW41740   5.737   6.743   9.278 -0.3348  0.0056 -0.0789
13721SOL    HW141741   5.812   6.757   9.336 -0.3182  1.0836 -0.3433
13721SOL    HW241742   5.668   6.709   9.335 -0.7327  2.2289  0.8587
13722SOL     OW41743   0.874   2.726   6.978 -0.7519 -0.6733 -0.3417
13722SOL    HW141744   0.833   2.788   6.918 -0.6712 -1.1656 -0.9122
13722SOL    HW241745   0.904   2.654   6.923  0.8849 -0.3438  0.0417
13723SOL     OW41746   2.698   3.043   2.687 -0.1116  0.1094  0.1058
13723SOL    HW141747   2.787   3.013   2.668  0.2397  0.8864  0.4538
13723SOL    HW241748   2.645   3.008   2.616  0.2629 -1.3318  0.5067
13724SOL     OW41749   0.624   1.745   6.828 -0.4075  0.0309 -0.4785
13724SOL    HW141750   0.685   1.699   6.772 -1.2762 -1.6361 -0.1216
13724SOL    HW241751   0.674   1.819   6.863  1.0253 -0.6225 -1.0761
13725SOL     OW41752   8.345   7.876   6.039  0.1499 -0.3081  0.1450
13725SOL    HW141753   8.440   7.872   6.025  0.6111  1.9080  1.9744
13725SOL    HW241754   8.313   7.935   5.971 -0.1032 -1.6299 -0.9391
13726SOL     OW41755   1.854   5.456   6.586 -0.1762 -0.4150  0.0437
13726SOL    HW141756   1.786   5.434   6.521  1.6903  1.0695 -2.6226
13726SOL    HW241757   1.886   5.542   6.558  2.2212 -0.6962  1.6925
13727SOL     OW41758   0.007   1.517   6.355 -0.5783 -0.2058  0.0572
13727SOL    HW141759  -0.001   1.592   6.297 -0.6402  0.0769  0.4278
13727SOL    HW241760   0.097   1.520   6.387 -1.1197  0.8550  1.5969
13728SOL     OW41761   9.930   7.588   3.950 -0.5118 -0.1557  0.0596
13728SOL    HW141762   9.976   7.512   3.988 -1.4868 -0.6093  0.3708
13728SOL    HW241763   9.931   7.653   4.020 -1.0947 -0.4864  0.3844
13729SOL     OW41764   5.572   6.065   1.893  0.3488  0.0665 -0.2148
13729SOL    HW141765   5.505   5.998   1.911  1.4472 -0.5412  1.9906
13729SOL    HW241766   5.655   6.019   1.903  1.1840  1.9114  2.5421
13730SOL     OW41767   7.464   5.218   3.288  0.1855 -0.2363  0.0463
13730SOL    HW141768   7.470   5.199   3.382  0.8071  0.8212  0.2452
13730SOL    HW241769   7.510   5.145   3.246  2.3957  0.6271  0.7626
13731SOL     OW41770   6.067   9.449   4.993 -0.1365  0.3556  0.1953
13731SOL    HW141771   6.117   9.449   4.912 -0.0812  0.0501  0.2281
13731SOL    HW241772   5.976   9.464   4.965 -0.3683 -1.3404 -0.0961
13732SOL     OW41773   3.184   0.317   4.921  0.2063 -0.0338 -0.2214
13732SOL    HW141774   3.207   0.390   4.979 -0.0834 -0.4095  0.3879
13732SOL    HW241775   3.202   0.349   4.833  3.2336 -0.3342  0.1730
13733SOL     OW41776   7.802   8.850   8.747  0.3728  0.3594  0.2732
13733SOL    HW141777   7.801   8.914   8.819  0.3636 -0.7715  1.3066
13733SOL    HW241778   7.712   8.816   8.746  0.4235  0.2474 -0.1634
13734SOL     OW41779   6.701   7.762   3.245  0.6065  0.4822  0.2633
13734SOL    HW141780   6.639   7.698   3.282 -0.2010  0.5725 -0.8996
13734SOL    HW241781   6.659   7.846   3.258  0.4830  0.5471 -0.5247
13735SOL     OW41782   0.957   9.811   0.719  0.2104 -0.2256 -0.3374
13735SOL    HW141783   0.868   9.788   0.692  0.2537 -2.4579  1.1307
13735SOL    HW241784   1.005   9.728   0.716  1.9349  0.7057  0.0971
13736SOL     OW41785   9.760   9.696   9.144 -0.3246  0.2002  0.3673
13736SOL    HW141786   9.810   9.777   9.158  0.3943 -0.0190 -0.8244
13736SOL    HW241787   9.786   9.667   9.057 -0.7261 -1.2114  0.7026
13737SOL     OW41788   1.983   1.096   1.259  0.3285 -0.5054 -0.4281
13737SOL    HW141789   2.020   1.042   1.329 -1.5443 -1.3286 -0.0111
13737SOL    HW241790   1.946   1.033   1.197 -0.9102  0.2599 -0.5004
13738SOL     OW41791   1.362   1.415   4.535  0.1343 -0.2140  0.1211
13738SOL    HW141792   1.410   1.373   4.606  0.2600  1.2747  0.9514
13738SOL    HW241793   1.428   1.431   4.467  0.1722 -0.9311 -0.0173
13739SOL     OW41794   7.962   7.655   8.977 -0.0636 -0.4860 -0.3560
13739SOL    HW141795   8.020   7.609   8.916 -0.5564 -2.3439  0.5001
13739SOL    HW241796   7.994   7.632   9.064 -0.5195  0.5787  0.1141
13740SOL     OW41797   5.073   5.110   1.585 -0.1030  0.0841  0.1784
13740SOL    HW141798   4.982   5.088   1.567  0.2994 -3.5219  1.6084
13740SOL    HW241799   5.070   5.198   1.622 -3.1721 -0.3925  1.3257
13741SOL     OW41800   2.336   5.996   2.587  0.6695 -0.1326 -0.0643
13741SOL    HW141801   2.338   5.900   2.585 -1.0101 -0.1934  0.1390
13741SOL    HW241802   2.319   6.018   2.678 -0.7504  0.2844 -0.4113
13742SOL     OW41803   5.074   9.591   0.710 -0.0885  0.2063 -0.1890
13742SOL    HW141804   4.979   9.606   0.710 -0.3684 -1.3516  0.0997
13742SOL    HW241805   5.111   9.672   0.744 -1.3483  0.6988  0.0761
13743SOL     OW41806   6.431   7.836   9.497 -0.2843 -0.1831  0.3922
13743SOL    HW141807   6.508   7.879   9.535 -0.0840 -1.0148  0.9528
13743SOL    HW241808   6.467   7.766   9.443 -0.6470 -0.6143  0.7078
13744SOL     OW41809   6.291   6.772   8.265  0.3295 -0.5141  0.3657
13744SOL    HW141810   6.299   6.826   8.343 -1.2105 -1.6069  1.3480
13744SOL    HW241811   6.197   6.770   8.247  0.5340 -1.3580 -0.7217
13745SOL     OW41812   1.651   7.360   9.828 -0.6656  0.1391  0.0322
13745SOL    HW141813   1.697   7.372   9.911 -1.0882  0.0575  0.2840
13745SOL    HW241814   1.610   7.274   9.837  0.8395 -0.7342 -1.0158
13746SOL     OW41815   7.649   8.131   2.635 -0.3141 -0.4476  0.5714
13746SOL    HW141816   7.665   8.037   2.626 -2.0607 -0.8869  1.6333
13746SOL    HW241817   7.693   8.170   2.559 -3.0245 -2.5521 -2.3552
13747SOL     OW41818   2.634   3.822   0.003  0.4909 -0.2367 -0.1119
13747SOL    HW141819   2.658   3.746   0.057  0.5037 -0.7921 -0.8658
13747SOL    HW241820   2.648   3.898   0.059 -0.6141 -0.8551  1.0437
13748SOL     OW41821   2.252   9.846   0.418 -0.1051  0.6205 -0.2704
13748SOL    HW141822   2.213   9.904   0.484 -0.0454  0.8709 -0.4536
13748SOL    HW241823   2.234   9.758   0.450  0.3316  0.7423  0.3224
13749SOL     OW41824   7.307   4.963   2.404  0.6261 -0.0756  0.0869
13749SOL    HW141825   7.293   5.039   2.461 -0.0287 -0.0854 -0.0486
13749SOL    HW241826   7.351   4.998   2.327  0.9909  0.0387  0.3447
13750SOL     OW41827   9.532   4.481   1.792 -0.2278  0.0697  0.5662
13750SOL    HW141828   9.585   4.412   1.832  0.3903 -0.5052 -1.1677
13750SOL    HW241829   9.441   4.455   1.809  0.0027 -0.9797  0.2436
13751SOL     OW41830   0.665   8.088   2.546 -0.0642  0.4395 -0.2096
13751SOL    HW141831   0.604   8.018   2.571 -0.5005 -0.2045 -2.7246
13751SOL    HW241832   0.751   8.051   2.564 -0.3047 -0.6487 -1.1089
13752SOL     OW41833   6.258   7.646   7.413 -0.0858  0.0648  0.0602
13752SOL    HW141834   6.220   7.729   7.443 -1.3834 -0.2904 -0.5109
13752SOL    HW241835   6.280   7.599   7.494  0.0875  0.7031  0.3935
13753SOL     OW41836   3.863   0.322   6.059  0.1228  0.3580  0.1145
13753SOL    HW141837   3.789   0.371   6.023 -0.4928 -0.0611  0.7965
13753SOL    HW241838   3.884   0.367   6.141 -0.7394 -0.7715  0.9779
13754SOL     OW41839   4.475   3.231   3.192 -0.3826 -0.0117  0.7047
13754SOL    HW141840   4.532   3.248   3.268 -0.0769 -1.3060  0.7991
13754SOL    HW241841   4.403   3.293   3.201  1.3749  2.2399  0.1587
13755SOL     OW41842   3.276   9.609   6.061 -0.1634  0.1060  0.3361
13755SOL    HW141843   3.342   9.672   6.091 -0.4660  1.4119 -1.5228
13755SOL    HW241844   3.314   9.570   5.983 -1.7232  1.2774 -1.0829
13756SOL     OW41845   2.599   4.956   5.715 -0.4287  0.1903  0.0758
13756SOL    HW141846   2.689   4.931   5.736  0.0830  0.4384 -1.6651
13756SOL    HW241847   2.545   4.895   5.765  0.6151  1.0912  2.4941
13757SOL     OW41848   6.321   4.657   3.389 -0.4955  0.0726 -0.0706
13757SOL    HW141849   6.370   4.655   3.471 -0.6044 -0.4722 -0.0141
13757SOL    HW241850   6.371   4.715   3.332  0.2678 -0.5524 -0.0494
13758SOL     OW41851   6.640   9.531   7.829  0.3516  0.2991 -0.1403
13758SOL    HW141852   6.558   9.541   7.780  0.0613 -0.7113  0.1170
13758SOL    HW241853   6.692   9.606   7.802 -0.3477  0.5298 -0.9289
13759SOL     OW41854   4.559   7.213   4.655 -0.0719  0.1211 -0.1784
13759SOL    HW141855   4.481   7.169   4.689  0.4862  0.0524  1.0733
13759SOL    HW241856   4.632   7.157   4.681  0.7249  1.9996  2.0068
13760SOL     OW41857   5.296   4.935   5.441 -0.1072 -0.4590  0.2711
13760SOL    HW141858   5.279   4.855   5.491  0.6579 -0.6084  0.2931
13760SOL    HW241859   5.350   4.907   5.368 -0.5442 -0.0985 -0.2025
13761SOL     OW41860   9.614   4.928   9.330  0.6003  0.0352  0.2412
13761SOL    HW141861   9.584   4.977   9.254  1.1456 -0.2791 -0.1867
13761SOL    HW241862   9.633   4.840   9.296  0.5248 -0.2078  0.8079
13762SOL     OW41863   0.633   2.985   0.241 -0.1481 -0.0215  0.7728
13762SOL    HW141864   0.697   3.056   0.235 -1.1329  1.0464  2.0025
13762SOL    HW241865   0.591   2.983   0.155  1.8920 -1.1516 -0.2504
13763SOL     OW41866   7.882   7.211   5.550  0.8794 -0.3026 -0.4131
13763SOL    HW141867   7.908   7.157   5.475 -0.5145 -1.5130 -0.0794
13763SOL    HW241868   7.920   7.167   5.626 -0.5773 -1.0876 -0.1015
13764SOL     OW41869   6.832   4.487   8.794  0.3948  0.5586 -0.1762
13764SOL    HW141870   6.756   4.475   8.737 -0.1603  0.8671  0.5003
13764SOL    HW241871   6.878   4.403   8.789  0.2672  0.5226 -0.9447
13765SOL     OW41872   8.607   8.375   8.897 -0.2336  0.0222 -0.2929
13765SOL    HW141873   8.634   8.464   8.873 -2.0474  0.0284 -2.5171
13765SOL    HW241874   8.670   8.319   8.852  1.3441  0.0974  1.6674
13766SOL     OW41875   9.307   3.347   8.726  0.1020  1.0116  0.2218
13766SOL    HW141876   9.271   3.391   8.649  0.1631  0.9379  0.1499
13766SOL    HW241877   9.308   3.414   8.794 -1.5367  0.6424  0.6514
13767SOL     OW41878   6.141   5.317   3.404  0.0134  0.0961  0.4062
13767SOL    HW141879   6.143   5.405   3.365  0.4253  0.2847  0.8338
13767SOL    HW241880   6.232   5.301   3.430 -0.4129  0.4327  2.2733
13768SOL     OW41881   6.833   4.049   1.050 -1.1067 -0.0280 -0.3333
13768SOL    HW141882   6.772   4.016   1.116 -0.6531 -0.6725 -0.2238
13768SOL    HW241883   6.888   3.974   1.029  1.4244  1.1411  1.5522
13769SOL     OW41884   4.355   2.057   5.910 -0.1255 -0.3501  0.7291
13769SOL    HW141885   4.297   1.988   5.879 -1.0392  1.0215 -0.7819
13769SOL    HW241886   4.305   2.101   5.979  0.1864 -0.7487  1.2203
13770SOL     OW41887   4.352   6.314   8.404 -0.2476 -0.0975  0.6958
13770SOL    HW141888   4.327   6.405   8.394 -2.1517 -0.7663 -1.6592
13770SOL    HW241889   4.445   6.316   8.424  0.1111  2.3452 -0.8837
13771SOL     OW41890   5.309   3.499   1.537 -0.4757  0.7510 -0.1212
13771SOL    HW141891   5.221   3.524   1.566 -0.9557  0.6213 -1.4033
13771SOL    HW241892   5.294   3.424   1.479  0.4403  0.9703 -0.6527
13772SOL     OW41893   5.275   6.050   4.459 -0.0319  0.7581 -0.0816
13772SOL    HW141894   5.308   5.982   4.400 -0.5229 -1.8407  2.4480
13772SOL    HW241895   5.331   6.045   4.536 -2.1902  0.8163  1.5778
13773SOL     OW41896   9.650   8.034   9.164  0.0177  0.0329 -0.3943
13773SOL    HW141897   9.626   7.947   9.194 -1.1679 -0.0207 -1.4407
13773SOL    HW241898   9.657   8.086   9.245 -2.6650 -0.2164  0.0973
13774SOL     OW41899   6.975   7.804   3.938 -0.2066 -0.1748  0.0192
13774SOL    HW141900   6.976   7.710   3.959  0.2437 -0.5842 -1.6576
13774SOL    HW241901   7.046   7.840   3.991  1.0511 -1.2003 -0.8799
13775SOL     OW41902   6.330   5.228   0.428  0.2873 -0.8285  0.7045
13775SOL    HW141903   6.323   5.140   0.389 -1.4656 -0.4065 -0.0576
13775SOL    HW241904   6.418   5.257   0.406  0.6093 -2.0811  0.2465
13776SOL     OW41905   3.816   9.809   3.504 -0.3956  0.0623 -0.6365
13776SOL    HW141906   3.742   9.755   3.477 -1.2806 -0.1492  1.9477
13776SOL    HW241907   3.788   9.899   3.488 -0.8725 -0.0549 -0.4558
13777SOL     OW41908   1.023   2.019   4.496  0.1416  0.2033 -0.1264
13777SOL    HW141909   0.989   2.104   4.468  0.1717  0.8240  1.5990
13777SOL    HW241910   1.031   2.027   4.591  2.0708 -1.0341 -0.1350
13778SOL     OW41911   9.308   1.610   9.499 -0.4347 -0.2599  0.0022
13778SOL    HW141912   9.298   1.523   9.539  2.1454 -0.5352  0.2860
13778SOL    HW241913   9.310   1.592   9.405 -0.1570 -0.5061  0.0506
13779SOL     OW41914   9.267   6.053   8.084  0.1159  0.0291 -0.4100
13779SOL    HW141915   9.277   5.960   8.107  0.3694  0.4957  1.5336
13779SOL    HW241916   9.341   6.096   8.126 -0.2824  1.1848 -0.8674
13780SOL     OW41917   6.890   9.744   3.581 -0.4271  0.6474  0.2851
13780SOL    HW141918   6.890   9.704   3.494 -1.0257 -0.3747  0.7373
13780SOL    HW241919   6.969   9.710   3.623 -1.3594 -0.7720  0.9621
13781SOL     OW41920   2.252   8.131   3.585  0.0802 -0.3667 -0.0513
13781SOL    HW141921   2.180   8.172   3.634 -0.2175  0.9557 -1.5102
13781SOL    HW241922   2.329   8.182   3.610  0.8488 -2.5147  2.4267
13782SOL     OW41923   2.589   3.247   0.450  0.5700 -0.1690 -0.5425
13782SOL    HW141924   2.636   3.228   0.532  0.6434 -1.8806 -0.9495
13782SOL    HW241925   2.653   3.294   0.397  1.7850 -2.1302 -0.9394
13783SOL     OW41926   4.119   2.257   2.951  0.3340  0.0891  0.1960
13783SOL    HW141927   4.209   2.234   2.975  0.6265 -0.0596 -1.0059
13783SOL    HW241928   4.103   2.340   2.997  0.4343 -0.7917  1.8787
13784SOL     OW41929   5.814   2.287   8.696 -0.0987 -0.0256  0.3366
13784SOL    HW141930   5.754   2.347   8.741 -1.2281 -1.3416  0.6361
13784SOL    HW241931   5.761   2.247   8.627  1.2971  1.0852 -1.4587
13785SOL     OW41932   1.949   5.237   6.094 -0.2028 -0.4821 -0.0788
13785SOL    HW141933   1.952   5.333   6.097  0.3172 -0.4195 -1.5698
13785SOL    HW241934   1.957   5.210   6.185 -0.4493  0.8887  0.3820
13786SOL     OW41935   9.500   1.762   6.913 -0.1649 -0.3922 -1.0473
13786SOL    HW141936   9.441   1.787   6.841  0.6100  2.0520 -0.9422
13786SOL    HW241937   9.535   1.845   6.945  1.4365 -1.5911  0.5385
13787SOL     OW41938   1.182   3.838   5.626  0.2162 -0.1304  0.5147
13787SOL    HW141939   1.193   3.933   5.632  0.0717  0.1571 -2.1901
13787SOL    HW241940   1.125   3.815   5.699  1.7981  1.5335  2.3666
13788SOL     OW41941   8.994   1.922   3.302  0.0406 -0.3110 -0.3328
13788SOL    HW141942   8.972   2.000   3.354  0.1296 -0.1869 -0.4787
13788SOL    HW241943   9.090   1.919   3.304  0.1364  0.5844 -1.7646
13789SOL     OW41944   9.339   3.591   0.829 -0.0583  0.4924  0.0399
13789SOL    HW141945   9.333   3.618   0.921  1.2884 -0.9920  0.6033
13789SOL    HW241946   9.429   3.559   0.819 -0.4280 -0.1430 -1.5989
13790SOL     OW41947   7.756   4.652   0.155  0.3683  0.0684  0.0354
13790SOL    HW141948   7.680   4.630   0.210  0.7146  0.5336  0.7112
13790SOL    HW241949   7.749   4.593   0.081 -0.2625 -0.3930  0.4490
13791SOL     OW41950   1.869   1.278   9.379 -0.0594  0.0857 -0.0211
13791SOL    HW141951   1.917   1.309   9.303  1.4588 -1.3326  0.2847
13791SOL    HW241952   1.778   1.271   9.350 -0.4036  3.7493 -0.3568
13792SOL     OW41953   7.522   9.299   8.476  0.3578 -0.7878  0.5573
13792SOL    HW141954   7.491   9.257   8.396  0.6981 -1.7454  0.9163
13792SOL    HW241955   7.448   9.352   8.505  0.0378 -0.8711 -0.0798
13793SOL     OW41956   2.064   3.460   8.868  0.2540 -0.2553  0.4553
13793SOL    HW141957   1.974   3.473   8.839  0.9755  2.4107 -0.8828
13793SOL    HW241958   2.056   3.407   8.947 -2.4156 -0.6688  0.0138
13794SOL     OW41959   8.935   6.039   6.601  0.4538  0.5990  0.1695
13794SOL    HW141960   8.841   6.022   6.607  0.4007  1.0885  0.8937
13794SOL    HW241961   8.975   5.955   6.623  0.2077 -0.1592 -2.0533
13795SOL     OW41962   7.875   4.757   7.845 -0.7690  0.0033 -0.3984
13795SOL    HW141963   7.812   4.749   7.773 -2.0271 -0.5962  0.7341
13795SOL    HW241964   7.922   4.673   7.844  0.5540  0.7027 -1.6734
13796SOL     OW41965   4.526   0.070   5.518  0.1194  0.2297  0.2374
13796SOL    HW141966   4.497   0.119   5.441  0.0819 -0.8365 -0.4436
13796SOL    HW241967   4.456   0.007   5.535  0.7035 -0.4062  0.3537
13797SOL     OW41968   8.713   7.645   3.733 -0.0501 -0.0787  0.4396
13797SOL    HW141969   8.698   7.672   3.642  0.7064  1.8299  0.8304
13797SOL    HW241970   8.786   7.583   3.728 -1.7171 -2.0981 -0.4761
13798SOL     OW41971   8.759   7.642   0.962 -0.9377 -0.3126 -0.0269
13798SOL    HW141972   8.670   7.674   0.950 -1.3269 -0.8094  1.3720
13798SOL    HW241973   8.782   7.667   1.051  0.2827 -0.3029 -0.3266
13799SOL     OW41974   9.224   0.034   4.517 -0.0049  0.4699  0.1014
13799SOL    HW141975   9.235  -0.048   4.468 -0.7786 -0.3601  1.2480
13799SOL    HW241976   9.299   0.087   4.493  1.1886 -1.0752  0.2779
13800SOL     OW41977   3.332   8.637   5.910  0.7415  0.3369 -0.3971
13800SOL    HW141978   3.418   8.663   5.943  0.7864  0.2263 -0.4263
13800SOL    HW241979   3.349   8.560   5.856  0.9488  1.6397 -2.3013
13801SOL     OW41980   5.890   6.609   6.981  0.0133  0.2263 -0.8881
13801SOL    HW141981   5.941   6.528   6.988  1.6878  1.3210  0.1571
13801SOL    HW241982   5.852   6.620   7.067  0.0757  0.7278 -0.9251
13802SOL     OW41983   2.207   0.143   8.951  0.3832 -0.5676  0.4717
13802SOL    HW141984   2.140   0.143   8.883  2.5949 -0.0635 -1.8283
13802SOL    HW241985   2.158   0.128   9.032 -2.3936 -1.0042 -1.1546
13803SOL     OW41986   1.692   6.635   9.318  0.1588 -0.1678 -0.4024
13803SOL    HW141987   1.733   6.583   9.388 -2.2881 -2.3531 -0.4282
13803SOL    HW241988   1.761   6.644   9.252  1.2085 -1.9665  0.3661
13804SOL     OW41989   2.144   9.696   2.576  0.3032  0.2791 -0.0658
13804SOL    HW141990   2.123   9.649   2.496 -0.1175 -0.8856  0.7011
13804SOL    HW241991   2.162   9.627   2.640 -1.1313  1.1136  1.3206
13805SOL     OW41992   8.266   1.509   5.800  0.7334  0.2402  0.2466
13805SOL    HW141993   8.355   1.482   5.822  1.1515  0.6615 -0.8889
13805SOL    HW241994   8.270   1.604   5.795 -0.1505  0.3916  1.6986
13806SOL     OW41995   7.022   1.004   0.558 -0.3825  0.2844  0.1499
13806SOL    HW141996   6.948   0.955   0.594  0.7240 -0.9209  0.8843
13806SOL    HW241997   7.074   1.029   0.634  0.0833  0.9403 -0.3659
13807SOL     OW41998   2.215   2.270   5.682 -0.5874  0.3093 -0.0423
13807SOL    HW141999   2.246   2.322   5.756  0.0357 -1.1561  0.7602
13807SOL    HW242000   2.166   2.198   5.721  1.3146 -1.5556 -0.8997
13808SOL     OW42001   4.793   9.209   1.745  0.2498 -0.0269  0.1140
13808SOL    HW142002   4.850   9.148   1.698  1.2006  0.5804  0.4626
13808SOL    HW242003   4.779   9.168   1.830 -1.9596 -1.4223 -0.8285
13809SOL     OW42004   2.658   5.887   6.212 -0.1334  0.1361  0.2957
13809SOL    HW142005   2.603   5.843   6.277 -0.9885 -1.2395 -1.2803
13809SOL    HW242006   2.692   5.816   6.158 -0.1786  1.2795 -1.3034
13810SOL     OW42007   2.559   1.903   3.393  0.4889 -0.9440  0.0438
13810SOL    HW142008   2.549   1.894   3.298  0.6873 -3.1780  0.1881
13810SOL    HW242009   2.497   1.972   3.417 -1.0967 -1.7862 -1.4318
13811SOL     OW42010   3.688   8.855   7.305  0.1142 -0.2755 -0.2298
13811SOL    HW142011   3.659   8.798   7.233 -0.2945  0.7961 -0.9463
13811SOL    HW242012   3.772   8.891   7.275  0.0497  0.0006 -0.0840
13812SOL     OW42013   3.030   1.630   5.288  0.0627 -0.3815 -0.3158
13812SOL    HW142014   3.067   1.578   5.216  1.5879 -0.7766  0.7120
13812SOL    HW242015   2.997   1.709   5.246  0.4818 -0.8190 -1.5168
13813SOL     OW42016   3.648   6.820   6.161  0.4809  0.0782 -0.3550
13813SOL    HW142017   3.554   6.839   6.167  0.7057  0.7984  1.8987
13813SOL    HW242018   3.689   6.905   6.148  0.8875 -0.0650 -0.0327
13814SOL     OW42019   6.278   5.918   8.820 -0.0186  0.0525  0.3151
13814SOL    HW142020   6.340   5.849   8.841 -0.7995 -1.3893 -1.7656
13814SOL    HW242021   6.208   5.908   8.885 -0.3395 -1.4830 -0.2116
13815SOL     OW42022   4.729   7.241   7.204  0.4624 -0.0535 -0.1594
13815SOL    HW142023   4.820   7.220   7.225  0.5772 -1.0166 -1.4871
13815SOL    HW242024   4.702   7.301   7.274  1.8806 -0.3057  0.6597
13816SOL     OW42025   1.567   2.560   5.900 -0.2566  0.4476 -0.2532
13816SOL    HW142026   1.501   2.491   5.896 -0.0725  0.2657 -0.1705
13816SOL    HW242027   1.560   2.594   5.989  0.5021 -0.3095  0.1124
13817SOL     OW42028   6.231   8.672   9.298  0.4215  0.0800 -0.5286
13817SOL    HW142029   6.190   8.671   9.385  2.4480  1.1631  0.5111
13817SOL    HW242030   6.165   8.712   9.241 -0.7170 -0.0713  0.6390
13818SOL     OW42031   5.663   6.766   2.934 -0.3464 -0.5404 -0.5165
13818SOL    HW142032   5.688   6.852   2.900  2.7264 -1.4507 -0.8060
13818SOL    HW242033   5.579   6.748   2.893 -0.9958  2.1863 -0.6130
13819SOL     OW42034   5.141   1.995   6.807 -0.5591  0.0440 -0.1070
13819SOL    HW142035   5.155   2.089   6.793 -0.0980  0.1477  0.9535
13819SOL    HW242036   5.113   1.989   6.899 -1.1833 -0.8030 -0.3395
13820SOL     OW42037   3.891   4.325   6.622  0.0179 -0.4700  0.4944
13820SOL    HW142038   3.900   4.340   6.528 -0.4107  3.0668  0.8594
13820SOL    HW242039   3.800   4.297   6.634 -0.5227  0.9592 -0.0443
13821SOL     OW42040   2.615   3.708   1.938 -0.5391  0.2022  0.3500
13821SOL    HW142041   2.577   3.661   1.864 -1.4179 -0.0103  0.9143
13821SOL    HW242042   2.668   3.777   1.899 -0.9714  0.0725 -0.4735
13822SOL     OW42043   0.490   0.061   9.209 -0.0691  0.4851  0.1432
13822SOL    HW142044   0.480   0.073   9.303  0.4842  0.6479  0.1838
13822SOL    HW242045   0.435  -0.014   9.188  0.7621 -0.3263  0.8002
13823SOL     OW42046   6.772   0.760   8.597 -0.1091  0.7735 -0.0815
13823SOL    HW142047   6.718   0.838   8.608 -1.6403 -0.2406 -0.0337
13823SOL    HW242048   6.793   0.758   8.504  1.2304  2.0316  0.1713
13824SOL     OW42049   7.357   9.823   4.473 -0.0862 -0.2077 -0.5187
13824SOL    HW142050   7.304   9.819   4.552  0.3141  0.3284 -0.2118
13824SOL    HW242051   7.295   9.848   4.404 -0.3305 -0.1034 -0.2637
13825SOL     OW42052   9.663   5.900   3.203 -0.2111 -0.0892 -0.1701
13825SOL    HW142053   9.740   5.866   3.156 -0.4307  0.4376 -0.9299
13825SOL    HW242054   9.663   5.852   3.286  0.8643 -0.1920 -0.2062
13826SOL     OW42055   8.395   0.054   2.930  1.5456  0.0822  0.0628
13826SOL    HW142056   8.424  -0.027   2.888 -1.5686 -0.4925 -1.2810
13826SOL    HW242057   8.442   0.124   2.884  3.2693 -0.8569  0.3367
13827SOL     OW42058   1.816   1.619   7.463 -0.5560 -0.1101  0.2073
13827SOL    HW142059   1.817   1.551   7.530 -1.4914  1.1354  1.5642
13827SOL    HW242060   1.735   1.668   7.480 -0.2653  0.9128 -1.1515
13828SOL     OW42061   2.002   3.943   0.456 -0.1617  0.5626 -0.0787
13828SOL    HW142062   1.979   3.981   0.371  0.3531  1.5126  0.1854
13828SOL    HW242063   1.964   4.004   0.519  0.5230  0.5338  0.3607
13829SOL     OW42064   0.318   8.524   9.719 -0.3597 -0.5931 -0.2089
13829SOL    HW142065   0.226   8.530   9.694 -0.4081  1.5660  0.3535
13829SOL    HW242066   0.361   8.485   9.642 -1.4990 -0.2159 -1.0602
13830SOL     OW42067   1.997   0.168   9.962 -0.0966 -0.6061 -0.2470
13830SOL    HW142068   2.017   0.109   9.889 -1.1024 -1.4085  0.0966
13830SOL    HW242069   2.032   0.124  10.039  0.1597 -0.1979 -0.1297
13831SOL     OW42070   4.630   3.040   1.585 -0.6614 -0.0355  0.5299
13831SOL    HW142071   4.589   2.981   1.522 -0.7480  1.4430 -0.8563
13831SOL    HW242072   4.567   3.112   1.594  0.7607  1.3313 -0.1504
13832SOL     OW42073   1.481   8.584   7.163  0.2873 -0.1428  0.1087
13832SOL    HW142074   1.391   8.615   7.179  0.7887  0.8713  1.0861
13832SOL    HW242075   1.479   8.491   7.186 -1.1287 -0.8259 -2.3926
13833SOL     OW42076   7.036   9.034   1.726 -0.1969 -0.2798 -0.0203
13833SOL    HW142077   6.965   9.073   1.777  0.1085  1.4128 -0.8372
13833SOL    HW242078   7.102   9.103   1.719 -0.0082 -0.6231 -2.2799
13834SOL     OW42079   8.338   1.768   5.736  0.5407 -0.3632 -0.4511
13834SOL    HW142080   8.248   1.778   5.707  0.7650 -1.1145 -1.4445
13834SOL    HW242081   8.375   1.857   5.732  0.4680 -0.3826 -2.1750
13835SOL     OW42082   9.294   9.603   3.945  0.3037  0.1065  0.0511
13835SOL    HW142083   9.386   9.613   3.971  0.0737 -0.2843  1.0786
13835SOL    HW242084   9.293   9.621   3.851  1.8161 -2.0106 -0.4454
13836SOL     OW42085   8.530   1.207   4.554 -0.7323  0.3474  0.1384
13836SOL    HW142086   8.439   1.235   4.562 -1.2009 -0.7022 -1.2582
13836SOL    HW242087   8.559   1.241   4.469 -0.5843 -1.3349 -0.5097
13837SOL     OW42088   9.390   3.037   9.372  0.0853 -0.2835 -0.0111
13837SOL    HW142089   9.422   3.034   9.282 -0.0074  0.8208 -0.1018
13837SOL    HW242090   9.320   2.973   9.375  0.0943 -0.3324 -0.7293
13838SOL     OW42091   2.673   9.619   2.804 -0.4836  0.2082 -0.3333
13838SOL    HW142092   2.750   9.635   2.750 -1.8795  1.9114 -1.9696
13838SOL    HW242093   2.682   9.679   2.877 -0.0661  0.1194 -0.3102
13839SOL     OW42094   3.007   6.052   0.961 -0.5091  0.0440 -0.3655
13839SOL    HW142095   2.946   6.069   0.890  2.0643 -0.1265 -2.7709
13839SOL    HW242096   2.976   5.971   1.001 -1.6827 -0.1606 -1.6309
13840SOL     OW42097   8.586   1.749   6.411 -0.1325 -0.3344 -0.2820
13840SOL    HW142098   8.563   1.765   6.502 -0.2165 -2.4706  0.1162
13840SOL    HW242099   8.526   1.805   6.361 -1.6374 -0.8092  0.9197
13841SOL     OW42100   1.795   2.058   3.495  0.0632  0.1804  0.8005
13841SOL    HW142101   1.735   2.131   3.512  1.9051  1.9110  0.3056
13841SOL    HW242102   1.875   2.082   3.542  0.8839 -1.3084  0.2174
13842SOL     OW42103   2.836   0.270   4.835 -0.8004 -0.5767  0.6066
13842SOL    HW142104   2.764   0.325   4.865 -1.6342 -0.1975 -1.8229
13842SOL    HW242105   2.915   0.319   4.858 -1.4506  0.6106  0.4055
13843SOL     OW42106   5.692   1.395   8.375 -1.1411 -0.6259 -0.4274
13843SOL    HW142107   5.666   1.327   8.437 -0.3013 -0.6227 -0.0527
13843SOL    HW242108   5.784   1.412   8.395 -1.3059  0.5607 -0.5710
13844SOL     OW42109   5.610   4.600   3.202  0.3004  0.8076  0.0916
13844SOL    HW142110   5.620   4.665   3.272  0.6854  1.2143 -0.3385
13844SOL    HW242111   5.698   4.587   3.167  0.0445  0.9525 -0.6295
13845SOL     OW42112   3.327   5.407   0.708  0.2661 -0.0335  0.0169
13845SOL    HW142113   3.312   5.475   0.642 -0.3225 -0.5384 -0.3730
13845SOL    HW242114   3.264   5.426   0.777 -0.9229 -1.0352 -0.7599
13846SOL     OW42115   0.665   6.473   4.984 -0.0013  0.2629 -0.4805
13846SOL    HW142116   0.637   6.477   5.076  1.1187  2.6560 -0.1627
13846SOL    HW242117   0.755   6.442   4.988  0.2285  0.8804 -0.6901
13847SOL     OW42118   8.110   0.514   2.080  0.6544 -0.6223 -0.0355
13847SOL    HW142119   8.090   0.600   2.043 -0.6484 -1.4663 -1.4654
13847SOL    HW242120   8.027   0.485   2.118  1.2178 -1.0437  0.9109
13848SOL     OW42121   1.172   8.633   6.126  0.6851  0.0965 -0.2567
13848SOL    HW142122   1.149   8.611   6.036  0.6466  0.4952 -0.3465
13848SOL    HW242123   1.094   8.676   6.160 -0.4122 -2.5777  0.8888
13849SOL     OW42124   8.666   9.168   4.677 -0.2076 -0.0734 -0.2633
13849SOL    HW142125   8.654   9.074   4.663  3.1674 -0.7749  0.6449
13849SOL    HW242126   8.593   9.193   4.734 -1.5744 -1.9685 -1.0721
13850SOL     OW42127   1.480   1.635   9.234  0.9076  0.4591 -0.2708
13850SOL    HW142128   1.545   1.700   9.264  0.3329  0.1006  1.8968
13850SOL    HW242129   1.522   1.593   9.158  2.7751  0.9512  0.4225
13851SOL     OW42130   1.551   9.086   1.035 -0.3976 -0.3331  0.3922
13851SOL    HW142131   1.646   9.095   1.039 -0.3708 -0.2489 -0.3430
13851SOL    HW242132   1.529   9.099   0.943 -1.1245 -0.3389  0.5556
13852SOL     OW42133   8.890   7.167   0.138 -0.6006 -1.3921  0.1710
13852SOL    HW142134   8.835   7.091   0.118 -0.7180 -0.8429 -1.8383
13852SOL    HW242135   8.975   7.145   0.101 -0.7474 -0.4059 -0.7967
13853SOL     OW42136   1.338   9.420   0.791 -0.4300  0.2952 -0.0367
13853SOL    HW142137   1.274   9.357   0.823 -0.5630  0.1563 -0.5588
13853SOL    HW242138   1.369   9.466   0.869  1.3488 -1.9360  0.7032
13854SOL     OW42139   1.876   3.927   3.572  0.1951 -0.2560 -0.5606
13854SOL    HW142140   1.856   3.891   3.486 -1.2694 -0.7207 -0.0585
13854SOL    HW242141   1.971   3.929   3.576  0.3039  0.4948 -2.4779
13855SOL     OW42142   7.197   7.035   1.258 -0.7075 -0.5937  0.0148
13855SOL    HW142143   7.201   7.024   1.163  0.2431  0.2098 -0.0591
13855SOL    HW242144   7.125   7.096   1.272 -0.9005 -0.7756 -0.1884
13856SOL     OW42145   9.234   5.008   6.247 -0.7348  0.5421  0.3522
13856SOL    HW142146   9.289   5.005   6.326  1.8030  0.8509 -1.2968
13856SOL    HW242147   9.182   4.928   6.251  3.0177 -2.1569 -0.0843
13857SOL     OW42148   4.148   7.094   3.376 -0.4056 -0.6060  0.1352
13857SOL    HW142149   4.077   7.135   3.425  0.7716 -0.6818  1.9972
13857SOL    HW242150   4.150   7.141   3.292 -1.1148  0.9865  0.9743
13858SOL     OW42151   8.394   7.698   2.685  0.1095  0.1239 -0.3678
13858SOL    HW142152   8.306   7.668   2.709  0.3851 -2.2909 -1.9662
13858SOL    HW242153   8.381   7.749   2.605  0.0549  0.9452  0.1527
13859SOL     OW42154   3.061   6.352   3.514 -0.2248 -0.1263 -0.7872
13859SOL    HW142155   3.116   6.275   3.526  0.9264  0.7851 -0.0000
13859SOL    HW242156   3.094   6.415   3.578 -1.2110  0.9812 -1.3406
13860SOL     OW42157   9.101   7.924   1.789  0.4895 -0.4955  0.1365
13860SOL    HW142158   9.094   7.896   1.881  1.6148 -0.1367  0.3386
13860SOL    HW242159   9.091   8.019   1.793 -0.9783 -0.6005 -0.2999
13861SOL     OW42160   8.501   0.681   9.516 -0.5656 -0.2504 -0.0049
13861SOL    HW142161   8.562   0.755   9.519 -1.0087  0.1354 -0.4577
13861SOL    HW242162   8.429   0.706   9.573  0.5851 -1.5403  2.1450
13862SOL     OW42163   6.869   7.228   8.993 -0.2919  0.4447  0.1751
13862SOL    HW142164   6.777   7.255   8.999 -0.0640  1.3309 -0.2911
13862SOL    HW242165   6.877   7.158   9.058 -1.2896  0.3752  0.2367
13863SOL     OW42166   8.441   2.609   6.461 -0.0557  0.3943  0.2415
13863SOL    HW142167   8.444   2.695   6.417  0.3770  0.8756  1.1810
13863SOL    HW242168   8.515   2.611   6.521 -1.6149  0.4802  2.2918
13864SOL     OW42169   0.264   4.016   6.595  0.1594  0.0802 -0.8503
13864SOL    HW142170   0.194   3.976   6.543 -3.1266  0.5696  2.6831
13864SOL    HW242171   0.258   4.110   6.575  1.6033 -0.1087 -2.3567
13865SOL     OW42172   8.024   1.233   8.112 -0.7202  0.5929 -0.4248
13865SOL    HW142173   7.932   1.234   8.139 -0.1714  3.3998  1.7501
13865SOL    HW242174   8.055   1.146   8.137 -2.3099  0.2935  0.6198
13866SOL     OW42175   1.575   5.893   0.313  0.4684 -0.2360 -0.1360
13866SOL    HW142176   1.531   5.977   0.326  1.3049 -0.0058  1.4594
13866SOL    HW242177   1.514   5.828   0.350 -0.0613 -0.3316 -1.1334
13867SOL     OW42178   6.693   6.713   7.675  0.3946  0.6398 -0.4931
13867SOL    HW142179   6.780   6.722   7.636  0.5720 -0.0307 -0.2530
13867SOL    HW242180   6.660   6.630   7.643 -0.6891  1.4572 -1.5892
13868SOL     OW42181   3.089   0.861   4.911  0.5222  0.9336  0.2961
13868SOL    HW142182   3.097   0.776   4.869 -1.0678  0.9288 -0.0843
13868SOL    HW242183   3.056   0.919   4.842  1.2968  1.7830  0.6273
13869SOL     OW42184   6.979   3.212   2.893 -0.4757 -0.2625  0.0416
13869SOL    HW142185   6.919   3.164   2.835 -1.0391  1.1341 -0.5598
13869SOL    HW242186   7.050   3.150   2.910 -1.8284 -1.7898  0.3854
13870SOL     OW42187   5.590   1.336   5.528 -0.4730 -0.1171  0.3416
13870SOL    HW142188   5.678   1.341   5.566  0.0779  2.9558 -1.0314
13870SOL    HW242189   5.533   1.317   5.602  0.9832  1.6053  2.0048
13871SOL     OW42190   3.173   0.374   7.856  0.0547  0.1794 -0.4676
13871SOL    HW142191   3.094   0.404   7.900 -0.7665 -1.0829 -1.0175
13871SOL    HW242192   3.168   0.413   7.769  0.0114  0.0839 -0.5090
13872SOL     OW42193   8.413   8.787   4.538 -0.0470  0.0950 -0.0835
13872SOL    HW142194   8.441   8.696   4.527  1.5433  0.6531 -0.9959
13872SOL    HW242195   8.323   8.788   4.508 -0.1180 -1.1856  0.0209
13873SOL     OW42196   9.296   7.192   2.724 -0.0150 -0.9261 -0.0977
13873SOL    HW142197   9.287   7.102   2.692 -0.4098 -0.6786 -0.6989
13873SOL    HW242198   9.299   7.245   2.644 -0.2041 -0.3719  0.2611
13874SOL     OW42199   9.401   5.941   0.739 -0.3873 -0.2587  0.1335
13874SOL    HW142200   9.439   5.932   0.651  1.9916 -1.3433  1.1772
13874SOL    HW242201   9.346   6.019   0.733 -2.1381 -1.5684 -2.8797
13875SOL     OW42202   8.386   2.262   0.922  0.2453  0.5923 -0.3353
13875SOL    HW142203   8.429   2.333   0.874 -1.1893  2.4825  1.0491
13875SOL    HW242204   8.424   2.266   1.010  0.7332 -0.9303 -0.4431
13876SOL     OW42205   9.235   0.879   4.508  0.4888 -0.9386 -0.2174
13876SOL    HW142206   9.216   0.967   4.476  1.2672 -0.8965 -0.5706
13876SOL    HW242207   9.323   0.860   4.478  1.2691 -0.9066  1.8627
13877SOL     OW42208   3.855   7.139   2.179  0.3659 -0.0699  0.7640
13877SOL    HW142209   3.846   7.224   2.221 -1.5521 -0.4317  1.1913
13877SOL    HW242210   3.770   7.124   2.137  1.5679 -0.5472 -1.7206
13878SOL     OW42211   7.732   2.769   3.680 -0.0337 -0.4044  0.3097
13878SOL    HW142212   7.650   2.803   3.715  1.0096  0.9378  1.5368
13878SOL    HW242213   7.797   2.789   3.747  0.7968 -4.5266  1.0439
13879SOL     OW42214   2.772   5.703   8.410  0.1121  0.1850 -0.2268
13879SOL    HW142215   2.700   5.674   8.353 -1.0903  2.6452 -0.1016
13879SOL    HW242216   2.848   5.655   8.379 -1.2534 -1.3496 -1.4122
13880SOL     OW42217   8.583   1.627   1.997 -0.5028  0.8514 -0.4804
13880SOL    HW142218   8.539   1.625   2.082 -1.7118  1.3174 -1.0636
13880SOL    HW242219   8.669   1.588   2.013 -0.6368  1.1165  0.9831
13881SOL     OW42220   2.757   3.304   2.041 -0.1287 -0.5675  0.0630
13881SOL    HW142221   2.716   3.312   2.127 -0.1182 -1.4821  0.1617
13881SOL    HW242222   2.808   3.224   2.046  1.3186  0.2884 -0.2145
13882SOL     OW42223   0.200   3.114   8.824  0.3577  0.0383 -0.5068
13882SOL    HW142224   0.237   3.202   8.832  1.4374 -0.4542  0.2521
13882SOL    HW242225   0.266   3.057   8.864 -0.4879 -1.0788 -0.6577
13883SOL     OW42226   9.460   5.179   7.012 -0.4875 -0.6854  0.4861
13883SOL    HW142227   9.400   5.138   7.073 -1.8028  2.4932  1.5373
13883SOL    HW242228   9.405   5.237   6.959  1.3273  0.5636 -0.1467
13884SOL     OW42229   0.472   6.399   2.474  0.0795 -0.0558 -0.2811
13884SOL    HW142230   0.462   6.312   2.511 -0.5305 -0.0319 -0.3707
13884SOL    HW242231   0.415   6.399   2.397 -0.8931  0.8118  0.4130
13885SOL     OW42232   0.279   1.879   2.165 -0.3034 -0.3129 -0.2702
13885SOL    HW142233   0.237   1.887   2.079  3.5898  0.6747 -2.2778
13885SOL    HW242234   0.272   1.786   2.186 -0.1281 -0.8514 -2.3620
13886SOL     OW42235   7.380   8.753   5.489 -0.1367 -0.6586 -0.2231
13886SOL    HW142236   7.376   8.835   5.539  1.4183 -1.2516  0.9808
13886SOL    HW242237   7.288   8.732   5.469 -0.6208  0.8741  0.2642
13887SOL     OW42238   0.387   3.095   4.408  0.1245 -0.1921 -0.6372
13887SOL    HW142239   0.311   3.122   4.357 -1.2824 -0.4558  1.2311
13887SOL    HW242240   0.365   3.007   4.439  0.7128  0.1700  0.8564
13888SOL     OW42241   2.267   0.729   1.722 -0.0353 -0.1889  0.4461
13888SOL    HW142242   2.255   0.714   1.628 -2.6180  1.3318  0.4514
13888SOL    HW242243   2.332   0.799   1.727 -0.7609  0.5548 -0.2825
13889SOL     OW42244   1.365   0.030   9.215  0.4870 -0.4332 -0.1429
13889SOL    HW142245   1.302  -0.002   9.149  0.1885 -2.0298  0.8685
13889SOL    HW242246   1.313   0.041   9.294  1.3404 -1.1721  0.5462
13890SOL     OW42247   0.549   4.033   4.069 -0.2639 -0.0061  0.1348
13890SOL    HW142248   0.577   4.052   3.979 -0.8618  2.0102  0.3161
13890SOL    HW242249   0.601   4.092   4.123 -1.6921  0.6451  0.8515
13891SOL     OW42250   2.874   0.209   9.918  0.4578  0.5391  0.6304
13891SOL    HW142251   2.779   0.219   9.920  0.5379  1.2568  1.7751
13891SOL    HW242252   2.888   0.115   9.906 -0.4170  0.1880  2.1710
13892SOL     OW42253   2.546   6.717   6.107 -0.0111  0.1020 -0.0744
13892SOL    HW142254   2.608   6.734   6.037 -0.6577  0.9814 -0.4611
13892SOL    HW242255   2.476   6.782   6.094  0.4234  1.1223  2.0696
13893SOL     OW42256   5.724   9.671   5.898 -0.6685 -0.2444 -0.0320
13893SOL    HW142257   5.660   9.674   5.969 -0.0121 -1.5540  0.6483
13893SOL    HW242258   5.717   9.583   5.863 -2.0364  0.8179 -2.6346
13894SOL     OW42259   9.502   9.193   5.317  0.8649  0.3025 -0.0692
13894SOL    HW142260   9.493   9.255   5.244  1.5084 -0.4128 -0.7816
13894SOL    HW242261   9.542   9.115   5.277 -0.0311 -0.6178  0.7850
13895SOL     OW42262   5.558   4.404   0.706  0.3278 -0.5510 -0.3060
13895SOL    HW142263   5.580   4.463   0.778 -2.2864 -0.4774  0.5439
13895SOL    HW242264   5.613   4.433   0.633  0.4561  1.7056  0.6262
13896SOL     OW42265   9.882   7.040   3.200 -0.1599 -0.6070 -0.4217
13896SOL    HW142266   9.954   7.007   3.254 -0.7401  0.6236  1.1891
13896SOL    HW242267   9.864   6.969   3.139  0.7559 -1.9527  0.7872
13897SOL     OW42268   4.349   9.932   6.978 -0.0104 -0.4748  0.1815
13897SOL    HW142269   4.348   9.856   7.037 -0.4081 -0.1770  0.5663
13897SOL    HW242270   4.423   9.984   7.010  1.1540 -1.3674 -0.9614
13898SOL     OW42271   7.551   4.451   4.387 -0.2449  0.1354  0.2771
13898SOL    HW142272   7.611   4.433   4.314 -0.4738 -1.0837  0.3730
13898SOL    HW242273   7.466   4.419   4.357 -0.1383 -1.3516  1.4541
13899SOL     OW42274   6.492   5.943   4.176  0.3386 -0.4332  0.3672
13899SOL    HW142275   6.571   5.991   4.202  2.6884 -1.7053 -3.5297
13899SOL    HW242276   6.502   5.857   4.217  1.3402 -0.7331 -0.4320
13900SOL     OW42277   4.206   8.999   5.907 -0.2778 -0.4260 -0.0008
13900SOL    HW142278   4.160   8.917   5.921  0.6696 -0.9579  0.0719
13900SOL    HW242279   4.136   9.064   5.895 -1.0349 -1.4250 -1.2213
13901SOL     OW42280   2.795   9.064   8.871 -0.3858  0.1817 -0.0310
13901SOL    HW142281   2.778   9.071   8.965 -2.0567  1.3830 -0.3747
13901SOL    HW242282   2.845   9.143   8.850 -1.2453  0.6429 -0.3783
13902SOL     OW42283   3.424   2.101   2.892  0.0744 -0.1791 -0.1960
13902SOL    HW142284   3.492   2.042   2.860  0.1600  0.4908 -1.3092
13902SOL    HW242285   3.375   2.127   2.814  1.2261  2.7137 -0.0813
13903SOL     OW42286   7.079   7.524   0.325  0.1297  0.1167 -0.2767
13903SOL    HW142287   7.106   7.583   0.255 -1.2567  1.6655  0.4307
13903SOL    HW242288   7.099   7.571   0.406  0.4883 -1.0901  0.3761
13904SOL     OW42289   1.395   4.167   3.572  0.7502 -0.0708  0.2019
13904SOL    HW142290   1.395   4.074   3.548 -1.1470  0.1259 -0.7624
13904SOL    HW242291   1.415   4.167   3.666  1.0552 -1.4218  0.1653
13905SOL     OW42292   9.022   1.493   0.603 -0.4331 -0.3971  0.4449
13905SOL    HW142293   8.953   1.556   0.624 -0.7720 -1.0656  1.4323
13905SOL    HW242294   8.975   1.419   0.564 -0.1131 -0.3087 -0.1154
13906SOL     OW42295   9.351   1.915   2.065  0.0878 -0.6548  0.3420
13906SOL    HW142296   9.364   2.009   2.074 -1.3384 -0.4964  1.0887
13906SOL    HW242297   9.256   1.904   2.064  0.2200 -1.9982 -0.9211
13907SOL     OW42298   1.586   0.771   7.332  0.1225  0.6031  0.3721
13907SOL    HW142299   1.545   0.753   7.247 -0.4228 -0.4418  0.8380
13907SOL    HW242300   1.517   0.813   7.383  0.3792  1.0161  0.3818
13908SOL     OW42301   2.903   8.137   4.630  0.0381  0.0670  0.7927
13908SOL    HW142302   2.919   8.127   4.724  1.9698 -0.1563  0.4898
13908SOL    HW242303   2.990   8.150   4.592 -0.7106  0.2969 -0.9618
13909SOL     OW42304   5.359   4.839   3.743 -0.1134  0.5489 -0.1425
13909SOL    HW142305   5.351   4.774   3.673 -1.3574  0.6572 -0.1255
13909SOL    HW242306   5.275   4.884   3.744 -0.4575 -0.0259  1.9935
13910SOL     OW42307   3.388   8.043   3.067 -0.4894  0.0386 -0.4575
13910SOL    HW142308   3.409   8.128   3.026  0.0347 -0.2121 -0.7154
13910SOL    HW242309   3.371   8.064   3.158 -0.2628  0.4128 -0.4986
13911SOL     OW42310   5.819   4.327   6.348  0.2593  0.0431 -0.2754
13911SOL    HW142311   5.837   4.404   6.402 -0.6567  1.3387 -1.7347
13911SOL    HW242312   5.726   4.334   6.326  0.1469 -1.5088 -0.4510
13912SOL     OW42313   4.569   9.550   2.982  0.6051 -0.1646  0.2476
13912SOL    HW142314   4.646   9.600   3.010  0.2434  1.1997 -1.0510
13912SOL    HW242315   4.498   9.580   3.039  0.7138 -0.3520  0.4846
13913SOL     OW42316   0.890   2.248   2.015  0.1882  0.3731  0.0097
13913SOL    HW142317   0.974   2.286   1.990  0.0729  0.5015 -0.1838
13913SOL    HW242318   0.833   2.262   1.939  0.4720 -1.2544 -0.5498
13914SOL     OW42319   9.618   9.114   9.514  0.6268 -0.4571  0.5550
13914SOL    HW142320   9.647   9.055   9.584 -1.7647 -3.7135 -0.8993
13914SOL    HW242321   9.557   9.174   9.557  1.1740 -0.6929  1.6899
13915SOL     OW42322   8.736   2.645   4.864 -0.2182  0.1222 -0.0918
13915SOL    HW142323   8.746   2.682   4.951  0.3336 -0.2595  0.0158
13915SOL    HW242324   8.648   2.668   4.837 -0.2540  0.5766  0.4106
13916SOL     OW42325   5.401   1.140   9.802 -0.1467  0.2467  0.2779
13916SOL    HW142326   5.413   1.065   9.861 -0.0045  0.2192  0.2131
13916SOL    HW242327   5.436   1.215   9.850 -1.5560  0.5264  0.9282
13917SOL     OW42328   6.677   0.060   7.625 -0.0841 -0.2059  0.1691
13917SOL    HW142329   6.622   0.120   7.675 -0.1522 -0.2156  0.1057
13917SOL    HW242330   6.629  -0.023   7.625 -0.4543  0.0018 -0.5692
13918SOL     OW42331   9.735   9.399   2.817 -0.2294 -0.2632  0.4574
13918SOL    HW142332   9.798   9.330   2.794  1.6365  1.2226  0.8671
13918SOL    HW242333   9.763   9.430   2.903 -2.4182 -0.4674  1.3131
13919SOL     OW42334   0.744   1.793   1.935 -0.4216  0.4531 -0.7712
13919SOL    HW142335   0.657   1.820   1.964  0.2798  1.8734  0.1121
13919SOL    HW242336   0.801   1.812   2.010  0.3007 -2.8415 -0.3485
13920SOL     OW42337   5.782   6.492   1.379  0.0755 -0.3705  0.2602
13920SOL    HW142338   5.736   6.419   1.420  0.0287  0.8301  2.5101
13920SOL    HW242339   5.858   6.506   1.435  1.2931 -0.0553 -1.3895
13921SOL     OW42340   7.565   7.078   9.871  0.5454 -0.2901 -0.8237
13921SOL    HW142341   7.474   7.050   9.865  0.3777 -0.3604  1.3488
13921SOL    HW242342   7.565   7.168   9.839 -0.3031 -0.2476 -0.7201
13922SOL     OW42343   8.337   8.112   8.167 -0.0439  0.4265 -0.5778
13922SOL    HW142344   8.385   8.044   8.215  0.8164  0.9840 -0.6331
13922SOL    HW242345   8.255   8.070   8.143  0.9268 -1.0065 -1.5992
13923SOL     OW42346   2.994   3.628   1.052 -0.6522 -0.0439  0.3466
13923SOL    HW142347   2.992   3.694   0.983  1.0853 -0.2256  0.0868
13923SOL    HW242348   3.000   3.678   1.133  0.7354  0.1586  0.1449
13924SOL     OW42349   3.545   3.864   8.302 -0.1395 -0.0011 -0.0964
13924SOL    HW142350   3.554   3.776   8.266  0.8398 -0.6286  1.5615
13924SOL    HW242351   3.462   3.896   8.267 -0.9615 -1.9236 -0.0552
13925SOL     OW42352   3.066   3.750   1.323  0.0958 -0.0003 -0.1349
13925SOL    HW142353   3.072   3.816   1.392  2.2276  0.3405 -0.5725
13925SOL    HW242354   3.078   3.667   1.368  0.5872  0.1530  0.0180
13926SOL     OW42355   5.797   6.301   5.014 -0.0461  0.1408 -0.0065
13926SOL    HW142356   5.844   6.306   4.930  0.9645 -1.5903  0.4082
13926SOL    HW242357   5.839   6.367   5.068 -0.7240  1.2948 -0.8393
13927SOL     OW42358   1.407   4.484   0.570 -0.3383 -0.0853  0.0349
13927SOL    HW142359   1.380   4.563   0.616  0.6891  0.1883  0.1850
13927SOL    HW242360   1.476   4.446   0.625 -1.0529 -1.2794  0.1404
13928SOL     OW42361   9.540   7.007   6.493  0.2243  0.1356  0.1019
13928SOL    HW142362   9.486   7.026   6.569  0.0018 -1.7876  0.4861
13928SOL    HW242363   9.477   6.999   6.421 -0.0319 -1.6496  0.4628
13929SOL     OW42364   6.232   0.645   6.963 -0.6204  0.3804 -0.2799
13929SOL    HW142365   6.224   0.580   6.892  0.2264  1.4935 -1.4267
13929SOL    HW242366   6.302   0.611   7.019 -0.0908  0.3699 -0.9461
13930SOL     OW42367   6.144   2.284   7.926  0.2131 -0.3994  0.7944
13930SOL    HW142368   6.206   2.267   7.855  0.6805  4.1837 -0.2196
13930SOL    HW242369   6.065   2.236   7.901  1.2829 -1.1919 -1.2926
13931SOL     OW42370   3.353   7.981   5.021  0.4507  0.0664 -0.1084
13931SOL    HW142371   3.264   8.008   5.040  0.2552  0.6129 -1.6459
13931SOL    HW242372   3.344   7.908   4.959  1.0684 -0.5903  0.5412
13932SOL     OW42373   1.137   5.189   9.333 -0.4450  0.4337  0.0348
13932SOL    HW142374   1.051   5.148   9.330  0.4705 -1.6618  0.4187
13932SOL    HW242375   1.197   5.120   9.304  1.2349  1.4126  1.0235
13933SOL     OW42376   5.704   9.262   1.987 -0.0537 -0.0729  0.5915
13933SOL    HW142377   5.782   9.250   2.041 -0.7668 -1.6759  1.3471
13933SOL    HW242378   5.662   9.340   2.023  0.8123  0.3661  0.6690
13934SOL     OW42379   5.148   5.158   3.180  0.0806 -0.5763 -0.8561
13934SOL    HW142380   5.066   5.147   3.132 -1.3066 -0.7006  1.4308
13934SOL    HW242381   5.182   5.242   3.150 -1.4385 -0.0053 -1.0682
13935SOL     OW42382   5.522   6.465   2.998 -0.6623 -0.0170  0.3625
13935SOL    HW142383   5.512   6.532   2.930 -3.6455 -0.0391  0.6181
13935SOL    HW242384   5.466   6.393   2.969  1.6979 -2.0634  0.5920
13936SOL     OW42385   3.767   0.193   1.536 -0.4575  0.0994 -0.2297
13936SOL    HW142386   3.800   0.160   1.452  1.5183  1.7519 -0.1709
13936SOL    HW242387   3.755   0.286   1.523 -2.3201  0.0398  0.7087
13937SOL     OW42388   6.465   6.252   7.616 -0.1886  0.2918  0.9816
13937SOL    HW142389   6.452   6.165   7.579  0.3278  1.1731 -1.4926
13937SOL    HW242390   6.548   6.247   7.663  0.1945 -0.3927  0.2565
13938SOL     OW42391   7.279   6.820   0.635  0.2840 -0.3200  0.5317
13938SOL    HW142392   7.323   6.736   0.618  0.8680  0.1365 -0.2768
13938SOL    HW242393   7.196   6.795   0.677  0.4716 -1.2996  0.3538
13939SOL     OW42394   0.948   3.311   2.333 -0.1685  0.3269  0.3699
13939SOL    HW142395   1.008   3.374   2.293 -1.0999  0.8471 -0.2475
13939SOL    HW242396   0.899   3.275   2.260 -1.7961  1.1773  0.9905
13940SOL     OW42397   1.767   7.256   4.784  0.2493  0.9143  0.1549
13940SOL    HW142398   1.848   7.293   4.819  0.9377  0.1260 -0.5527
13940SOL    HW242399   1.699   7.316   4.814  0.6706  0.0235  3.3329
13941SOL     OW42400   8.578   2.527   3.326 -0.2586 -0.8618  0.2252
13941SOL    HW142401   8.526   2.519   3.407 -0.0944 -1.7816  0.2552
13941SOL    HW242402   8.564   2.443   3.281  0.9586 -1.0040  0.0891
13942SOL     OW42403   4.881   1.181   2.611  0.1931 -0.3571  0.0093
13942SOL    HW142404   4.935   1.228   2.547  1.6870 -0.5278  1.0807
13942SOL    HW242405   4.863   1.246   2.680 -2.0034  0.0334 -0.8607
13943SOL     OW42406   3.052   8.556   6.043  0.0712 -0.2586 -0.4578
13943SOL    HW142407   3.104   8.579   5.966 -0.3352 -0.2180 -0.7222
13943SOL    HW242408   3.083   8.469   6.067  1.1935  0.2889  0.1852
13944SOL     OW42409   3.955   4.128   2.764  0.5081  0.0567  0.6044
13944SOL    HW142410   3.942   4.036   2.786  0.3171  0.0001  0.2600
13944SOL    HW242411   4.050   4.142   2.773  0.8554 -0.6984 -1.2825
13945SOL     OW42412   3.726   7.166   2.982 -0.0327 -0.1874 -0.0018
13945SOL    HW142413   3.634   7.144   2.966  0.8076 -2.1199 -3.0612
13945SOL    HW242414   3.734   7.258   2.957 -0.8890 -0.4090 -1.1839
13946SOL     OW42415   5.868   0.825   3.974  0.5702  0.1802 -0.6092
13946SOL    HW142416   5.909   0.910   3.989  0.3981  0.3801 -1.2191
13946SOL    HW242417   5.776   0.839   3.997  0.3016  0.4950 -1.8139
13947SOL     OW42418   8.026   1.664   3.692 -0.6167  0.1664  0.7331
13947SOL    HW142419   8.054   1.640   3.603  0.8211  1.1184  0.9074
13947SOL    HW242420   8.008   1.758   3.687  0.9218  0.5529  1.7766
13948SOL     OW42421   0.088   9.320   4.999  0.3777  0.4613 -0.0567
13948SOL    HW142422   0.153   9.250   4.994  1.1839  1.2646 -2.2152
13948SOL    HW242423   0.114   9.373   5.074  1.8430  0.3739 -0.4787
13949SOL     OW42424  -0.018   2.287   6.408 -0.0726  1.0604  0.1278
13949SOL    HW142425   0.065   2.334   6.415 -0.4448  1.8467 -0.6559
13949SOL    HW242426  -0.030   2.272   6.314 -0.1899 -0.1965  0.3287
13950SOL     OW42427   0.892   8.583   9.159 -0.1467  0.4690  0.8095
13950SOL    HW142428   0.944   8.579   9.079 -0.1358  0.8608  0.7935
13950SOL    HW242429   0.897   8.675   9.186 -1.6366  0.7346  0.2672
13951SOL     OW42430   3.164   2.318   8.901  0.2953 -0.2867  0.2270
13951SOL    HW142431   3.134   2.263   8.973  3.3492 -0.7860  1.2825
13951SOL    HW242432   3.190   2.400   8.942  0.3763  0.0993 -0.5820
13952SOL     OW42433   3.136   8.791   6.590 -0.2989  0.5929  0.0130
13952SOL    HW142434   3.061   8.744   6.555  0.1200  0.7942 -1.1960
13952SOL    HW242435   3.206   8.726   6.593  0.2020  1.0245 -1.3933
13953SOL     OW42436   3.773   7.796   2.191 -0.4026 -0.4167 -0.2425
13953SOL    HW142437   3.793   7.881   2.231  1.6441 -2.1026  2.7214
13953SOL    HW242438   3.678   7.793   2.188 -0.5354  1.8262 -0.1804
13954SOL     OW42439   6.227   4.800   5.264  0.3459 -0.0739  0.3514
13954SOL    HW142440   6.297   4.806   5.198 -0.6620  0.9408 -0.6629
13954SOL    HW242441   6.154   4.758   5.219  0.6013 -2.1690  1.7212
13955SOL     OW42442   0.338   5.023   8.989 -0.1223 -0.1383 -0.1851
13955SOL    HW142443   0.300   4.945   9.029 -2.0421  0.7751 -0.1346
13955SOL    HW242444   0.313   5.018   8.897  0.4860 -0.0086 -0.3642
13956SOL     OW42445   0.225   7.618   2.960 -0.7322  0.2471  0.2975
13956SOL    HW142446   0.181   7.534   2.975  1.6017 -1.4546 -1.5615
13956SOL    HW242447   0.283   7.629   3.035 -0.0930 -0.5377 -0.0582
13957SOL     OW42448   2.046   8.181   3.978  0.2187  0.0191 -0.2440
13957SOL    HW142449   2.086   8.094   3.988 -1.3519 -0.6730  0.3596
13957SOL    HW242450   1.997   8.176   3.897  0.6154  0.5614 -0.5235
13958SOL     OW42451   8.931   1.350   6.801  0.1980 -0.1489 -0.4562
13958SOL    HW142452   8.872   1.381   6.732 -1.8171  1.3220  1.7629
13958SOL    HW242453   8.974   1.429   6.832  1.9044 -0.9462 -0.6629
13959SOL     OW42454   9.412   9.273   4.171  0.3394  0.4372  0.0455
13959SOL    HW142455   9.475   9.331   4.129  2.2497 -2.8755 -2.0850
13959SOL    HW242456   9.341   9.264   4.108  1.3586 -1.5054 -0.9216
13960SOL     OW42457   4.435   3.117   3.749  0.0339 -0.2907 -0.6843
13960SOL    HW142458   4.398   3.164   3.823 -0.3827 -0.3220 -0.8703
13960SOL    HW242459   4.501   3.176   3.713  1.6664 -1.0551  0.8921
13961SOL     OW42460   2.393   2.697   5.769  0.2086 -0.5859 -0.0831
13961SOL    HW142461   2.453   2.692   5.694 -0.4366 -0.1938 -0.6374
13961SOL    HW242462   2.307   2.680   5.731  0.0658 -2.1948  0.8697
13962SOL     OW42463   0.197   6.713   0.530 -0.4461  0.2213 -0.2607
13962SOL    HW142464   0.251   6.777   0.484 -1.0539  0.8257 -0.1498
13962SOL    HW242465   0.165   6.760   0.607 -3.2863  0.7612 -1.6677
13963SOL     OW42466   5.516   2.621   0.833 -0.5595 -0.3470 -0.3426
13963SOL    HW142467   5.531   2.631   0.739 -1.5594 -1.6566 -0.6786
13963SOL    HW242468   5.580   2.555   0.860 -0.0505  0.2703 -0.0255
13964SOL     OW42469   4.005   9.290   9.884  0.6516  1.1431 -0.1161
13964SOL    HW142470   4.059   9.276   9.962  0.6655  0.6699 -0.2095
13964SOL    HW242471   4.031   9.377   9.853  0.7447  1.2798  0.3249
13965SOL     OW42472   7.856   7.811   6.104  0.3682  0.0759  0.2022
13965SOL    HW142473   7.926   7.877   6.109  0.7001 -0.2707  0.1398
13965SOL    HW242474   7.802   7.827   6.182 -0.6554  1.6527 -0.7728
13966SOL     OW42475   9.199   5.786   7.730  0.0906  0.7281  0.0157
13966SOL    HW142476   9.152   5.805   7.811 -0.6650  0.7996 -0.4293
13966SOL    HW242477   9.281   5.833   7.739  1.0770 -1.1437  1.7623
13967SOL     OW42478   8.794   4.762   3.188 -0.3275 -0.5413 -0.5098
13967SOL    HW142479   8.710   4.731   3.155 -0.6529 -0.2586  0.0390
13967SOL    HW242480   8.782   4.856   3.200  0.6654 -0.1629 -2.1957
13968SOL     OW42481   4.977   9.133   9.082 -0.7255  0.0553  0.2126
13968SOL    HW142482   4.902   9.143   9.024  0.0884 -0.9748 -1.1032
13968SOL    HW242483   5.016   9.220   9.087 -0.6896  0.1263 -1.0091
13969SOL     OW42484   2.898   2.345   9.418  0.3143  0.4407  0.3595
13969SOL    HW142485   2.826   2.317   9.475 -0.1453  0.3720 -0.2423
13969SOL    HW242486   2.957   2.270   9.416  0.9811  0.8991  1.7480
13970SOL     OW42487   3.733   9.634   9.916  0.5487  0.9064  0.0839
13970SOL    HW142488   3.753   9.633  10.010 -0.8158 -1.2255  0.4417
13970SOL    HW242489   3.640   9.611   9.912  1.3191 -2.5160 -1.8403
13971SOL     OW42490   9.006   6.312   0.488  0.7781  0.7403  0.3749
13971SOL    HW142491   8.915   6.340   0.496  0.4088  0.3473 -1.6669
13971SOL    HW242492   9.054   6.392   0.466  0.8131  0.8461  0.8446
13972SOL     OW42493   6.538   7.488   7.326 -0.8230 -0.2567 -0.1097
13972SOL    HW142494   6.576   7.567   7.289 -2.7426  1.5517  1.4907
13972SOL    HW242495   6.453   7.516   7.361 -2.5326 -3.4804 -1.2552
13973SOL     OW42496   4.335   1.849   0.303 -0.0908 -0.8460  0.3648
13973SOL    HW142497   4.295   1.762   0.301  0.1221 -0.9396  0.0219
13973SOL    HW242498   4.303   1.892   0.223 -2.4929  0.4470  1.8685
13974SOL     OW42499   0.952   9.364   3.411  0.0476 -0.2253  0.6414
13974SOL    HW142500   0.914   9.285   3.449 -1.2669  0.2994  0.4488
13974SOL    HW242501   0.976   9.418   3.486  1.2967 -0.9295  0.7869
13975SOL     OW42502   4.070   7.873   2.104 -0.4147 -0.5068  0.0597
13975SOL    HW142503   4.007   7.907   2.167  0.4742  0.0691  0.6659
13975SOL    HW242504   4.061   7.778   2.109 -1.3914 -0.4308 -0.0482
13976SOL     OW42505   5.640   1.219   3.175 -0.1305 -0.4118 -1.0540
13976SOL    HW142506   5.669   1.310   3.179 -1.9531  0.1799  0.1607
13976SOL    HW242507   5.550   1.222   3.208  0.0223 -2.7688 -0.2755
13977SOL     OW42508   1.391   9.026   5.511 -0.2331 -0.6978  0.2807
13977SOL    HW142509   1.482   9.054   5.502 -1.0378  1.5725 -1.7779
13977SOL    HW242510   1.354   9.085   5.578 -0.4843 -0.7952  0.2304
13978SOL     OW42511   9.114   3.778   1.057 -0.1222 -0.7781  0.2157
13978SOL    HW142512   9.109   3.872   1.072  0.9304 -0.5343 -0.7899
13978SOL    HW242513   9.023   3.750   1.052 -0.4472  0.0830  1.0908
13979SOL     OW42514   8.029   8.896   2.429  0.2943  0.5984 -0.1739
13979SOL    HW142515   8.000   8.837   2.499  0.8270 -0.3225 -0.7178
13979SOL    HW242516   7.949   8.940   2.400 -0.1431  0.0020  0.1076
13980SOL     OW42517   1.306   7.553   7.714  0.2033 -0.2826  0.0077
13980SOL    HW142518   1.338   7.473   7.754  1.4701 -0.3091 -1.0103
13980SOL    HW242519   1.325   7.622   7.778 -0.4507 -0.7041  0.6757
13981SOL     OW42520   3.828   9.583   0.757  0.0725 -0.1135 -0.2018
13981SOL    HW142521   3.756   9.642   0.780  1.1224  0.7023  1.1787
13981SOL    HW242522   3.848   9.537   0.839  1.8459  0.5160 -0.2340
13982SOL     OW42523   3.282   8.417   8.711  0.2741 -0.7287 -0.3731
13982SOL    HW142524   3.232   8.357   8.766  0.9930 -0.4691  0.5809
13982SOL    HW242525   3.340   8.464   8.771  1.2869 -0.6330 -1.3697
13983SOL     OW42526   3.204   0.472   5.623  0.6774  0.2284 -0.0355
13983SOL    HW142527   3.121   0.487   5.668  1.6419  1.2428  1.4986
13983SOL    HW242528   3.227   0.558   5.587  0.2576 -0.4210 -1.9546
13984SOL     OW42529   8.153   3.417   4.726  0.4394 -0.1713 -0.4895
13984SOL    HW142530   8.240   3.452   4.711 -0.0533  1.4269  0.1150
13984SOL    HW242531   8.158   3.375   4.812  0.6842 -0.2874 -0.5633
13985SOL     OW42532   1.620   7.384   6.506 -0.5165 -0.2683 -0.4971
13985SOL    HW142533   1.647   7.423   6.423 -0.6080 -1.0026 -0.8808
13985SOL    HW242534   1.669   7.302   6.511  0.5318  0.4027  0.8341
13986SOL     OW42535   7.743   0.554   5.480  0.3719 -0.0982 -0.0718
13986SOL    HW142536   7.757   0.475   5.534  3.3020  0.2256 -0.2235
13986SOL    HW242537   7.830   0.593   5.472 -0.9784  3.1893 -0.0242
13987SOL     OW42538   9.118   9.457   2.110  0.2631 -0.1840 -0.3318
13987SOL    HW142539   9.032   9.465   2.153 -0.2052  2.1893 -1.5573
13987SOL    HW242540   9.176   9.428   2.180 -0.6865  2.4761  1.7728
13988SOL     OW42541   0.427   8.063   8.474 -0.4782  0.1575  0.0328
13988SOL    HW142542   0.400   8.140   8.524 -2.8007 -0.6732  0.2081
13988SOL    HW242543   0.366   7.995   8.501 -0.1375 -1.0464 -2.0152
13989SOL     OW42544   2.225   4.037   0.573 -0.2659  0.5747 -0.5843
13989SOL    HW142545   2.139   4.010   0.539 -0.6438  0.5872  0.3344
13989SOL    HW242546   2.287   4.006   0.507 -0.8037 -1.2416 -0.3102
13990SOL     OW42547   9.336   7.873   0.274 -0.7132 -0.2566 -0.0117
13990SOL    HW142548   9.393   7.887   0.199 -0.3130 -2.3508 -0.1758
13990SOL    HW242549   9.343   7.953   0.325  1.1926  0.1478 -0.8103
13991SOL     OW42550   7.441   0.869   5.219  0.5634 -0.2344 -0.3329
13991SOL    HW142551   7.522   0.825   5.244 -0.0001 -1.3416 -0.4051
13991SOL    HW242552   7.455   0.960   5.245  2.4674 -0.0360 -1.8265
13992SOL     OW42553   6.233   0.451   7.527  0.5227 -0.6337 -0.1208
13992SOL    HW142554   6.308   0.496   7.488 -0.3050  1.0449  0.1349
13992SOL    HW242555   6.269   0.406   7.603  1.1994  0.6500  0.3532
13993SOL     OW42556   6.125   8.446   7.936 -0.4705  0.6123 -0.1830
13993SOL    HW142557   6.044   8.409   7.903 -0.0866 -0.3810 -0.0472
13993SOL    HW242558   6.159   8.499   7.863 -1.8615  2.1043  0.1963
13994SOL     OW42559   0.889   4.538   4.869  0.0319  0.0947  0.3088
13994SOL    HW142560   0.967   4.484   4.858 -0.1088  0.1610 -1.0858
13994SOL    HW242561   0.860   4.519   4.958  0.1605 -1.8753 -0.0321
13995SOL     OW42562   7.237   2.346   2.110  0.0886  0.3888 -0.4193
13995SOL    HW142563   7.327   2.355   2.079  0.0563 -0.2748 -0.7277
13995SOL    HW242564   7.212   2.434   2.138  0.3936  0.8558 -1.5578
13996SOL     OW42565   3.775   7.483   6.009 -0.1255 -0.3050  0.6295
13996SOL    HW142566   3.709   7.425   6.046  0.4887 -0.6499  1.1941
13996SOL    HW242567   3.781   7.456   5.917 -0.1093 -0.8819  0.7974
13997SOL     OW42568   3.740   0.321   9.887  0.1166  0.2664 -0.7130
13997SOL    HW142569   3.690   0.368   9.820  1.4117 -0.5821 -2.3643
13997SOL    HW242570   3.832   0.338   9.864  0.6078 -1.7289 -0.4313
13998SOL     OW42571   1.379   1.776   5.950 -0.2838  0.4264 -0.4273
13998SOL    HW142572   1.395   1.828   6.029 -1.2938  0.3314 -0.1483
13998SOL    HW242573   1.347   1.692   5.982  0.3494 -0.0049 -0.9130
13999SOL     OW42574   8.572   6.525   9.702 -0.0038 -0.5461  0.7943
13999SOL    HW142575   8.535   6.480   9.627  0.1993 -1.4701  1.2312
13999SOL    HW242576   8.632   6.461   9.741  1.8111  0.7831  0.2954
14000SOL     OW42577   9.960   4.540   0.213 -0.0643  0.2911  0.0664
14000SOL    HW142578   9.979   4.496   0.296 -0.0463 -0.4494 -0.3176
14000SOL    HW242579   9.894   4.606   0.235 -1.3686 -1.0646  0.3762
14001SOL     OW42580   9.473   9.269   4.570  0.4503  0.1214  0.3289
14001SOL    HW142581   9.475   9.173   4.566  0.4182  0.1443 -0.6296
14001SOL    HW242582   9.556   9.296   4.531 -0.3721  0.4877 -1.2596
14002SOL     OW42583   4.516   3.528   2.692  0.2664 -0.2690  0.5386
14002SOL    HW142584   4.503   3.591   2.762 -1.4382 -1.5473  1.4464
14002SOL    HW242585   4.585   3.470   2.725  1.6654  0.9089 -0.1982
14003SOL     OW42586   4.676   8.990   0.712  0.5718 -0.0134 -0.2553
14003SOL    HW142587   4.638   9.005   0.798 -0.8202  1.5381 -1.0725
14003SOL    HW242588   4.764   9.026   0.718  1.2953 -1.8519  1.0893
14004SOL     OW42589   8.943   8.348   6.520 -0.4574  0.0426 -0.1524
14004SOL    HW142590   9.021   8.399   6.543 -1.3342  2.2510 -1.6435
14004SOL    HW242591   8.908   8.318   6.604  0.3645  1.5726  0.7883
14005SOL     OW42592   1.130   2.272   7.600 -0.0694 -0.3218 -0.2342
14005SOL    HW142593   1.092   2.211   7.664 -0.0181 -0.6292 -0.4939
14005SOL    HW242594   1.127   2.357   7.644  1.5609 -0.7897  0.8938
14006SOL     OW42595   9.233   8.671   9.475  0.1984  0.0454  0.5426
14006SOL    HW142596   9.213   8.689   9.567 -2.5372  2.5379 -0.3986
14006SOL    HW242597   9.270   8.753   9.442 -0.1021 -0.3649 -0.8885
14007SOL     OW42598   7.807   4.843   6.940  1.3861  0.3295  0.1056
14007SOL    HW142599   7.763   4.852   6.855  0.7937 -0.9514  0.2477
14007SOL    HW242600   7.873   4.912   6.941  0.4985  1.2179 -0.8327
14008SOL     OW42601   6.497   3.583   2.992 -0.2783 -0.5697  0.0371
14008SOL    HW142602   6.569   3.572   3.054 -1.1592  0.4040  1.2749
14008SOL    HW242603   6.500   3.504   2.937  0.5218 -1.4639  1.3173
14009SOL     OW42604   2.730   1.893   4.452  0.2204  0.3660  0.1249
14009SOL    HW142605   2.810   1.840   4.455  1.5551  2.2331 -0.1920
14009SOL    HW242606   2.671   1.852   4.514  1.6458 -0.7703  0.7912
14010SOL     OW42607   2.420   5.801   8.017 -0.3278  0.1135 -0.3106
14010SOL    HW142608   2.328   5.784   8.035  0.4117 -2.9365  1.4760
14010SOL    HW242609   2.432   5.778   7.925 -1.0583 -1.1284 -0.1110
14011SOL     OW42610   0.280   1.347   5.110  0.2586  0.2355 -0.2473
14011SOL    HW142611   0.212   1.280   5.113  0.3795  0.1169 -0.0721
14011SOL    HW242612   0.360   1.301   5.137  0.0289  0.8230  1.6420
14012SOL     OW42613   3.338   1.862   4.143 -0.1859 -0.0569  0.2593
14012SOL    HW142614   3.424   1.892   4.112  1.0853 -2.7441  0.8820
14012SOL    HW242615   3.309   1.799   4.077 -2.2226  1.5224 -0.4521
14013SOL     OW42616   3.785   5.170   0.981  0.2793  0.0600  0.1188
14013SOL    HW142617   3.691   5.186   0.972 -0.5038 -2.8569  1.7554
14013SOL    HW242618   3.812   5.225   1.055 -0.3857  0.1528  0.3011
14014SOL     OW42619   3.800   4.561   1.714 -0.2774 -0.0723  0.2208
14014SOL    HW142620   3.852   4.594   1.641 -0.9040  0.3564 -0.0436
14014SOL    HW242621   3.862   4.513   1.769  0.0619 -1.0075 -0.9590
14015SOL     OW42622   2.943   6.375   7.943 -0.3131  0.1320  0.5323
14015SOL    HW142623   2.923   6.283   7.962 -0.0661  0.3672  2.0610
14015SOL    HW242624   2.867   6.423   7.975 -0.5622  0.4541 -0.5172
14016SOL     OW42625   8.738   2.295   5.937  0.1064 -0.6261 -0.0297
14016SOL    HW142626   8.811   2.272   5.880  0.2872  0.1385 -0.1219
14016SOL    HW242627   8.659   2.272   5.887  0.2723 -0.6563 -0.2779
14017SOL     OW42628   5.602   9.332   9.135  0.0899 -0.2703  0.3299
14017SOL    HW142629   5.548   9.404   9.103  0.4536  0.3123  0.9879
14017SOL    HW242630   5.577   9.322   9.227 -0.1124 -1.1361  0.1900
14018SOL     OW42631   2.432   3.711   6.678  0.5145  0.0107 -0.2640
14018SOL    HW142632   2.519   3.750   6.672  1.5091 -2.2327 -1.5976
14018SOL    HW242633   2.398   3.715   6.589 -0.4868  0.2705  0.1209
14019SOL     OW42634   4.710   1.752   2.985  0.3861  0.4398  0.1265
14019SOL    HW142635   4.716   1.659   2.965  0.3002  0.4439  0.0799
14019SOL    HW242636   4.717   1.796   2.900  1.8919  0.5491  0.2884
14020SOL     OW42637   1.006   3.104   0.654 -0.0772  0.0561 -0.2263
14020SOL    HW142638   1.091   3.148   0.660  0.1862 -0.5497  0.7030
14020SOL    HW242639   0.960   3.150   0.584  0.9299  0.5378 -0.5894
14021SOL     OW42640   0.214   4.860   9.840 -0.5282  0.2812 -0.1329
14021SOL    HW142641   0.248   4.945   9.812 -1.6584  0.7544 -0.1184
14021SOL    HW242642   0.135   4.847   9.787 -0.3129 -0.8111 -0.2059
14022SOL     OW42643   0.506   6.495   8.349  0.0955  0.4201 -0.4686
14022SOL    HW142644   0.444   6.438   8.394  0.4640  0.3158 -0.0865
14022SOL    HW242645   0.523   6.566   8.411  0.8768  0.0907 -0.2865
14023SOL     OW42646   1.842   8.347   8.914 -0.0702  0.4699 -0.7750
14023SOL    HW142647   1.798   8.432   8.914  0.3914  0.7162 -0.6119
14023SOL    HW242648   1.810   8.303   8.835 -0.6902  0.5928 -0.5937
14024SOL     OW42649   1.909   4.309   8.970  0.1216  0.3661 -0.3157
14024SOL    HW142650   1.884   4.382   8.913  0.7435  0.5595 -0.3440
14024SOL    HW242651   1.928   4.350   9.054  0.9080  0.2991 -0.4525
14025SOL     OW42652   3.680   8.750   4.050 -0.3261 -0.3651 -0.1248
14025SOL    HW142653   3.768   8.711   4.050 -0.3258 -0.3707 -0.3626
14025SOL    HW242654   3.644   8.729   4.136  0.9200  1.9394  1.0630
14026SOL     OW42655   1.458   9.970   3.656  0.1432 -0.5484  0.1690
14026SOL    HW142656   1.533   9.956   3.599  0.0441 -0.6657  0.0654
14026SOL    HW242657   1.391  10.009   3.599 -0.5460 -2.1931 -0.2142
14027SOL     OW42658   0.285   4.485   7.336 -0.1013 -0.2844  0.1342
14027SOL    HW142659   0.275   4.529   7.252 -0.9258  0.3838  0.5635
14027SOL    HW242660   0.343   4.542   7.386 -0.6810  0.0140  0.4784
14028SOL     OW42661   9.312   1.875   0.799  0.4000  0.0526 -0.2328
14028SOL    HW142662   9.346   1.788   0.816 -1.1938 -0.9243 -1.6551
14028SOL    HW242663   9.217   1.866   0.810  0.2549  1.7822  0.2501
14029SOL     OW42664   9.081   7.951   7.978 -0.0997 -0.3647 -0.3085
14029SOL    HW142665   9.088   7.909   7.892  0.1867  1.5990 -1.3182
14029SOL    HW242666   9.147   7.907   8.032  1.3693 -0.1131 -1.8028
14030SOL     OW42667   8.338   6.533   0.368 -0.7314  0.1515  0.1570
14030SOL    HW142668   8.309   6.566   0.453 -1.8086 -0.1930 -0.0605
14030SOL    HW242669   8.392   6.604   0.332  0.0243  0.1671  1.2564
14031SOL     OW42670   7.922   5.150   4.223  0.3350 -0.4878  0.2188
14031SOL    HW142671   7.952   5.190   4.141  0.8741  0.9237  1.0598
14031SOL    HW242672   7.995   5.164   4.284 -0.2283 -1.1257  1.0513
14032SOL     OW42673   7.978   6.465   3.030 -0.2854  0.3898  0.3180
14032SOL    HW142674   7.959   6.371   3.033 -0.7450  0.4444  3.6054
14032SOL    HW242675   8.073   6.470   3.029 -0.2154 -0.1849  1.6779
14033SOL     OW42676   3.158   7.851   6.136  0.3739  0.5227 -0.1178
14033SOL    HW142677   3.069   7.816   6.135  0.2828  0.7093  0.7660
14033SOL    HW242678   3.179   7.862   6.228  0.9516  1.3986 -0.3371
14034SOL     OW42679   4.846   6.665   9.148  0.5139  0.2757  0.4530
14034SOL    HW142680   4.871   6.724   9.077  1.0811 -0.4289  0.0550
14034SOL    HW242681   4.768   6.706   9.186  1.0486  1.4239  0.3681
14035SOL     OW42682   7.442   9.249   0.658 -0.3540 -0.1998  0.2012
14035SOL    HW142683   7.484   9.210   0.581 -1.4515 -1.3551  0.1504
14035SOL    HW242684   7.496   9.222   0.731 -0.8870 -1.5959  0.1243
14036SOL     OW42685   7.728   9.016   2.066  0.3869 -0.1054 -0.1272
14036SOL    HW142686   7.634   9.015   2.086  0.3313  0.7713 -0.2794
14036SOL    HW242687   7.738   8.954   1.994 -0.3091  0.7695 -1.0100
14037SOL     OW42688   6.864   9.706   1.157 -0.4788 -0.9148 -0.2690
14037SOL    HW142689   6.872   9.754   1.240  0.6744 -0.6093 -0.5325
14037SOL    HW242690   6.829   9.770   1.096 -1.8229 -1.2858  0.0928
14038SOL     OW42691   1.010   5.330   9.748  0.0504  0.0189 -1.1394
14038SOL    HW142692   0.999   5.414   9.794 -0.7321 -0.4042 -0.5312
14038SOL    HW242693   1.053   5.354   9.666 -0.3938  1.0567 -1.0926
14039SOL     OW42694   8.050   2.021   7.691 -0.2248 -0.3271 -0.0862
14039SOL    HW142695   7.985   1.979   7.635 -0.4529 -1.2293  0.8261
14039SOL    HW242696   8.027   2.114   7.688 -0.6164 -0.4390 -0.9783
14040SOL     OW42697   0.174   4.289   0.856  0.0104 -0.3320  0.3439
14040SOL    HW142698   0.150   4.365   0.909  1.3344  0.2158  0.1879
14040SOL    HW242699   0.127   4.216   0.898  0.6230  0.1646  1.9999
14041SOL     OW42700   9.869   6.045   3.632 -0.3368 -0.5047  0.6218
14041SOL    HW142701   9.880   5.980   3.562  0.3551  1.1229 -0.8288
14041SOL    HW242702   9.777   6.036   3.657 -0.9996 -0.2113 -1.4868
14042SOL     OW42703   5.691   9.002   9.103  0.3373 -0.2178  0.6721
14042SOL    HW142704   5.762   9.010   9.040 -0.1124 -0.3068  0.1452
14042SOL    HW242705   5.612   9.021   9.052  0.0239  0.3647  1.3556
14043SOL     OW42706   3.373   1.333   9.506 -0.1533  0.1542 -0.5303
14043SOL    HW142707   3.356   1.240   9.494  0.4980 -0.0361 -0.0131
14043SOL    HW242708   3.370   1.347   9.601  0.5582  0.5000 -0.5544
14044SOL     OW42709   6.113   7.585   9.288 -0.3934 -0.0322  0.3730
14044SOL    HW142710   6.045   7.642   9.323 -1.9761 -1.7632  0.2841
14044SOL    HW242711   6.151   7.542   9.365 -1.5962 -1.3771  0.2543
14045SOL     OW42712   2.498   9.324   7.705  0.4713  0.2618  0.2671
14045SOL    HW142713   2.503   9.366   7.619  2.8272  1.7357  1.0299
14045SOL    HW242714   2.436   9.377   7.754  0.7825  0.7394  0.1478
14046SOL     OW42715   8.568   8.170   1.133 -0.7037  1.2464  0.3658
14046SOL    HW142716   8.631   8.113   1.177  0.1402  1.4165 -0.5947
14046SOL    HW242717   8.507   8.111   1.090  0.4686  1.0251 -1.0647
14047SOL     OW42718   8.957   6.633   3.284  0.3646 -0.3893  0.3062
14047SOL    HW142719   9.042   6.677   3.281  1.1623 -1.7249  1.8207
14047SOL    HW242720   8.939   6.610   3.193 -0.1458  3.0327 -0.6194
14048SOL     OW42721   9.171   5.083   7.658  0.1754  0.3183 -0.5575
14048SOL    HW142722   9.121   5.008   7.627 -0.8872  0.1917  1.2676
14048SOL    HW242723   9.179   5.140   7.582 -1.8151 -0.1887 -1.2188
14049SOL     OW42724   0.085   3.794   3.685  0.5426 -0.0072 -0.1149
14049SOL    HW142725   0.085   3.715   3.738  0.8759  0.3424  0.4142
14049SOL    HW242726   0.144   3.775   3.612 -0.6105 -0.8163 -0.8686
14050SOL     OW42727   7.984   9.785   3.027  0.2980 -0.0699 -0.0772
14050SOL    HW142728   8.048   9.714   3.022  0.0394 -0.4666  1.6020
14050SOL    HW242729   8.020   9.854   2.972  0.6391 -1.4228 -1.6043
14051SOL     OW42730   9.104   7.256   6.401  0.3471 -0.3658 -0.3029
14051SOL    HW142731   9.022   7.249   6.450  0.8382 -0.2307  0.5426
14051SOL    HW242732   9.146   7.336   6.433  2.1770 -1.8981  1.4268
14052SOL     OW42733   8.509   2.902   2.149  0.1633  0.7764  0.7044
14052SOL    HW142734   8.566   2.831   2.178  0.8857  0.5658 -1.0972
14052SOL    HW242735   8.565   2.957   2.094 -1.2986  0.6193 -1.0560
14053SOL     OW42736   7.921   4.704   5.927 -0.0068  0.1696  0.4908
14053SOL    HW142737   7.831   4.715   5.958  0.2302  0.5208  1.0675
14053SOL    HW242738   7.971   4.685   6.007  0.0346 -2.5751 -0.0866
14054SOL     OW42739   3.083   1.196   2.329  0.2494 -0.1142 -0.0421
14054SOL    HW142740   3.178   1.189   2.317  0.3557  0.5705  0.3640
14054SOL    HW242741   3.064   1.135   2.400  0.4781  0.2027  0.2951
14055SOL     OW42742   4.040   3.237   3.068 -0.1809  0.2362  0.0035
14055SOL    HW142743   3.948   3.217   3.053 -0.0789  0.4203 -0.8893
14055SOL    HW242744   4.054   3.216   3.160 -0.3642 -2.7173 -0.5583
14056SOL     OW42745   7.814   1.788   6.978  0.0894 -0.0592  0.2684
14056SOL    HW142746   7.803   1.804   6.884  0.0039  0.7082  0.4075
14056SOL    HW242747   7.801   1.693   6.987 -1.1406  0.0364 -0.3092
14057SOL     OW42748   8.013   2.303   8.913  0.3434 -0.0874  0.1898
14057SOL    HW142749   8.076   2.293   8.841 -1.9386  0.0084 -1.9834
14057SOL    HW242750   8.038   2.386   8.955  2.2831 -0.5981  0.1347
14058SOL     OW42751   0.351   2.957   3.872  0.3760  0.3577  0.3060
14058SOL    HW142752   0.361   3.039   3.922  1.8427 -0.7336  1.9285
14058SOL    HW242753   0.349   2.889   3.938 -1.0092 -0.9653 -1.0109
14059SOL     OW42754   3.088   8.112   8.585 -0.0780 -0.2157  0.0902
14059SOL    HW142755   3.098   8.054   8.509 -1.2219 -0.7937  0.3499
14059SOL    HW242756   3.129   8.064   8.657 -2.2981 -1.4640  0.6316
14060SOL     OW42757   6.466   1.356   6.633 -0.1178 -0.4170  0.4355
14060SOL    HW142758   6.531   1.303   6.679  0.4684  0.6080  0.8164
14060SOL    HW242759   6.503   1.444   6.632 -1.4405  0.1642  0.5298
14061SOL     OW42760   8.447   5.630   1.927  0.3066  0.4955 -1.0259
14061SOL    HW142761   8.508   5.589   1.989 -0.9427 -1.6924 -1.1458
14061SOL    HW242762   8.364   5.633   1.974  0.0245  1.6419 -1.5571
14062SOL     OW42763   4.313   6.678   3.917  0.1389 -0.5022 -0.5832
14062SOL    HW142764   4.384   6.620   3.889  0.9191  0.6646 -1.1183
14062SOL    HW242765   4.251   6.621   3.962  1.0439 -1.6815 -0.7923
14063SOL     OW42766   9.891   9.209   7.599  0.0268 -0.2980 -0.0039
14063SOL    HW142767   9.975   9.165   7.611  0.0847  0.0363  0.8360
14063SOL    HW242768   9.842   9.190   7.679 -0.8304 -0.7618 -0.6140
14064SOL     OW42769   1.845   6.668   6.401  0.0265 -0.1503 -0.9522
14064SOL    HW142770   1.835   6.718   6.482  2.9669  0.0732 -0.6215
14064SOL    HW242771   1.919   6.610   6.417 -0.5976 -1.5480 -2.8169
14065SOL     OW42772   8.366   9.877   6.940  0.2210 -0.4489 -0.1326
14065SOL    HW142773   8.447   9.921   6.916  0.8509 -1.3360  0.2788
14065SOL    HW242774   8.300   9.910   6.879  1.0886 -0.3640 -1.0340
14066SOL     OW42775   9.823   2.859   6.136  0.0542 -0.0837  0.2187
14066SOL    HW142776   9.766   2.812   6.197  1.1411  0.0532  1.3920
14066SOL    HW242777   9.786   2.947   6.133  0.4809  0.1576  1.3960
14067SOL     OW42778   9.835   0.226   4.548 -0.3876 -0.3552  0.1762
14067SOL    HW142779   9.803   0.223   4.638 -0.0954  1.3109  0.3575
14067SOL    HW242780   9.765   0.184   4.497 -2.0839  1.5135  0.8108
14068SOL     OW42781   5.444   7.317   6.642  0.1762  0.0091  0.1428
14068SOL    HW142782   5.488   7.274   6.715  0.9897  0.7388  0.0901
14068SOL    HW242783   5.351   7.309   6.662  0.3774 -0.2244  1.0067
14069SOL     OW42784   4.120   7.502   6.360 -0.0548  0.3571 -0.0028
14069SOL    HW142785   4.172   7.479   6.438 -0.0033  0.6000  0.0343
14069SOL    HW242786   4.069   7.423   6.342  1.8402 -0.6869 -1.2751
14070SOL     OW42787   1.992   1.523   7.293 -0.3046 -0.6661  0.4221
14070SOL    HW142788   2.068   1.517   7.350 -0.0307 -0.4701  0.0746
14070SOL    HW242789   1.923   1.557   7.350  1.1954  4.6019 -0.4260
14071SOL     OW42790   6.078   7.290   7.988  0.0872  0.1227  0.0817
14071SOL    HW142791   6.006   7.351   8.005 -0.0588  0.3407 -1.2153
14071SOL    HW242792   6.090   7.294   7.893  1.5305 -0.2379  0.2347
14072SOL     OW42793   6.745   3.835   9.039 -0.0391 -0.7003  0.0899
14072SOL    HW142794   6.675   3.867   8.981  0.3573 -1.4898 -0.8481
14072SOL    HW242795   6.826   3.866   8.999  0.1862  0.1596  1.1465
14073SOL     OW42796   0.946   0.762   7.217  0.0725  0.4004  0.5687
14073SOL    HW142797   0.955   0.729   7.128 -0.1298  3.1887 -0.5857
14073SOL    HW242798   0.954   0.684   7.272 -2.3394 -1.8264 -1.9285
14074SOL     OW42799   9.826   2.477   1.667 -0.4511  0.4194 -0.1137
14074SOL    HW142800   9.807   2.415   1.738  0.3792 -1.7213 -1.6613
14074SOL    HW242801   9.779   2.443   1.592  0.9178  1.0397 -1.3029
14075SOL     OW42802   3.006   7.950   9.593  0.2535  0.2083  0.0173
14075SOL    HW142803   3.079   7.921   9.538  0.5371  0.3530  0.3115
14075SOL    HW242804   2.993   8.042   9.570  1.2810  0.6659  1.1573
14076SOL     OW42805   9.140   5.758   9.197  0.1250 -0.3431  0.1942
14076SOL    HW142806   9.061   5.789   9.241  0.7778 -0.0689  1.2026
14076SOL    HW242807   9.111   5.682   9.145 -0.6409 -0.7696  1.2203
14077SOL     OW42808   6.259   1.680   6.524  0.2601  0.5011 -0.1733
14077SOL    HW142809   6.306   1.693   6.442  1.4832  0.4185  0.4822
14077SOL    HW242810   6.312   1.726   6.590 -0.9907  1.0486  0.4894
14078SOL     OW42811   7.042   9.045   1.064  0.0586  1.3352  0.2755
14078SOL    HW142812   7.114   9.025   1.124 -0.0174 -0.4894 -0.1823
14078SOL    HW242813   7.077   9.113   1.006  2.3570 -1.1302 -1.4761
14079SOL     OW42814   0.277   8.622   9.201  0.3272 -0.1955 -0.0708
14079SOL    HW142815   0.325   8.545   9.233 -1.3278 -0.7482  1.2316
14079SOL    HW242816   0.338   8.695   9.212  1.7293 -1.2107 -0.7992
14080SOL     OW42817   0.420   8.664   2.095  0.2102  0.0173 -0.4364
14080SOL    HW142818   0.375   8.670   2.180 -2.2890 -0.8288 -1.5911
14080SOL    HW242819   0.422   8.755   2.064  0.9961  0.3124  0.4413
14081SOL     OW42820   0.307   7.005   8.310 -0.2763 -0.2677 -0.0552
14081SOL    HW142821   0.362   6.991   8.387  0.4225 -1.2791 -0.7039
14081SOL    HW242822   0.368   7.003   8.236 -1.1932 -1.7860 -0.8202
14082SOL     OW42823   3.719   7.537   0.780 -0.1377  0.6336  0.1668
14082SOL    HW142824   3.641   7.512   0.730 -0.7062 -2.2620  2.2127
14082SOL    HW242825   3.783   7.468   0.760  1.2858  1.9549 -0.0455
14083SOL     OW42826   4.117   0.821   6.329  1.2791 -0.2486 -0.0769
14083SOL    HW142827   4.026   0.793   6.340  1.5764 -0.3172  3.1266
14083SOL    HW242828   4.167   0.740   6.338  1.7325  0.0168 -0.2229
14084SOL     OW42829   5.275   2.713   6.649  0.7222  0.5665 -0.2935
14084SOL    HW142830   5.353   2.762   6.673  2.2630 -0.8738 -2.0832
14084SOL    HW242831   5.307   2.638   6.600 -1.5499 -2.0370  1.8731
14085SOL     OW42832   8.084   1.143   1.817 -0.6052 -0.4137  0.7283
14085SOL    HW142833   8.012   1.190   1.859  0.0385  3.2544 -1.8049
14085SOL    HW242834   8.162   1.190   1.844  0.8159 -3.2555  2.0252
14086SOL     OW42835   5.882   8.500   5.535 -0.3464 -0.1345 -0.1325
14086SOL    HW142836   5.902   8.534   5.448 -0.7297 -1.7527 -0.8877
14086SOL    HW242837   5.962   8.515   5.586 -1.0061  3.3708  0.1458
14087SOL     OW42838   4.115   0.768   5.849 -0.3001  0.3416 -0.5664
14087SOL    HW142839   4.144   0.814   5.927 -0.7718  1.6335 -1.1303
14087SOL    HW242840   4.195   0.741   5.805 -0.0298 -0.1636  0.2112
14088SOL     OW42841   0.674   2.927   8.834  0.5328  0.5072  0.3209
14088SOL    HW142842   0.721   2.926   8.750  0.0036 -0.9936  0.0047
14088SOL    HW242843   0.743   2.915   8.899  0.8439  0.6994  0.0336
14089SOL     OW42844   8.557   5.546   6.187  0.5236 -0.5667  0.1507
14089SOL    HW142845   8.587   5.456   6.173 -2.3780 -1.4680 -1.1114
14089SOL    HW242846   8.610   5.599   6.128 -0.0005 -1.9817 -1.6580
14090SOL     OW42847   7.831   3.437   0.237  0.4055 -0.0502 -0.0066
14090SOL    HW142848   7.790   3.355   0.265  0.8881 -0.1085  0.5615
14090SOL    HW242849   7.760   3.487   0.197  0.4304 -1.3871 -1.8367
14091SOL     OW42850   9.690   7.668   7.650 -0.0253 -0.5482  0.2971
14091SOL    HW142851   9.668   7.665   7.743 -0.3899  0.6895  0.2692
14091SOL    HW242852   9.686   7.761   7.627 -0.0422 -0.8418 -0.9812
14092SOL     OW42853   4.844   2.834   9.695  0.0257 -0.3849 -0.6527
14092SOL    HW142854   4.937   2.828   9.718 -0.2427  0.0959  0.6081
14092SOL    HW242855   4.823   2.927   9.703 -0.9963 -0.7172  0.8504
14093SOL     OW42856   4.993   6.049   1.286  0.0553 -0.4097 -0.3822
14093SOL    HW142857   4.920   6.109   1.303  1.0475  0.4755  0.8890
14093SOL    HW242858   4.977   5.974   1.343  0.2939 -0.0785  0.1224
14094SOL     OW42859   7.936   5.681   3.853  0.1707  0.0799 -0.2979
14094SOL    HW142860   7.927   5.589   3.877 -0.4994  0.2712  0.2303
14094SOL    HW242861   8.011   5.712   3.903  1.0165 -0.4136 -1.2333
14095SOL     OW42862   7.588   0.681   3.617 -0.8360  0.3991 -0.7039
14095SOL    HW142863   7.530   0.607   3.599  0.0979 -0.1383 -1.6487
14095SOL    HW242864   7.676   0.642   3.616 -0.4276  1.2628  0.2897
14096SOL     OW42865   6.503   0.150   3.177 -0.3064 -0.1304 -0.3538
14096SOL    HW142866   6.411   0.133   3.197 -0.0731 -0.5147  0.4557
14096SOL    HW242867   6.548   0.069   3.201  0.2817  0.1517 -0.4778
14097SOL     OW42868   7.119   4.113   8.882  0.1519 -0.0051 -0.0403
14097SOL    HW142869   7.058   4.039   8.879  0.2239 -0.0233 -2.0797
14097SOL    HW242870   7.122   4.146   8.793  2.6108  0.4128  0.1127
14098SOL     OW42871   2.489   4.403   6.504 -0.0332 -0.1801  0.1102
14098SOL    HW142872   2.527   4.350   6.434 -0.1465 -1.1972  0.7822
14098SOL    HW242873   2.513   4.493   6.483  0.7816 -0.5708 -0.6898
14099SOL     OW42874   6.207   8.111   4.097  0.2972 -0.4372 -0.4232
14099SOL    HW142875   6.245   8.023   4.098  0.8527 -0.1981  0.6681
14099SOL    HW242876   6.123   8.102   4.141  0.2954 -0.4406 -0.4276
14100SOL     OW42877   8.737   8.066   4.284  0.1097  0.7996  0.0835
14100SOL    HW142878   8.698   8.152   4.300  0.3420  1.0142 -0.4532
14100SOL    HW242879   8.738   8.023   4.370 -1.3203  0.7713  0.1112
14101SOL     OW42880   2.538   7.852   2.519  0.2928 -0.3293 -0.3507
14101SOL    HW142881   2.548   7.930   2.573  1.2469  0.2580 -1.3229
14101SOL    HW242882   2.475   7.878   2.452  0.6200 -0.3783 -0.6819
14102SOL     OW42883   0.916   4.301   2.761 -0.5840 -0.3361 -0.0568
14102SOL    HW142884   0.955   4.314   2.675 -0.4252 -2.5719 -0.3799
14102SOL    HW242885   0.953   4.218   2.792 -0.6175  0.4282  2.1885
14103SOL     OW42886   3.336   2.407   7.000 -0.0499 -0.0299  0.1958
14103SOL    HW142887   3.402   2.475   6.983  0.5968 -0.5209  0.6600
14103SOL    HW242888   3.264   2.453   7.043  0.2676  0.4045  0.2677
14104SOL     OW42889   1.668   8.768   6.786  0.0741 -0.3037 -0.8478
14104SOL    HW142890   1.672   8.681   6.827  2.6429  0.3086  0.4379
14104SOL    HW242891   1.611   8.819   6.844  0.8630 -0.3916  0.0211
14105SOL     OW42892   2.180   8.340   5.229 -0.2827 -0.3035  0.9087
14105SOL    HW142893   2.245   8.278   5.261 -1.4883 -1.7207  0.6882
14105SOL    HW242894   2.137   8.295   5.157  0.0819  1.5397 -0.5527
14106SOL     OW42895   8.970   8.420   1.648 -0.3226 -0.4291 -0.0197
14106SOL    HW142896   9.045   8.428   1.589  0.2807 -3.3672  0.1866
14106SOL    HW242897   8.909   8.363   1.602 -1.6992  0.5066  0.5695
14107SOL     OW42898   5.634   0.143   6.687  0.6586 -0.4796  0.3094
14107SOL    HW142899   5.571   0.215   6.691  0.8834 -0.2249 -0.5392
14107SOL    HW242900   5.600   0.085   6.618  1.0223 -0.6584  0.2751
14108SOL     OW42901   8.158   1.778   3.153  0.0620  0.6505 -0.0283
14108SOL    HW142902   8.195   1.840   3.089 -0.0151  1.5495  0.7792
14108SOL    HW242903   8.112   1.833   3.216 -0.5152 -0.2816  0.3875
14109SOL     OW42904   1.879   6.139   2.365  0.7508  0.8167 -0.0511
14109SOL    HW142905   1.819   6.207   2.399 -1.0323 -0.4105 -0.5762
14109SOL    HW242906   1.946   6.131   2.432 -1.2344  0.2771  2.0046
14110SOL     OW42907   6.615   4.727   7.922 -0.7252  0.2307  0.0302
14110SOL    HW142908   6.686   4.678   7.962 -0.1401  0.7440 -0.3534
14110SOL    HW242909   6.562   4.758   7.995  0.5619  1.5060  0.4545
14111SOL     OW42910   3.334   1.640   7.630 -0.1337 -0.2435 -0.2172
14111SOL    HW142911   3.309   1.721   7.674  0.6866 -0.1821  0.1479
14111SOL    HW242912   3.256   1.615   7.581 -0.4366  0.7094 -0.2541
14112SOL     OW42913   7.917   5.615   8.841 -0.6583 -0.6448  0.0617
14112SOL    HW142914   7.944   5.553   8.909  0.7278 -0.5511 -0.3717
14112SOL    HW242915   7.925   5.565   8.759 -0.5951 -0.2350 -0.1854
14113SOL     OW42916   0.032   5.899   7.768 -0.5751 -0.6558 -0.1140
14113SOL    HW142917   0.108   5.842   7.756  1.2608  1.0825  2.2822
14113SOL    HW242918  -0.015   5.861   7.842  1.0026  1.0864  1.9140
14114SOL     OW42919   1.541   7.438   7.964  0.2146 -0.0866 -0.0399
14114SOL    HW142920   1.581   7.377   7.902  0.2699 -1.1928  1.0467
14114SOL    HW242921   1.599   7.435   8.041 -1.4508 -1.0774  1.2426
14115SOL     OW42922   5.447   6.092   4.665 -0.5816  0.0318 -0.4112
14115SOL    HW142923   5.417   6.183   4.674  0.1897  0.2312  0.2013
14115SOL    HW242924   5.524   6.086   4.721  0.4661 -0.5052 -1.8541
14116SOL     OW42925   3.015   7.354   0.661 -0.3136  0.1563 -0.0506
14116SOL    HW142926   3.082   7.321   0.721 -1.5119 -1.6635  0.3588
14116SOL    HW242927   3.005   7.446   0.686  2.6397  0.7809 -0.7539
14117SOL     OW42928   1.432   7.176   1.248 -0.4228 -0.1904  0.1516
14117SOL    HW142929   1.348   7.162   1.291 -0.4095  0.7403  0.4885
14117SOL    HW242930   1.442   7.271   1.244 -0.3241 -0.2344 -1.7103
14118SOL     OW42931   5.898   8.593   7.237 -0.5160 -0.2867  0.3121
14118SOL    HW142932   5.843   8.616   7.312 -1.7810 -1.3889 -0.2484
14118SOL    HW242933   5.869   8.651   7.167 -0.6839 -0.5779  0.1367
14119SOL     OW42934   6.994   9.337   5.642  0.8255  0.2566  0.5180
14119SOL    HW142935   6.900   9.322   5.649  1.1225 -2.2754 -0.2037
14119SOL    HW242936   7.008   9.420   5.689 -1.9848  1.7305 -0.9649
14120SOL     OW42937   2.797   7.256   3.510 -0.5123  0.2496  0.0685
14120SOL    HW142938   2.885   7.261   3.548 -0.6524 -0.9754  0.5981
14120SOL    HW242939   2.799   7.178   3.455 -1.0074  0.7232 -0.6310
14121SOL     OW42940   4.818   4.795   7.972  0.0875  0.0405  0.0771
14121SOL    HW142941   4.805   4.707   7.936 -0.4491 -0.1527  0.7304
14121SOL    HW242942   4.878   4.837   7.910 -0.2114 -0.5413 -0.6229
14122SOL     OW42943   7.126   1.966   1.413  0.2403 -1.0137  0.0334
14122SOL    HW142944   7.088   2.010   1.489  0.6917  0.6579 -0.6454
14122SOL    HW242945   7.213   2.005   1.405  0.7876 -2.3055 -0.4252
14123SOL     OW42946   4.981   6.599   8.188 -0.3046 -0.1173  0.2068
14123SOL    HW142947   5.020   6.653   8.258 -0.9175 -0.2709  0.6762
14123SOL    HW242948   4.908   6.651   8.156  0.5350  0.3758 -0.9928
14124SOL     OW42949   6.102   3.307   6.297 -0.0670  0.3601  0.0465
14124SOL    HW142950   6.050   3.275   6.370 -0.0746 -1.1939 -0.6035
14124SOL    HW242951   6.082   3.401   6.292 -1.8173  0.0457  0.6018
14125SOL     OW42952   0.827   1.439   9.924  0.0905 -0.1438  0.4572
14125SOL    HW142953   0.885   1.420   9.998  0.4231 -3.1857 -0.4409
14125SOL    HW242954   0.749   1.387   9.941 -0.3465  0.0984 -0.7246
14126SOL     OW42955   5.743   5.254   4.957  0.6452  0.6227  0.3833
14126SOL    HW142956   5.831   5.237   4.991  1.5808  1.0410 -1.6542
14126SOL    HW242957   5.742   5.211   4.871 -1.4952 -0.1907  0.7491
14127SOL     OW42958   1.482   6.724   9.950 -0.0954 -0.2420  0.1503
14127SOL    HW142959   1.488   6.632   9.924 -0.5530  0.1834 -1.6241
14127SOL    HW242960   1.392   6.749   9.928 -0.0300  0.5857  0.7858
14128SOL     OW42961   0.880   5.101   4.378 -0.1165 -0.0706 -0.1328
14128SOL    HW142962   0.799   5.123   4.423 -0.5247 -0.0947 -0.8478
14128SOL    HW242963   0.888   5.165   4.308 -0.4672 -1.1648 -1.1978
14129SOL     OW42964   5.165   5.778   3.397 -0.1836 -0.1588  0.0291
14129SOL    HW142965   5.137   5.829   3.320 -0.0081 -0.3492 -0.1634
14129SOL    HW242966   5.200   5.843   3.458 -0.2162 -0.0187 -0.1003
14130SOL     OW42967   9.256   4.943   9.302  0.6998 -0.3505 -0.2804
14130SOL    HW142968   9.251   4.850   9.281  1.4763  0.0051 -2.2199
14130SOL    HW242969   9.177   4.980   9.263  0.2764 -0.2088  0.6859
14131SOL     OW42970   2.567   1.696   9.600 -0.1165 -0.1255 -0.0802
14131SOL    HW142971   2.624   1.652   9.538 -0.2704  1.5732 -1.5078
14131SOL    HW242972   2.499   1.737   9.546 -1.5060 -0.3562  1.3995
14132SOL     OW42973   2.939   4.541   6.555 -0.1048  0.2640  0.0799
14132SOL    HW142974   2.908   4.460   6.512  1.7458  0.2285 -1.2840
14132SOL    HW242975   2.994   4.510   6.627  0.7688  0.2730 -0.5659
14133SOL     OW42976   2.008   3.661   6.398  0.3254 -0.9223  0.3538
14133SOL    HW142977   1.979   3.751   6.381  0.8048 -0.5421  1.4927
14133SOL    HW242978   1.928   3.614   6.420  0.0299 -0.8627 -0.5330
14134SOL     OW42979   0.200   1.319   3.030 -0.0165 -0.0576  0.2917
14134SOL    HW142980   0.283   1.310   2.983  0.6239  0.4060  1.3038
14134SOL    HW242981   0.217   1.281   3.116 -1.0444 -0.5169  0.2986
14135SOL     OW42982   6.264   6.385   7.744 -0.0706 -0.1276 -0.5175
14135SOL    HW142983   6.276   6.424   7.831 -1.2991  0.1873 -0.4728
14135SOL    HW242984   6.353   6.367   7.713  0.4600  1.3059  0.1050
14136SOL     OW42985   4.917   9.163   9.612 -0.1869 -0.5711 -0.4630
14136SOL    HW142986   4.903   9.257   9.599 -1.8014 -0.6287  0.4710
14136SOL    HW242987   4.985   9.139   9.550  0.6955  1.3357 -0.2964
14137SOL     OW42988   8.220   7.914   2.576  0.0986 -0.0592  0.2565
14137SOL    HW142989   8.227   7.879   2.487  0.1753  0.7552 -0.0656
14137SOL    HW242990   8.126   7.915   2.594 -0.2787  3.0934 -1.2125
14138SOL     OW42991   2.128   3.804   1.197  0.5589  0.3134 -0.1325
14138SOL    HW142992   2.118   3.839   1.286  1.8776  0.9521 -0.2204
14138SOL    HW242993   2.175   3.721   1.209  1.6784  0.9120 -0.3074
14139SOL     OW42994   3.954   7.861   9.269 -0.4434  0.0190  0.4736
14139SOL    HW142995   3.990   7.868   9.357  0.1407 -0.0935  0.2484
14139SOL    HW242996   4.025   7.824   9.216  0.3070  2.8126 -0.6825
14140SOL     OW42997   6.617   8.643   5.507  0.3355  0.1400  0.2531
14140SOL    HW142998   6.555   8.710   5.535  2.4931  2.3861 -0.0111
14140SOL    HW242999   6.652   8.607   5.589 -0.3888 -0.2910  0.3880
14141SOL     OW43000   5.158   2.692   7.160 -0.0674  0.5100  0.0388
14141SOL    HW143001   5.100   2.625   7.198  1.0089 -1.5154 -1.6569
14141SOL    HW243002   5.238   2.684   7.211  0.0670  0.5075 -0.1763
14142SOL     OW43003   2.501   9.629   8.024 -0.2194  0.4312 -0.1514
14142SOL    HW143004   2.450   9.568   7.971 -0.8698  0.2538  0.6589
14142SOL    HW243005   2.542   9.574   8.091 -0.1249  0.7641  0.0661
14143SOL     OW43006   4.490   0.283   9.723 -0.1289  0.0988 -0.6509
14143SOL    HW143007   4.490   0.287   9.627  0.5902 -0.0439 -0.6584
14143SOL    HW243008   4.441   0.203   9.743 -0.2207  0.0900 -0.8959
14144SOL     OW43009   4.427   9.363   5.109 -0.2680  0.1312 -0.9377
14144SOL    HW143010   4.519   9.356   5.083 -0.0259  0.2634 -0.1452
14144SOL    HW243011   4.418   9.298   5.179 -0.4911  0.8970 -0.2504
14145SOL     OW43012   3.536   5.946   1.626  0.1235  0.2574 -0.2971
14145SOL    HW143013   3.472   5.890   1.669  0.5796  0.5034  0.7190
14145SOL    HW243014   3.530   6.030   1.672  1.1985  0.2708 -0.1597
14146SOL     OW43015   9.874   6.422   2.805  0.0613  0.6624 -0.1472
14146SOL    HW143016   9.827   6.497   2.766  0.4120  1.8721  1.6183
14146SOL    HW243017   9.964   6.432   2.776 -0.3447 -0.5545 -1.9567
14147SOL     OW43018   4.374   5.738   8.405 -0.2411 -0.2279 -0.0689
14147SOL    HW143019   4.357   5.831   8.419 -2.5029  0.4894 -5.0621
14147SOL    HW243020   4.294   5.695   8.437 -0.9892  0.1421 -1.3503
14148SOL     OW43021   5.041   8.234   4.375  0.1047 -0.2530 -0.2923
14148SOL    HW143022   4.964   8.291   4.378 -0.6975 -1.3536  1.1301
14148SOL    HW243023   5.113   8.293   4.352 -1.3830  0.4789 -3.7138
14149SOL     OW43024   4.195   7.314   6.619  0.6332  0.0814 -0.2994
14149SOL    HW143025   4.165   7.278   6.702 -0.0213 -2.5568 -1.5738
14149SOL    HW243026   4.259   7.250   6.587  1.4299  1.4168 -1.5276
14150SOL     OW43027   5.598   8.961   8.339 -0.0840  0.4458  0.1389
14150SOL    HW143028   5.649   8.880   8.342 -0.4125  0.1552 -1.2289
14150SOL    HW243029   5.664   9.031   8.331  0.1548  0.1260 -0.9137
14151SOL     OW43030   9.947   5.444   5.292  0.6994 -0.7117  0.1247
14151SOL    HW143031   9.869   5.487   5.327  1.1719 -0.7998  1.3299
14151SOL    HW243032  10.016   5.509   5.302  0.5047  0.0337 -2.5220
14152SOL     OW43033   1.365   1.901   7.508  0.0873  0.2889  0.5911
14152SOL    HW143034   1.375   1.996   7.518 -2.6344  0.6970  0.3638
14152SOL    HW243035   1.316   1.874   7.585  0.2685 -0.8184  0.3314
14153SOL     OW43036   0.309   1.214   3.794 -0.5962  0.0769  0.1278
14153SOL    HW143037   0.373   1.286   3.797 -0.8685  0.5585 -2.9426
14153SOL    HW243038   0.362   1.135   3.809  0.3173  0.6423 -0.0307
14154SOL     OW43039   5.379   5.222   7.725  0.3063 -0.0821  0.3074
14154SOL    HW143040   5.413   5.206   7.637  0.6101 -0.4351  0.4838
14154SOL    HW243041   5.442   5.179   7.783  0.9332  1.4144  0.7904
14155SOL     OW43042   5.302   9.196   9.250 -0.3517  0.1355  1.1150
14155SOL    HW143043   5.311   9.224   9.159  0.2464  0.2598  1.2107
14155SOL    HW243044   5.374   9.238   9.296  0.1717 -1.0004  1.3915
14156SOL     OW43045   4.562   3.278   2.846 -0.2680  0.3190  0.2636
14156SOL    HW143046   4.581   3.236   2.930  1.7338  0.4659 -0.0755
14156SOL    HW243047   4.470   3.304   2.853 -0.6291 -1.1555  1.7491
14157SOL     OW43048   9.869   1.223   3.151 -0.5548  0.9319  0.5289
14157SOL    HW143049   9.818   1.221   3.232 -1.3147  0.5500  0.0464
14157SOL    HW243050   9.939   1.286   3.169  0.2318 -0.2940  2.0342
14158SOL     OW43051   0.176   5.279   1.319 -0.3100 -0.7241 -0.0658
14158SOL    HW143052   0.262   5.321   1.323 -0.1609 -1.0955  0.8967
14158SOL    HW243053   0.126   5.322   1.388 -0.4475 -1.4808  0.3091
14159SOL     OW43054   5.009   1.550   9.198 -0.1901  0.1049  0.5380
14159SOL    HW143055   5.043   1.480   9.143 -0.0772  0.2981  0.3619
14159SOL    HW243056   5.066   1.549   9.276 -0.2435 -0.0551  0.5756
14160SOL     OW43057   8.689   7.179   1.684  0.5076 -0.0516 -0.1576
14160SOL    HW143058   8.671   7.091   1.717  0.1866 -0.0848 -0.4202
14160SOL    HW243059   8.651   7.237   1.750  0.7708 -0.1051  0.0459
14161SOL     OW43060   2.361   7.223   1.895 -0.4949 -0.1808 -0.9820
14161SOL    HW143061   2.297   7.182   1.838 -0.7199 -1.2711  0.0063
14161SOL    HW243062   2.434   7.161   1.898  0.2482  0.6448 -1.4034
14162SOL     OW43063   8.478   2.289   8.849 -0.8895 -0.5701  0.0829
14162SOL    HW143064   8.541   2.357   8.822 -0.2196  0.3586  3.5506
14162SOL    HW243065   8.532   2.211   8.862 -0.4545  0.0756  2.5040
14163SOL     OW43066   7.318   9.856   2.016 -0.2726 -0.2877  0.2722
14163SOL    HW143067   7.259   9.813   2.078 -0.0686  0.6182  1.1292
14163SOL    HW243068   7.335   9.942   2.055 -1.6982  1.1307 -1.9910
14164SOL     OW43069   9.256   2.885   3.082 -0.7975  0.5791 -0.1460
14164SOL    HW143070   9.170   2.846   3.066  0.5098 -2.0807 -1.2647
14164SOL    HW243071   9.280   2.925   2.998  0.4055 -1.6791 -0.9665
14165SOL     OW43072   7.183   5.514   1.197  0.1327 -0.3943  0.0701
14165SOL    HW143073   7.140   5.556   1.123 -1.1073 -1.8763 -0.1112
14165SOL    HW243074   7.146   5.426   1.199  1.5294 -1.0033  1.3182
14166SOL     OW43075   9.829   0.340   9.805  0.4584 -0.2295  0.4122
14166SOL    HW143076   9.798   0.428   9.827  2.5416  0.3245  1.3732
14166SOL    HW243077   9.750   0.286   9.808 -0.9867  1.6488 -0.7327
14167SOL     OW43078   1.439   9.506   8.587 -0.1423 -0.1057  0.1258
14167SOL    HW143079   1.514   9.552   8.550  1.7746 -2.5418  0.7528
14167SOL    HW243080   1.386   9.482   8.511  0.2452  0.7000 -0.4151
14168SOL     OW43081   5.835   3.753   3.099  0.1466  0.2365  0.3427
14168SOL    HW143082   5.867   3.832   3.143 -0.2745  1.0719 -0.8195
14168SOL    HW243083   5.774   3.714   3.162  0.0014  1.0911  0.7434
14169SOL     OW43084   9.296   2.290   8.494  0.1881 -0.2776  0.0102
14169SOL    HW143085   9.281   2.219   8.432 -0.9725  0.9449 -1.1622
14169SOL    HW243086   9.224   2.351   8.479 -0.1806  0.0731  2.5993
14170SOL     OW43087   1.998   0.225   7.989 -0.6366 -0.1599 -0.1011
14170SOL    HW143088   2.088   0.245   7.965 -0.5613 -0.0423  0.2716
14170SOL    HW243089   1.953   0.213   7.905  0.0483 -1.6589 -0.2828
14171SOL     OW43090   4.336   6.752   0.530 -0.3536 -0.1677 -0.0685
14171SOL    HW143091   4.365   6.731   0.619  3.6532  1.4022 -0.7786
14171SOL    HW243092   4.355   6.672   0.479 -0.4318 -0.2608  0.0473
14172SOL     OW43093   3.883   9.893   0.506 -0.1394  0.1412  0.3786
14172SOL    HW143094   3.860   9.804   0.477  0.1546  0.3981 -0.6835
14172SOL    HW243095   3.973   9.884   0.538  0.6051  0.4108 -1.5281
14173SOL     OW43096   0.158   0.464   9.008  0.0064 -0.3295  0.4093
14173SOL    HW143097   0.139   0.525   8.937  2.1688  0.2827  0.2715
14173SOL    HW243098   0.155   0.518   9.087 -4.6916 -1.4295  1.2664
14174SOL     OW43099   3.333   2.333   7.940  0.3814  0.0194  0.3255
14174SOL    HW143100   3.382   2.258   7.906  0.8972  0.4681  0.0559
14174SOL    HW243101   3.378   2.356   8.022  2.7328  2.4102 -1.4362
14175SOL     OW43102   2.174   2.256   8.255 -0.1487  0.0160 -0.2306
14175SOL    HW143103   2.215   2.293   8.177 -1.3823 -0.4188 -1.1159
14175SOL    HW243104   2.161   2.164   8.234 -0.2501 -0.1729  0.6047
14176SOL     OW43105   0.667   8.939   3.512  0.3463  0.1186  0.3064
14176SOL    HW143106   0.758   8.915   3.493 -0.0320 -1.4020  0.2990
14176SOL    HW243107   0.651   9.015   3.456  0.9517 -0.9566 -1.4166
14177SOL     OW43108   7.766   0.446   9.518  0.4617 -0.1141  0.0893
14177SOL    HW143109   7.708   0.496   9.575  0.9935  2.0949 -1.1844
14177SOL    HW243110   7.713   0.429   9.439  0.3159 -1.5760  0.4616
14178SOL     OW43111   8.643   8.565   1.879  0.4800 -0.3331  0.6842
14178SOL    HW143112   8.564   8.534   1.925  0.7680 -1.0865  0.6888
14178SOL    HW243113   8.700   8.488   1.875  2.7541  0.9664  3.8387
14179SOL     OW43114   4.080   9.647   2.527  0.2486  0.4925 -0.6059
14179SOL    HW143115   4.038   9.640   2.441 -0.1607  3.6516 -0.7621
14179SOL    HW243116   4.174   9.651   2.508  0.1917  0.6556 -0.8458
14180SOL     OW43117   8.904   0.100   2.144 -0.6681  0.0252  0.3221
14180SOL    HW143118   8.870   0.081   2.057 -2.6425  1.3112  0.7441
14180SOL    HW243119   8.991   0.138   2.128 -1.9401  2.5223 -1.3115
14181SOL     OW43120   9.297   3.279   0.585 -0.1734  0.3073 -0.1603
14181SOL    HW143121   9.334   3.300   0.671  0.2435  0.7729 -0.4414
14181SOL    HW243122   9.364   3.308   0.523 -1.5817  2.5455 -0.7610
14182SOL     OW43123   1.073   0.268   3.937 -0.4103  0.8093 -0.2091
14182SOL    HW143124   1.085   0.349   3.888 -1.7349  0.4292 -1.2356
14182SOL    HW243125   0.981   0.245   3.922 -0.8423  0.5636  2.3364
14183SOL     OW43126   0.360   0.735   2.151 -0.0409  0.0260  0.3192
14183SOL    HW143127   0.271   0.706   2.129  0.3512 -1.2596  0.3577
14183SOL    HW243128   0.355   0.830   2.147 -1.5024 -0.0042  0.6088
14184SOL     OW43129   2.985   2.937   4.740  0.4050  0.3847  0.4350
14184SOL    HW143130   2.994   2.946   4.645 -1.4085 -0.2010  0.1754
14184SOL    HW243131   3.037   2.858   4.761 -1.7490 -1.4195 -0.6040
14185SOL     OW43132   3.199   1.630   9.667  0.6074  0.4326 -0.1625
14185SOL    HW143133   3.248   1.628   9.749  0.4809  2.0660 -0.0026
14185SOL    HW243134   3.267   1.635   9.599  0.7048 -0.6154 -0.1556
14186SOL     OW43135   6.895   0.863   8.094 -0.0001  0.0388  0.4730
14186SOL    HW143136   6.947   0.943   8.091  3.0378 -1.7487  1.0488
14186SOL    HW243137   6.943   0.801   8.040 -0.9155 -2.0876  1.9531
14187SOL     OW43138   2.500   3.154   1.088  0.4827  0.0997  0.3322
14187SOL    HW143139   2.474   3.103   1.164  0.6470  1.7714  1.5862
14187SOL    HW243140   2.561   3.219   1.123  1.1883  0.4197 -1.3798
14188SOL     OW43141   4.050   3.649   8.613  0.4833  0.5661 -0.2029
14188SOL    HW143142   4.066   3.573   8.557  0.8536  0.5565 -0.0860
14188SOL    HW243143   3.992   3.616   8.682  1.0858  0.2476  0.1581
14189SOL     OW43144   4.924   5.636   8.024 -0.6254  0.1957  0.0209
14189SOL    HW143145   4.957   5.590   7.947 -0.2971 -2.0378  1.4175
14189SOL    HW243146   5.001   5.682   8.059  0.5962 -2.8784  1.7707
14190SOL     OW43147   2.908   6.158   9.364 -0.1877 -0.0752  0.1943
14190SOL    HW143148   2.871   6.127   9.447 -0.8258  1.2416  0.4397
14190SOL    HW243149   2.864   6.242   9.349  0.2399 -0.0942 -1.2688
14191SOL     OW43150   3.672   5.070   6.685  0.3969  0.4122 -0.3524
14191SOL    HW143151   3.705   5.159   6.702  0.5980  0.2429  0.1879
14191SOL    HW243152   3.720   5.041   6.608  1.2166  0.3378  0.1682
14192SOL     OW43153   1.445   6.972   8.081  0.5639 -0.1434  0.2282
14192SOL    HW143154   1.363   6.942   8.120  0.2270  0.0417 -0.3339
14192SOL    HW243155   1.468   7.050   8.131  1.3781 -1.2265  1.6147
14193SOL     OW43156   5.324   9.945   4.018  0.4741 -0.2081  0.0342
14193SOL    HW143157   5.299  10.019   4.074 -1.5410 -1.7836  1.3918
14193SOL    HW243158   5.351   9.877   4.080 -0.1785 -1.4440 -1.0045
14194SOL     OW43159   0.621   5.642   4.611  0.2504  0.1001  0.0145
14194SOL    HW143160   0.620   5.660   4.518 -0.8426 -1.0819 -0.2359
14194SOL    HW243161   0.710   5.609   4.629  0.4309  0.2391 -0.6258
14195SOL     OW43162   5.320   2.232   5.791 -0.1014 -0.3910  0.1374
14195SOL    HW143163   5.243   2.230   5.847 -0.2190  0.3204  0.0099
14195SOL    HW243164   5.353   2.143   5.793  1.3776  0.0580  3.4169
14196SOL     OW43165   8.790   9.395   3.509  0.4918 -0.1143  0.0450
14196SOL    HW143166   8.743   9.328   3.461 -0.2733  0.7159 -0.3852
14196SOL    HW243167   8.882   9.373   3.497  0.2428 -1.3998  0.3802
14197SOL     OW43168   7.947   3.010   0.521 -0.3830 -0.0800  0.9861
14197SOL    HW143169   7.978   2.937   0.575  1.1653 -0.2186 -0.0034
14197SOL    HW243170   8.027   3.056   0.495 -1.1428  0.5020 -0.4427
14198SOL     OW43171   0.103   3.823   1.429  0.2368 -0.1661  0.4158
14198SOL    HW143172   0.089   3.739   1.472  0.6702 -1.3012 -1.5132
14198SOL    HW243173   0.186   3.812   1.381  1.0822  1.8920  1.2805
14199SOL     OW43174   9.841   2.657   3.432 -0.6102 -0.2362 -0.7263
14199SOL    HW143175   9.911   2.722   3.427 -0.1932 -0.7466 -1.6144
14199SOL    HW243176   9.762   2.705   3.410 -0.5018  0.2655 -0.0550
14200SOL     OW43177   1.045   0.502   0.800  0.6438 -0.4659  0.5173
14200SOL    HW143178   1.046   0.573   0.865  1.3019 -0.3707  0.4050
14200SOL    HW243179   1.135   0.468   0.799  0.3959 -1.1437  0.3919
14201SOL     OW43180   6.140   0.087   2.077  0.0571 -0.0099 -0.2296
14201SOL    HW143181   6.166   0.044   2.159  0.9919 -2.0892 -1.5382
14201SOL    HW243182   6.128   0.015   2.015 -1.3974  1.4626 -1.7333
14202SOL     OW43183   5.092   0.797   1.609 -0.3328 -0.5992  0.0387
14202SOL    HW143184   5.058   0.848   1.682 -0.8023 -0.1305 -0.4948
14202SOL    HW243185   5.032   0.815   1.537  0.2647 -0.8484 -0.5380
14203SOL     OW43186   2.010   4.365   4.076  0.0225  0.2018 -0.2431
14203SOL    HW143187   2.039   4.273   4.081 -0.0891  0.1901  0.2869
14203SOL    HW243188   2.082   4.414   4.116  0.0710  0.3445 -0.5038
14204SOL     OW43189   2.718   5.276   4.318 -0.0638  0.1648  0.6461
14204SOL    HW143190   2.657   5.203   4.320 -0.0250  0.1210  0.3055
14204SOL    HW243191   2.732   5.299   4.410  0.9312 -1.0989  0.8386
14205SOL     OW43192   4.643   4.919   7.318 -0.3025  0.4631  0.1650
14205SOL    HW143193   4.638   4.824   7.326  2.5447  0.3178  1.3823
14205SOL    HW243194   4.577   4.952   7.379  0.2248 -0.7532  1.4327
14206SOL     OW43195   8.584   8.425   0.721 -0.9608 -0.7160 -0.2253
14206SOL    HW143196   8.505   8.459   0.762 -0.4585  1.4482 -0.9124
14206SOL    HW243197   8.558   8.411   0.629 -0.1707  1.7744 -0.9164
14207SOL     OW43198   6.026   8.982   5.177  0.3719 -0.0709  0.2910
14207SOL    HW143199   6.063   9.010   5.261 -0.6126  1.2675  0.3149
14207SOL    HW243200   5.966   9.053   5.153  1.7705  0.3392 -2.3022
14208SOL     OW43201   2.444   5.127   2.471 -0.1833 -0.1545  0.0690
14208SOL    HW143202   2.508   5.057   2.458 -2.3031 -2.2112 -0.0162
14208SOL    HW243203   2.463   5.162   2.558  2.3799  0.8607 -0.7972
14209SOL     OW43204   3.811   8.722   1.105 -1.0161  0.1812  0.4824
14209SOL    HW143205   3.851   8.710   1.019  0.3643 -0.8506  1.2181
14209SOL    HW243206   3.801   8.633   1.140 -0.5535  0.6237  1.8098
14210SOL     OW43207   2.659   9.151   5.724  0.3207 -0.3874 -0.6358
14210SOL    HW143208   2.576   9.191   5.695  0.2953 -1.4054 -2.0281
14210SOL    HW243209   2.641   9.123   5.814 -0.6715 -0.1164 -0.7345
14211SOL     OW43210   2.650   2.704   6.787  0.1358  0.2561 -0.2255
14211SOL    HW143211   2.599   2.660   6.718  1.4235 -1.3877 -0.1989
14211SOL    HW243212   2.600   2.689   6.867 -0.3744  0.4652 -0.4994
14212SOL     OW43213   6.097   9.132   9.497  0.2303  1.0246 -0.4639
14212SOL    HW143214   6.012   9.175   9.490 -1.1455 -1.2368  0.8752
14212SOL    HW243215   6.126   9.151   9.586 -0.6691 -1.0632  0.3600
14213SOL     OW43216   9.144   2.608   8.161  0.3025 -0.1341  0.0789
14213SOL    HW143217   9.113   2.692   8.126 -1.9570 -1.4776 -1.4549
14213SOL    HW243218   9.086   2.543   8.121  1.4366 -2.3805  1.8463
14214SOL     OW43219   4.384   9.271   6.730  0.0342  0.0138 -1.2499
14214SOL    HW143220   4.302   9.286   6.778  1.1485  0.9450  0.4529
14214SOL    HW243221   4.382   9.178   6.708  0.1041 -0.8717  1.9780
14215SOL     OW43222   8.944   9.211   0.154 -0.2144  0.0038  0.1973
14215SOL    HW143223   8.851   9.189   0.145 -0.1000  0.2640 -2.3122
14215SOL    HW243224   8.944   9.300   0.191 -0.9994  0.3357 -0.5717
14216SOL     OW43225   2.906   9.252   8.714  0.0635 -0.9685  0.5755
14216SOL    HW143226   2.994   9.218   8.702  0.2568 -0.2921  0.0129
14216SOL    HW243227   2.877   9.275   8.625 -0.4615 -0.6687  0.8194
14217SOL     OW43228   9.780   6.747   2.967  0.2618 -0.4554  0.0836
14217SOL    HW143229   9.874   6.757   2.976  0.1814 -0.0946  0.5344
14217SOL    HW243230   9.768   6.707   2.880  0.8664 -1.2724  0.3719
14218SOL     OW43231   9.807   9.325   8.726  0.4129  0.2170 -0.3648
14218SOL    HW143232   9.843   9.256   8.671  1.1277 -1.2611  1.8653
14218SOL    HW243233   9.741   9.282   8.780 -1.5948  1.9972 -1.2388
14219SOL     OW43234   9.073   6.311   6.512  0.4233  0.1866  0.5314
14219SOL    HW143235   9.021   6.244   6.557  0.2289  0.1654  0.2799
14219SOL    HW243236   9.159   6.270   6.499  0.3019 -0.0197  0.3716
14220SOL     OW43237   8.732   9.759   9.290  0.0975 -0.0397  0.1090
14220SOL    HW143238   8.702   9.847   9.265  1.6166  0.3126 -0.5504
14220SOL    HW243239   8.825   9.770   9.311 -0.0124 -1.2426  1.3669
14221SOL     OW43240   8.723   9.437   1.499 -0.0877  0.4258  0.0360
14221SOL    HW143241   8.689   9.370   1.558  1.2419  0.1346  0.5120
14221SOL    HW243242   8.795   9.478   1.548 -0.3965  1.7088 -0.5288
14222SOL     OW43243   2.688   3.134   3.447 -0.6876 -0.3892  0.0404
14222SOL    HW143244   2.764   3.080   3.464 -2.3542 -2.3722  1.7170
14222SOL    HW243245   2.656   3.105   3.361  0.1409  0.1197 -0.4497
14223SOL     OW43246   1.597   3.971   0.220  0.1236  0.0254  0.1017
14223SOL    HW143247   1.582   4.036   0.151 -0.8904 -0.6384 -0.3215
14223SOL    HW243248   1.678   4.000   0.262  0.1289  1.1044 -0.6014
14224SOL     OW43249   2.183   5.679   2.409  0.8145 -0.1718  0.2828
14224SOL    HW143250   2.137   5.750   2.365  0.8823 -1.5253 -2.1395
14224SOL    HW243251   2.215   5.718   2.491  1.3619  2.7319 -1.1889
14225SOL     OW43252   4.082   6.263   0.019  0.3137 -0.1106 -0.0434
14225SOL    HW143253   4.151   6.328   0.031 -1.0617  1.0446  2.7134
14225SOL    HW243254   4.002   6.315   0.005 -0.6586 -1.1906  1.1718
14226SOL     OW43255   4.293   8.397   1.551 -0.2369 -0.0647 -0.3310
14226SOL    HW143256   4.322   8.451   1.478  1.4043 -2.9748 -2.0552
14226SOL    HW243257   4.202   8.377   1.532  0.3340 -1.2989 -2.0448
14227SOL     OW43258   3.326   4.732   7.345 -0.3774 -0.0272 -0.0605
14227SOL    HW143259   3.292   4.740   7.434 -1.3259  0.7042 -0.4786
14227SOL    HW243260   3.351   4.821   7.321  0.0892 -0.2566 -0.4513
14228SOL     OW43261   4.932   5.860   4.501  0.1145  0.0835  0.7454
14228SOL    HW143262   4.911   5.781   4.452  0.9191  0.5155 -0.3350
14228SOL    HW243263   4.957   5.924   4.435 -0.9208  1.3952  1.5598
14229SOL     OW43264   4.981   8.000   4.123  0.6724  0.6385  0.0636
14229SOL    HW143265   4.947   7.968   4.039  0.1810  1.7181 -0.1689
14229SOL    HW243266   4.919   7.966   4.188  0.4203  0.7210 -0.1305
14230SOL     OW43267   0.500   3.780   9.920  0.1419 -0.5774  0.2927
14230SOL    HW143268   0.517   3.874   9.919 -0.9650 -0.3593  0.1815
14230SOL    HW243269   0.405   3.773   9.929  0.0008 -1.6461 -1.4614
14231SOL     OW43270   3.049   3.954   3.938  0.0330  0.4612 -0.2087
14231SOL    HW143271   3.091   3.974   3.855  1.0853  0.0949  0.2263
14231SOL    HW243272   3.077   4.025   3.997 -0.5583  0.6206 -0.1103
14232SOL     OW43273   0.491   7.169   4.338 -0.0564 -0.4396 -0.2361
14232SOL    HW143274   0.489   7.082   4.300  1.7366  0.3912 -2.4353
14232SOL    HW243275   0.584   7.189   4.349 -0.4314  1.0590  0.5895
14233SOL     OW43276   0.420   9.991   0.863  0.3130  0.3713  0.3428
14233SOL    HW143277   0.494   9.980   0.804  0.5122  0.1083  0.6407
14233SOL    HW243278   0.372   9.909   0.857  0.9842 -0.1158  1.4413
14234SOL     OW43279   2.412   8.329   4.154 -0.2306  0.2866 -0.2818
14234SOL    HW143280   2.421   8.260   4.220  0.0687  1.3699  0.8458
14234SOL    HW243281   2.465   8.298   4.080  0.2791 -0.4881  0.3836
14235SOL     OW43282   1.920   1.303   0.652  0.2231 -0.1581  0.3746
14235SOL    HW143283   1.877   1.382   0.684  1.8450  0.6568  0.6725
14235SOL    HW243284   1.904   1.304   0.558 -1.6832 -0.7286  0.6598
14236SOL     OW43285   8.571   5.373   0.242  0.0730 -0.3887  0.2079
14236SOL    HW143286   8.563   5.364   0.147  0.4186 -0.1895  0.1581
14236SOL    HW243287   8.656   5.416   0.255 -0.5057  0.6548  0.5613
14237SOL     OW43288   5.293   9.685   0.331  0.4060 -0.2265  0.3914
14237SOL    HW143289   5.217   9.740   0.351 -0.4583 -1.1483 -0.2698
14237SOL    HW243290   5.303   9.692   0.236  2.6212  1.7389  0.6780
14238SOL     OW43291   6.307   8.164   5.040 -0.8691  0.1508 -0.2617
14238SOL    HW143292   6.293   8.094   4.976  0.9338 -0.6311  0.1124
14238SOL    HW243293   6.244   8.146   5.110  0.1068 -1.6449  0.2157
14239SOL     OW43294   6.465   9.954   2.730 -0.3309 -0.1045  0.2661
14239SOL    HW143295   6.539   9.908   2.769  1.4287  2.5294  0.2577
14239SOL    HW243296   6.410   9.978   2.805  0.6608  0.9231  0.6923
14240SOL     OW43297   4.924   5.285   8.543  0.3759  0.6667  0.5962
14240SOL    HW143298   4.959   5.206   8.501  2.2810  2.2551 -1.0165
14240SOL    HW243299   4.850   5.311   8.487  0.1909  0.4227  0.7262
14241SOL     OW43300   5.730   3.697   1.077  0.6249  0.0627 -0.0674
14241SOL    HW143301   5.652   3.723   1.028  0.1827  0.5095  0.8449
14241SOL    HW243302   5.774   3.633   1.021 -0.9958 -1.0490 -0.1263
14242SOL     OW43303   6.663   2.402   3.063 -0.0785  0.5993  0.3242
14242SOL    HW143304   6.695   2.433   2.978 -0.4297  1.4253  0.4874
14242SOL    HW243305   6.706   2.317   3.074 -0.1502  0.3989 -0.7483
14243SOL     OW43306   1.709   8.148   6.740  0.0319  0.5271 -0.7553
14243SOL    HW143307   1.800   8.175   6.754  0.1574  0.3073 -1.1140
14243SOL    HW243308   1.666   8.226   6.706 -0.0592  0.8016 -0.0348
14244SOL     OW43309   8.039   9.629   3.314 -0.4150 -0.9394  0.2268
14244SOL    HW143310   8.051   9.638   3.219 -0.6490  0.6167  0.3193
14244SOL    HW243311   8.124   9.654   3.351 -0.6067 -0.6187  0.4547
14245SOL     OW43312   2.433   2.475   0.096 -0.1222  0.5484  0.1299
14245SOL    HW143313   2.384   2.403   0.135 -1.4883  0.5819 -1.4463
14245SOL    HW243314   2.524   2.447   0.101 -0.5960 -1.1389 -0.1351
14246SOL     OW43315   6.697   8.896   3.893  0.3151 -0.0185  0.1799
14246SOL    HW143316   6.714   8.989   3.875 -2.0818  1.2169  3.2071
14246SOL    HW243317   6.711   8.888   3.988  3.7643 -3.7229 -0.3647
14247SOL     OW43318   4.849   7.239   3.234  0.7194 -0.6218  0.0502
14247SOL    HW143319   4.788   7.212   3.303 -1.0371  1.0376 -0.7529
14247SOL    HW243320   4.897   7.159   3.212 -1.2680 -2.0555  0.6393
14248SOL     OW43321   5.509   5.521   2.462  0.0818 -0.1808  0.4894
14248SOL    HW143322   5.474   5.549   2.377  2.0763  1.8906  0.2455
14248SOL    HW243323   5.457   5.569   2.526  0.2511  0.3017  0.2773
14249SOL     OW43324   5.916   9.029   1.490  0.1899 -0.2522 -0.4021
14249SOL    HW143325   5.938   8.974   1.565 -2.2319 -2.3076 -1.0407
14249SOL    HW243326   5.968   8.993   1.418  3.7853  2.7400  0.3755
14250SOL     OW43327   6.184   6.620   7.944 -0.3762  0.2739  0.2783
14250SOL    HW143328   6.188   6.641   7.851  0.6840  0.0929  0.2747
14250SOL    HW243329   6.267   6.651   7.980 -0.4060 -0.4413  0.9999
14251SOL     OW43330   4.528   7.078   6.685  0.5842  0.2507  0.1473
14251SOL    HW143331   4.605   7.026   6.707 -0.6508 -1.5924  0.2832
14251SOL    HW243332   4.552   7.121   6.603  0.4491 -3.3897 -2.0025
14252SOL     OW43333   5.511   8.467   2.529  0.4813  0.7136  0.3078
14252SOL    HW143334   5.554   8.407   2.589 -1.7772 -1.4108 -0.0358
14252SOL    HW243335   5.431   8.494   2.574  0.1869  1.4314 -0.5967
14253SOL     OW43336   6.525   9.009   2.498  0.5028  0.0189  0.6516
14253SOL    HW143337   6.513   9.030   2.405  0.4199  0.5784  0.7808
14253SOL    HW243338   6.530   8.914   2.501 -0.8336 -0.0797  0.2263
14254SOL     OW43339   0.597   0.479   3.567 -0.2202  0.7153  0.0961
14254SOL    HW143340   0.510   0.479   3.528 -0.6736 -2.7181  0.7130
14254SOL    HW243341   0.655   0.509   3.498 -1.7697  2.0165 -0.6850
14255SOL     OW43342   3.526   3.016   9.417  0.0717 -0.2388 -0.4620
14255SOL    HW143343   3.494   3.023   9.507  0.7231  2.6979 -0.3427
14255SOL    HW243344   3.448   2.996   9.366 -0.9060  1.0548  0.4497
14256SOL     OW43345   2.853   0.159   4.576  0.5640  0.4707  0.8478
14256SOL    HW143346   2.865   0.215   4.654  0.9626  1.5259  0.0502
14256SOL    HW243347   2.905   0.201   4.508 -0.7966  0.2980 -0.3438
14257SOL     OW43348   8.220   2.946   1.929 -0.0108  0.3652  0.6142
14257SOL    HW143349   8.220   3.042   1.930 -1.6465  0.3810  1.4006
14257SOL    HW243350   8.283   2.924   1.860 -0.9724  2.0329 -0.8916
14258SOL     OW43351   5.411   6.680   6.049 -0.3326 -0.2418  0.0703
14258SOL    HW143352   5.361   6.599   6.041  0.1024 -0.3874 -1.5402
14258SOL    HW243353   5.344   6.749   6.049 -0.6493 -0.5389  0.4914
14259SOL     OW43354   9.463   5.780   2.007 -0.4263  0.2676  0.4342
14259SOL    HW143355   9.448   5.861   2.056  0.5686  0.9118 -0.2843
14259SOL    HW243356   9.532   5.735   2.054  0.5666  0.9110 -0.3598
14260SOL     OW43357   6.135   9.781   6.117  0.0902 -0.4446 -0.1141
14260SOL    HW143358   6.096   9.797   6.031 -0.4955 -0.9008  0.0599
14260SOL    HW243359   6.111   9.858   6.168 -2.6615 -1.7212  0.7001
14261SOL     OW43360   7.674   5.942   3.146 -0.2249  0.7019 -0.6661
14261SOL    HW143361   7.677   5.857   3.190 -2.1999  1.8300  1.9439
14261SOL    HW243362   7.764   5.975   3.153  0.6024 -1.1265 -1.8333
14262SOL     OW43363   8.314   3.140   3.198  0.3545  0.8067  0.3650
14262SOL    HW143364   8.344   3.053   3.222 -1.0326  0.2692  0.2425
14262SOL    HW243365   8.368   3.199   3.251  1.3443 -0.1059  0.4035
14263SOL     OW43366   4.965   5.252   3.471  0.3016  0.6984  0.3794
14263SOL    HW143367   5.021   5.255   3.548  0.0014 -0.1225  0.6370
14263SOL    HW243368   5.026   5.260   3.397  0.8097 -0.5605  0.6469
14264SOL     OW43369   9.220   0.509   8.660 -0.0722 -0.1982 -0.0104
14264SOL    HW143370   9.296   0.549   8.618 -0.6856 -0.3113 -1.2827
14264SOL    HW243371   9.149   0.521   8.597 -0.7837 -1.3290  0.5420
14265SOL     OW43372   2.208   1.038   3.796 -0.1775  0.1540 -0.5807
14265SOL    HW143373   2.197   1.126   3.833 -0.7821  0.6277 -1.8606
14265SOL    HW243374   2.164   1.041   3.712  1.6263 -0.7532 -1.6171
14266SOL     OW43375   9.266   2.327   4.673  0.2727 -0.6740  0.2390
14266SOL    HW143376   9.339   2.276   4.639 -1.3571 -1.9882 -1.5116
14266SOL    HW243377   9.222   2.269   4.735 -0.9728 -1.0653 -0.9592
14267SOL     OW43378   6.758   3.778   2.002  0.2877  0.0127  0.1367
14267SOL    HW143379   6.782   3.706   1.944 -0.7102  0.4495 -0.8561
14267SOL    HW243380   6.839   3.826   2.016  0.6401 -0.3837 -0.4968
14268SOL     OW43381   9.184   9.730   6.169  0.4132 -0.4157 -0.0123
14268SOL    HW143382   9.113   9.794   6.170  0.5516 -0.2540 -0.4248
14268SOL    HW243383   9.184   9.696   6.080  0.5940 -0.7067  0.0998
14269SOL     OW43384   2.897   6.155   5.801 -0.6483  0.3002 -0.3399
14269SOL    HW143385   2.853   6.130   5.882 -1.6160 -0.7677 -1.1646
14269SOL    HW243386   2.899   6.251   5.804  0.2313  0.2750  1.3807
14270SOL     OW43387   2.512   0.770   4.420  0.1086  0.1952  0.0000
14270SOL    HW143388   2.438   0.829   4.435  0.9087  1.4246 -0.6249
14270SOL    HW243389   2.472   0.685   4.403 -1.1368  0.7356  0.0794
14271SOL     OW43390   4.039   6.834   6.060 -0.2321  0.9297  0.0445
14271SOL    HW143391   4.056   6.871   5.973  2.3419  0.1267  0.1366
14271SOL    HW243392   3.984   6.758   6.043  0.3600  0.6950 -0.9057
14272SOL     OW43393   1.396   3.319   5.347 -0.1759  0.0273 -0.0236
14272SOL    HW143394   1.311   3.306   5.389 -0.8317  1.3868 -0.8539
14272SOL    HW243395   1.456   3.265   5.397 -1.4934 -0.8193  0.7042
14273SOL     OW43396   6.114   2.701   6.445 -0.2447 -0.4882 -0.0550
14273SOL    HW143397   6.103   2.628   6.384 -0.3344  1.0318 -1.9398
14273SOL    HW243398   6.179   2.670   6.507  0.5501 -1.7763 -1.4647
14274SOL     OW43399   3.046   8.635   2.339  0.8931 -0.3173  0.6391
14274SOL    HW143400   2.997   8.554   2.325  1.1640 -0.6919  1.7684
14274SOL    HW243401   3.054   8.673   2.252 -3.2856  0.9099  0.5595
14275SOL     OW43402   9.930   3.574   0.095  0.4254 -0.1423  0.1799
14275SOL    HW143403   9.879   3.618   0.027  2.0427  0.9474 -0.3802
14275SOL    HW243404   9.917   3.628   0.173 -1.3779 -1.3566  0.7885
14276SOL     OW43405   7.301   2.987   9.574 -0.3741  0.8172 -0.1981
14276SOL    HW143406   7.384   3.034   9.567 -0.5727  1.2370  0.1763
14276SOL    HW243407   7.294   2.965   9.667 -0.6702  0.7635 -0.2311
14277SOL     OW43408   6.022   3.140   8.619  0.2360 -0.5654  0.1413
14277SOL    HW143409   5.929   3.120   8.606 -0.3091  0.2857  2.3703
14277SOL    HW243410   6.067   3.085   8.554 -1.7885 -1.1035 -0.8986
14278SOL     OW43411   1.046   8.985   4.082 -0.1688  0.4867  0.3673
14278SOL    HW143412   1.105   9.024   4.017 -0.4560  1.0346  0.4309
14278SOL    HW243413   1.097   8.982   4.163  0.1307 -0.0379  0.1663
14279SOL     OW43414   3.997   0.455   9.942  0.7803  0.0316 -0.0003
14279SOL    HW143415   4.051   0.508  10.000  1.3779 -0.7029  0.1300
14279SOL    HW243416   3.935   0.518   9.903  1.4525  0.8145  0.1610
14280SOL     OW43417   5.203   7.367   1.325  0.1108 -0.1873 -0.6032
14280SOL    HW143418   5.243   7.411   1.250 -1.9070 -0.5716 -2.0069
14280SOL    HW243419   5.276   7.348   1.384  1.8262 -0.0665 -2.5727
14281SOL     OW43420   5.594   3.400   3.554  0.2197  0.5134  0.2026
14281SOL    HW143421   5.525   3.354   3.506  1.3639  2.0325 -3.1691
14281SOL    HW243422   5.549   3.438   3.630 -2.7258  1.4280 -1.8094
14282SOL     OW43423   7.990   9.743   4.494  0.3017 -0.3144 -0.0217
14282SOL    HW143424   7.936   9.780   4.424  0.9115  0.6544  0.0123
14282SOL    HW243425   7.928   9.695   4.549 -0.3772 -0.0202 -0.5232
14283SOL     OW43426   1.343   8.534   8.782  0.2363  0.2767 -0.2568
14283SOL    HW143427   1.293   8.454   8.767  0.5676  0.0127  0.0239
14283SOL    HW243428   1.435   8.508   8.771  0.3229  0.7514 -0.7579
14284SOL     OW43429   4.002   2.948   0.845  0.4783 -0.1055 -0.2752
14284SOL    HW143430   3.984   3.034   0.808  0.3676 -0.1643 -0.3623
14284SOL    HW243431   3.956   2.947   0.929 -0.1199 -0.3359 -0.5998
14285SOL     OW43432   2.494   4.971   2.140 -0.1571  0.2099  0.6040
14285SOL    HW143433   2.481   5.062   2.167 -0.6308 -0.0641  1.3512
14285SOL    HW243434   2.512   4.976   2.047  2.1847  1.2828  1.0373
14286SOL     OW43435   6.405   8.027   8.073 -0.0573  0.1123 -0.3985
14286SOL    HW143436   6.388   8.046   8.165  0.3132  0.7484 -0.4594
14286SOL    HW243437   6.347   8.087   8.025 -0.5825 -0.5301 -0.5844
14287SOL     OW43438   3.735   9.820   2.216  0.3051  0.3043 -0.1905
14287SOL    HW143439   3.766   9.911   2.221 -4.1422  2.0647  0.7841
14287SOL    HW243440   3.714   9.807   2.123  1.0209  0.2097 -0.3454
14288SOL     OW43441   6.789   3.637   6.548  0.0682  0.1035  0.2981
14288SOL    HW143442   6.791   3.651   6.453  2.6289 -1.3322  0.0384
14288SOL    HW243443   6.794   3.725   6.586  0.8186  0.6199 -0.9378
14289SOL     OW43444   8.227   3.542   2.742  0.2035  0.4142 -0.0224
14289SOL    HW143445   8.258   3.538   2.833 -0.8997 -0.1537  0.3382
14289SOL    HW243446   8.175   3.622   2.738  0.6386  0.6918 -0.2960
14290SOL     OW43447   0.958   2.519   6.267 -0.5351  0.1051 -0.0604
14290SOL    HW143448   0.964   2.497   6.174 -0.5791 -1.6435  0.3165
14290SOL    HW243449   0.889   2.585   6.271 -0.5017  0.2426 -1.2783
14291SOL     OW43450   2.766   9.267   2.308 -0.5712  0.1121 -0.1261
14291SOL    HW143451   2.708   9.259   2.232  0.8584 -1.2151 -1.1491
14291SOL    HW243452   2.719   9.224   2.379 -2.4077  2.3205  0.1068
14292SOL     OW43453   7.230   5.229   8.399 -0.0219  0.2324  0.1226
14292SOL    HW143454   7.275   5.257   8.319  0.6596  2.9752  1.3601
14292SOL    HW243455   7.144   5.271   8.394  0.2668  0.9813  1.0858
14293SOL     OW43456  -0.022   7.626   1.901  0.4343  0.0328  0.3037
14293SOL    HW143457   0.012   7.568   1.969 -0.6783  0.0738  0.9172
14293SOL    HW243458   0.025   7.600   1.821  2.6034  0.7454  1.2763
14294SOL     OW43459   5.605   2.061   8.262  0.5219 -0.0345  0.2570
14294SOL    HW143460   5.604   1.966   8.250 -2.0105 -0.0449 -0.0284
14294SOL    HW243461   5.514   2.083   8.282  1.0231  2.3579  0.1351
14295SOL     OW43462   9.167   2.856   1.987  0.2758  0.7911  0.5966
14295SOL    HW143463   9.086   2.829   2.029  0.3886  1.1756  1.0812
14295SOL    HW243464   9.139   2.903   1.908  0.0939 -1.9357 -1.1060
14296SOL     OW43465   9.489   2.465   3.782  0.2193  0.3884  0.4434
14296SOL    HW143466   9.411   2.451   3.836  0.1573  2.0439  0.8216
14296SOL    HW243467   9.528   2.545   3.816  0.9195  0.7525 -1.1184
14297SOL     OW43468   4.493   6.478   5.686 -0.2203  0.2275  0.6882
14297SOL    HW143469   4.444   6.396   5.682  0.4295 -0.3140  2.8319
14297SOL    HW243470   4.563   6.467   5.622 -0.3701 -0.7235  0.6718
14298SOL     OW43471   7.566   0.625   9.366  0.2804  0.0795 -0.5144
14298SOL    HW143472   7.592   0.653   9.454 -1.6381 -0.0391  0.1536
14298SOL    HW243473   7.581   0.702   9.311  2.4276 -0.1577 -0.3117
14299SOL     OW43474   6.443   0.851   1.201 -0.5440  0.1427 -0.7625
14299SOL    HW143475   6.448   0.931   1.254 -0.2075 -0.8242  0.7166
14299SOL    HW243476   6.491   0.873   1.121 -1.0661  1.6416 -0.7021
14300SOL     OW43477   6.773   7.096   1.256  0.5808  0.3839  0.1013
14300SOL    HW143478   6.769   7.045   1.337  2.0637 -1.2995 -0.7929
14300SOL    HW243479   6.854   7.147   1.264  1.4753 -0.8293 -0.8349
14301SOL     OW43480   6.468   2.204   4.814  0.4649 -0.5251  0.1730
14301SOL    HW143481   6.393   2.262   4.797  1.3749  0.8635  0.6621
14301SOL    HW243482   6.438   2.117   4.789 -1.1727  0.0632 -0.0287
14302SOL     OW43483   9.199   2.166   9.525 -0.1266 -0.1942  0.6252
14302SOL    HW143484   9.241   2.118   9.453 -0.7479 -1.0204  0.7945
14302SOL    HW243485   9.132   2.106   9.557  0.5419 -0.0860  2.3077
14303SOL     OW43486   1.848   7.612   4.528  0.4229 -0.0064  0.6564
14303SOL    HW143487   1.928   7.637   4.482 -0.3198  0.5606 -0.3793
14303SOL    HW243488   1.823   7.529   4.489 -1.2302  1.3727 -1.3896
14304SOL     OW43489   5.160   9.480   9.338  0.0485 -0.0390  0.0594
14304SOL    HW143490   5.227   9.411   9.347  0.5641  0.2384 -1.3645
14304SOL    HW243491   5.143   9.509   9.428 -0.6102 -2.4047  0.7692
14305SOL     OW43492   4.725   2.536   1.033 -0.5271 -0.2585 -0.1464
14305SOL    HW143493   4.714   2.501   1.122  0.3639  0.9705  0.4743
14305SOL    HW243494   4.790   2.479   0.993 -0.3230 -0.3213  0.2711
14306SOL     OW43495   1.825   4.463   8.206  0.2053  0.1493  0.1050
14306SOL    HW143496   1.794   4.373   8.193  0.4401  0.1711 -0.6478
14306SOL    HW243497   1.846   4.494   8.118  0.2560  0.8980  0.3756
14307SOL     OW43498   0.212   1.376   7.795 -0.0485  0.8534  0.5968
14307SOL    HW143499   0.168   1.443   7.743 -0.0990  0.3149 -0.0794
14307SOL    HW243500   0.270   1.332   7.733  0.9581  1.1179  1.3290
14308SOL     OW43501   6.805   0.177   4.874 -0.0859  0.0353 -0.2798
14308SOL    HW143502   6.854   0.251   4.911 -2.7213  1.6600  0.2389
14308SOL    HW243503   6.847   0.100   4.912  1.1009  1.3761  1.3040
14309SOL     OW43504   4.208   0.712   8.475 -0.0338  0.2864  0.0042
14309SOL    HW143505   4.170   0.670   8.552 -0.5863 -0.8424 -0.8558
14309SOL    HW243506   4.303   0.703   8.486 -0.1384 -2.1269 -0.6181
14310SOL     OW43507   4.386   3.131   4.540  0.1055 -0.1737  0.0341
14310SOL    HW143508   4.378   3.171   4.627 -1.5185 -2.1961  0.8936
14310SOL    HW243509   4.428   3.046   4.557 -0.7181 -0.8296 -1.0636
14311SOL     OW43510   8.789   6.953   2.986  0.6377 -1.0450  0.5469
14311SOL    HW143511   8.767   7.008   2.911 -0.2754  0.3075  1.7453
14311SOL    HW243512   8.881   6.932   2.975  0.1115 -2.4154 -1.8732
14312SOL     OW43513   7.594   7.534   5.849 -0.4958 -0.1683 -0.1796
14312SOL    HW143514   7.630   7.551   5.936 -0.7415  0.6682 -0.2311
14312SOL    HW243515   7.665   7.492   5.801  0.2244  0.9400 -0.1057
14313SOL     OW43516   2.039   1.248   0.371  0.0421 -0.7259 -0.4904
14313SOL    HW143517   2.112   1.227   0.429  0.4366  3.4030  0.8140
14313SOL    HW243518   2.080   1.282   0.291 -0.3599  1.2880  0.1098
14314SOL     OW43519   8.169   1.808   2.137  0.3457  0.0969  0.9106
14314SOL    HW143520   8.249   1.778   2.180 -0.4680 -1.8190  1.2082
14314SOL    HW243521   8.199   1.868   2.069  2.1535 -1.4882  0.2220
14315SOL     OW43522   5.094   7.829   4.697 -0.2348 -0.1813  0.5055
14315SOL    HW143523   5.102   7.747   4.648 -0.4238  0.3740 -0.4847
14315SOL    HW243524   5.106   7.897   4.631  2.0534  0.6229  1.6564
14316SOL     OW43525   3.066   0.406   7.565  0.2894  0.1209  0.2744
14316SOL    HW143526   3.084   0.325   7.516  1.1576 -0.2230  1.1263
14316SOL    HW243527   3.121   0.472   7.523 -0.7449  0.3928 -0.7011
14317SOL     OW43528   0.446   9.705   2.853  0.2359 -0.0175  0.3528
14317SOL    HW143529   0.540   9.710   2.870  0.0504  1.5718  1.0707
14317SOL    HW243530   0.430   9.612   2.835  2.0634 -0.1951 -0.6146
14318SOL     OW43531   2.572   2.618   0.950 -0.3647 -0.2420 -0.3688
14318SOL    HW143532   2.534   2.631   0.863 -3.0379 -0.5388  0.6585
14318SOL    HW243533   2.613   2.702   0.971 -2.7257  1.0658 -0.5846
14319SOL     OW43534   8.942   3.345   8.063 -0.3118  0.5229 -0.0123
14319SOL    HW143535   8.974   3.348   7.973 -0.9831  0.5285 -0.2557
14319SOL    HW243536   8.847   3.344   8.055 -0.4099  1.6718  0.7187
14320SOL     OW43537   5.983   4.094   9.022 -0.3393 -0.0807 -0.5101
14320SOL    HW143538   6.032   4.137   9.093 -3.4527 -0.2218  1.9309
14320SOL    HW243539   5.901   4.068   9.063 -1.8268 -1.2770 -3.9679
14321SOL     OW43540   5.072   6.824   1.583 -0.7309  0.5220  0.4982
14321SOL    HW143541   5.096   6.911   1.615  1.9542 -0.5876  1.9084
14321SOL    HW243542   5.034   6.780   1.659 -0.5713 -0.0221  0.2706
14322SOL     OW43543   1.663   7.907   5.594 -0.7834 -0.1522  0.2200
14322SOL    HW143544   1.714   7.828   5.577 -0.7925  0.1200 -1.1816
14322SOL    HW243545   1.572   7.881   5.580 -0.7202  0.3219 -1.2769
14323SOL     OW43546   5.822   0.486   0.372 -0.2815  0.0123  0.5659
14323SOL    HW143547   5.822   0.420   0.442 -0.1801 -1.1857 -0.5354
14323SOL    HW243548   5.733   0.486   0.338  0.0550 -0.5793 -0.3579
14324SOL     OW43549   7.794   2.046   4.421 -0.1317  0.4967 -0.2177
14324SOL    HW143550   7.821   2.135   4.445  0.2997 -0.0199  1.3886
14324SOL    HW243551   7.872   1.992   4.436 -1.0432 -0.5050  1.2186
14325SOL     OW43552   6.895   0.300   0.678  0.4021  0.3288  0.0406
14325SOL    HW143553   6.868   0.281   0.588  2.7400  0.7819 -0.8402
14325SOL    HW243554   6.817   0.339   0.718 -0.4060  1.1600 -2.1331
14326SOL     OW43555   3.693   9.059   6.670 -0.2345 -0.1648 -0.3330
14326SOL    HW143556   3.622   8.995   6.675  1.2973 -1.8563  1.5396
14326SOL    HW243557   3.699   9.081   6.577 -3.7029  0.7394 -0.4998
14327SOL     OW43558   5.814   7.238   7.681 -0.0188 -0.2411 -0.0692
14327SOL    HW143559   5.787   7.285   7.602 -1.1705  1.7015  1.3744
14327SOL    HW243560   5.751   7.166   7.689  0.2294 -0.5736 -0.9892
14328SOL     OW43561   6.396   8.706   3.799  0.6721 -0.0483  0.0247
14328SOL    HW143562   6.423   8.772   3.736  1.0305 -0.9436 -0.7843
14328SOL    HW243563   6.319   8.665   3.760 -1.1953  1.6185  1.7341
14329SOL     OW43564   2.809   0.703   7.987  0.0942 -0.1234 -0.1535
14329SOL    HW143565   2.887   0.726   7.936  0.7363  0.1204  0.9117
14329SOL    HW243566   2.839   0.637   8.050 -0.5585 -0.0295  0.2756
14330SOL     OW43567   8.667   0.843   5.810  0.0161 -0.0666  0.2051
14330SOL    HW143568   8.669   0.921   5.755  2.4400  0.2689  0.6595
14330SOL    HW243569   8.696   0.873   5.896  0.7058 -1.3901  0.4682
14331SOL     OW43570   5.801   8.220   3.485  0.4669  0.5689 -0.4119
14331SOL    HW143571   5.747   8.192   3.411 -2.6594  1.1246  1.5051
14331SOL    HW243572   5.755   8.295   3.522  1.7954  0.1881  2.2434
14332SOL     OW43573   6.918   9.807   8.277 -0.1219  0.9745  0.3076
14332SOL    HW143574   6.985   9.782   8.213 -0.2320  0.2440  0.4678
14332SOL    HW243575   6.881   9.888   8.242 -0.2089  0.5695 -0.5736
14333SOL     OW43576   1.269   8.099   4.724 -0.3422 -0.1580  0.2594
14333SOL    HW143577   1.297   8.129   4.638 -1.2320  1.3388  0.4537
14333SOL    HW243578   1.335   8.131   4.785  0.0104 -0.7624  0.2015
14334SOL     OW43579   3.892   8.883   3.225  0.1312 -0.4255  0.3305
14334SOL    HW143580   3.861   8.949   3.163 -2.1837 -1.8868 -0.2023
14334SOL    HW243581   3.845   8.903   3.306  0.6341 -0.4887  0.6425
14335SOL     OW43582   1.399   6.176   3.334 -0.0278  0.2312  0.0884
14335SOL    HW143583   1.358   6.208   3.254 -0.1152  0.4460  0.2174
14335SOL    HW243584   1.458   6.107   3.305 -0.5037 -0.1032 -0.0958
14336SOL     OW43585   0.869   8.089   6.487 -0.5905  0.0433 -0.0430
14336SOL    HW143586   0.847   8.083   6.580  0.1633 -0.6634  0.0970
14336SOL    HW243587   0.805   8.032   6.444 -0.3832 -0.3320  0.1387
14337SOL     OW43588   7.017   9.294   2.749  0.0749  0.5421  0.1698
14337SOL    HW143589   6.981   9.250   2.825  0.9281 -2.8938 -1.2170
14337SOL    HW243590   6.941   9.316   2.695 -0.4829  2.4841  1.6640
14338SOL     OW43591   6.816   6.635   4.056 -0.2992 -0.4496  0.3968
14338SOL    HW143592   6.861   6.654   3.974 -1.9169  0.1333 -0.3867
14338SOL    HW243593   6.767   6.555   4.039 -1.8406  0.4870  0.2652
14339SOL     OW43594   3.167   7.534   3.021  0.9158  0.3872 -0.1111
14339SOL    HW143595   3.110   7.494   3.087 -0.9665  0.9386 -1.3341
14339SOL    HW243596   3.136   7.624   3.013  2.6621  1.0307 -0.0921
14340SOL     OW43597   4.777   7.766   9.110 -0.2900  0.0193 -0.0606
14340SOL    HW143598   4.704   7.809   9.065  0.8090  1.7291 -0.3127
14340SOL    HW243599   4.840   7.836   9.125  1.8670 -1.6265 -0.9586
14341SOL     OW43600   7.059   8.261   1.159 -0.0431 -0.1141 -0.3070
14341SOL    HW143601   7.000   8.325   1.198 -1.3899 -1.9029  0.7775
14341SOL    HW243602   7.081   8.297   1.073 -0.0313  2.1621  0.5945
14342SOL     OW43603   5.684   3.567   7.883 -0.1461  0.1841 -0.1524
14342SOL    HW143604   5.775   3.556   7.910 -0.0017 -0.2728 -0.8060
14342SOL    HW243605   5.634   3.554   7.964  0.4047  1.4664  0.4336
14343SOL     OW43606   3.777   8.579   8.379 -0.2269 -0.4485  0.6553
14343SOL    HW143607   3.683   8.594   8.372 -0.2831 -1.0024  0.0763
14343SOL    HW243608   3.804   8.556   8.290  0.8670  1.8714  0.2933
14344SOL     OW43609   7.844   8.104   9.353 -0.0818  0.3644 -0.1008
14344SOL    HW143610   7.840   8.196   9.329 -0.5897 -0.1726 -2.4382
14344SOL    HW243611   7.752   8.078   9.365 -0.0381 -0.0444 -0.5617
14345SOL     OW43612   7.717   9.388   4.600  0.4013  0.2704 -0.0240
14345SOL    HW143613   7.649   9.440   4.557  0.4116  0.3460  0.0491
14345SOL    HW243614   7.770   9.453   4.646 -0.1459  0.1203  0.8559
14346SOL     OW43615   5.973   5.956   0.769 -0.7702 -0.2722  0.2682
14346SOL    HW143616   6.044   5.907   0.728 -1.5502 -2.3041  1.2017
14346SOL    HW243617   5.918   5.889   0.810 -0.8312  1.4851  3.3767
14347SOL     OW43618   1.882   0.049   8.227 -0.1652  0.0400  0.0990
14347SOL    HW143619   1.810   0.095   8.270  0.3742 -0.1535  1.2462
14347SOL    HW243620   1.891   0.092   8.142 -2.8267 -1.1174 -0.8791
14348SOL     OW43621   3.584   6.376   1.542  0.0816  0.2488  0.0827
14348SOL    HW143622   3.568   6.375   1.637 -0.7743  0.4989 -0.0514
14348SOL    HW243623   3.612   6.286   1.522 -0.1948  0.0662  0.4918
14349SOL     OW43624   4.073   0.206   1.241  0.3342  0.1548  0.4320
14349SOL    HW143625   4.097   0.256   1.319  1.2395 -0.1255  0.3451
14349SOL    HW243626   4.073   0.270   1.170 -2.1965  0.7816  0.8974
14350SOL     OW43627   8.455   1.435   5.161 -0.2079  0.2407  0.1483
14350SOL    HW143628   8.365   1.406   5.178 -0.4264  1.4078  1.1523
14350SOL    HW243629   8.454   1.528   5.183  0.2952  1.2812 -3.5335
14351SOL     OW43630   5.604   2.609   3.597 -0.0231  0.4586  0.1491
14351SOL    HW143631   5.620   2.696   3.560  0.5925 -0.4008 -1.7676
14351SOL    HW243632   5.515   2.613   3.631 -0.7833  1.2733 -1.7878
14352SOL     OW43633   0.545   4.134   1.873 -0.0491 -0.2612  0.4588
14352SOL    HW143634   0.565   4.212   1.925  1.4089 -0.3947  0.1611
14352SOL    HW243635   0.620   4.076   1.887 -0.9591 -1.4843  0.4162
14353SOL     OW43636   7.441   7.187   1.573 -0.1344 -0.8460 -0.5258
14353SOL    HW143637   7.397   7.267   1.543 -3.8705 -1.0650  3.3497
14353SOL    HW243638   7.497   7.216   1.644 -1.0126 -1.5066  0.4703
14354SOL     OW43639   3.161   9.449   0.994  0.0106  0.1799  0.5663
14354SOL    HW143640   3.185   9.358   0.976  1.2262  0.8024 -1.2218
14354SOL    HW243641   3.175   9.494   0.911 -1.7815  1.7868  1.0758
14355SOL     OW43642   8.728   5.339   1.056  0.8795 -0.0203  0.0176
14355SOL    HW143643   8.823   5.336   1.056  0.8933  0.0580 -0.8575
14355SOL    HW243644   8.705   5.388   1.135  1.5687  0.1048  0.1445
14356SOL     OW43645   2.095   8.338   7.979 -0.2802 -0.2341 -0.3651
14356SOL    HW143646   2.049   8.257   7.958  1.6520 -1.3342 -0.6529
14356SOL    HW243647   2.178   8.309   8.018 -0.3598  1.6576  1.3419
14357SOL     OW43648   0.263   3.762   6.101 -0.5510 -0.0502 -0.3534
14357SOL    HW143649   0.288   3.684   6.051 -0.4191 -0.5740  0.4948
14357SOL    HW243650   0.325   3.829   6.073 -1.3856  0.1083 -1.9410
14358SOL     OW43651   4.110   4.607   4.485 -0.0092 -0.3786  0.0216
14358SOL    HW143652   4.053   4.672   4.443  0.1948 -0.8767 -1.0666
14358SOL    HW243653   4.072   4.523   4.460  0.5734 -0.6966  0.1903
14359SOL     OW43654   9.006   2.341   8.199 -0.1551  0.3513  0.2928
14359SOL    HW143655   8.970   2.266   8.153  0.5248  1.8103 -2.9267
14359SOL    HW243656   8.934   2.372   8.255 -1.6299 -0.6107 -0.9929
14360SOL     OW43657   8.641   4.402   0.666 -0.5763  0.1932 -0.2280
14360SOL    HW143658   8.679   4.447   0.590 -0.8476  0.7995 -0.0094
14360SOL    HW243659   8.717   4.380   0.720 -0.4068  0.0318 -0.5271
14361SOL     OW43660   0.882   2.650   5.576  0.0072  0.1263 -0.2413
14361SOL    HW143661   0.892   2.731   5.627 -0.5566  0.7025 -1.0196
14361SOL    HW243662   0.791   2.625   5.587 -0.0596  0.1264 -0.7780
14362SOL     OW43663   5.825   2.413   8.272  0.2051  0.1783 -0.3737
14362SOL    HW143664   5.866   2.436   8.189  0.7226 -0.8554 -0.4236
14362SOL    HW243665   5.734   2.442   8.263 -0.3759 -1.9221 -2.2373
14363SOL     OW43666   5.873   2.085   5.303 -0.7498 -0.2354  0.2407
14363SOL    HW143667   5.955   2.083   5.253 -1.6576  0.1469 -1.3447
14363SOL    HW243668   5.860   2.178   5.323 -0.4592 -0.3739  1.1037
14364SOL     OW43669   1.970   0.331   5.342  0.3941 -0.6450 -0.1305
14364SOL    HW143670   2.049   0.380   5.318 -0.0384 -0.5227 -1.4004
14364SOL    HW243671   1.918   0.392   5.393 -0.2475  0.3650 -1.9001
14365SOL     OW43672   4.168   8.666   7.332  0.7131 -0.2284 -0.7248
14365SOL    HW143673   4.104   8.605   7.294  0.0900 -0.3205  0.4283
14365SOL    HW243674   4.253   8.629   7.309  0.3632 -1.9177  0.4984
14366SOL     OW43675   0.602   1.446   3.375  0.6768 -0.7310  0.3943
14366SOL    HW143676   0.632   1.451   3.284 -0.3571 -0.4423  0.0615
14366SOL    HW243677   0.523   1.499   3.377 -0.5155 -2.4381  0.9698
14367SOL     OW43678   0.915   9.116   3.550  0.1783  0.3519 -0.4435
14367SOL    HW143679   0.979   9.094   3.617 -0.2158  1.2017  0.2214
14367SOL    HW243680   0.836   9.137   3.598 -0.7382 -1.0233 -1.2631
14368SOL     OW43681   1.015   7.639   7.162  0.0994 -0.7751 -0.1307
14368SOL    HW143682   0.945   7.639   7.228 -0.0985  1.4185 -0.2907
14368SOL    HW243683   1.078   7.574   7.195 -0.4316 -0.4058  1.7464
14369SOL     OW43684   7.140   4.884   6.707 -0.1995  0.2754  0.2936
14369SOL    HW143685   7.062   4.858   6.658  0.3612  0.4757 -0.7532
14369SOL    HW243686   7.112   4.890   6.798 -1.1792 -0.5278  0.0510
14370SOL     OW43687   3.745   0.180   5.434  0.4494 -0.7514 -0.1417
14370SOL    HW143688   3.771   0.199   5.524 -0.2133 -0.3828 -0.0201
14370SOL    HW243689   3.655   0.148   5.441 -0.3325  1.1759 -0.8391
14371SOL     OW43690   7.707   1.108   2.545 -0.0321 -0.5155 -0.1330
14371SOL    HW143691   7.768   1.134   2.615 -1.0322 -0.3966  0.7232
14371SOL    HW243692   7.716   1.176   2.478 -2.8713  2.4997  2.1982
14372SOL     OW43693   9.875   0.978   8.979 -0.4373 -0.0070  0.2757
14372SOL    HW143694   9.890   1.049   8.916 -1.0415 -0.5359 -0.4912
14372SOL    HW243695   9.779   0.976   8.990 -0.4084 -0.5685  0.4495
14373SOL     OW43696   4.482   2.551   1.344 -0.2045  0.2192 -0.0095
14373SOL    HW143697   4.438   2.563   1.428 -1.5814 -0.8947 -0.5413
14373SOL    HW243698   4.568   2.591   1.357 -0.9774  1.5487  1.3855
14374SOL     OW43699   0.487   9.708   6.756  0.0839 -0.0932 -0.0781
14374SOL    HW143700   0.501   9.673   6.844  0.7287  1.4178  0.4573
14374SOL    HW243701   0.410   9.662   6.724  0.2510 -1.1766  0.9975
14375SOL     OW43702   1.375   2.405   5.984 -0.0222  0.2428 -0.8238
14375SOL    HW143703   1.335   2.434   6.066  2.8944 -0.7700  1.1461
14375SOL    HW243704   1.303   2.368   5.934 -2.3212  2.8539  0.2568
14376SOL     OW43705   2.552   5.192   5.093  0.6374 -0.3398  0.0291
14376SOL    HW143706   2.524   5.108   5.057 -0.2774 -0.9380  2.0373
14376SOL    HW243707   2.480   5.219   5.150  1.0554  1.6723 -0.3096
14377SOL     OW43708   5.687   0.206   8.124 -0.5163 -0.0819  0.0398
14377SOL    HW143709   5.592   0.215   8.130 -0.4091  1.0596  0.2891
14377SOL    HW243710   5.714   0.174   8.210 -0.5900  0.5061  0.2877
14378SOL     OW43711   1.780   3.611   4.636 -0.1326  0.3691  0.1387
14378SOL    HW143712   1.735   3.561   4.568 -0.7104  1.6839 -0.4955
14378SOL    HW243713   1.751   3.701   4.622  1.0661  0.9276  1.0671
14379SOL     OW43714   4.204   2.312   2.247  0.2169  0.1316 -0.1208
14379SOL    HW143715   4.180   2.370   2.175  1.0656  0.0974 -0.4507
14379SOL    HW243716   4.274   2.360   2.293 -0.1957  0.0769  0.5754
14380SOL     OW43717   5.653   2.955   5.380  0.0251  0.2819 -0.5638
14380SOL    HW143718   5.629   2.883   5.438  0.6623 -0.5511 -1.3002
14380SOL    HW243719   5.651   2.917   5.292  2.8509  0.4004 -0.7934
14381SOL     OW43720   3.283   1.396   0.856 -0.3334 -0.1537  0.5725
14381SOL    HW143721   3.320   1.354   0.934  1.2274 -1.1977 -0.6653
14381SOL    HW243722   3.201   1.349   0.842  0.0140 -0.8630  0.8410
14382SOL     OW43723   4.276   8.020   1.201  0.2240 -0.3291  0.3101
14382SOL    HW143724   4.245   8.060   1.282  2.0044  1.3961  0.2375
14382SOL    HW243725   4.250   8.083   1.133  0.3157 -0.8652 -0.2261
14383SOL     OW43726   4.814   2.372   3.328  0.4488 -1.1177 -0.6319
14383SOL    HW143727   4.840   2.405   3.414 -0.1678 -1.5082 -0.2864
14383SOL    HW243728   4.890   2.387   3.272  0.4049  0.3124 -0.3437
14384SOL     OW43729   1.741   5.958   5.746 -0.1481  0.0657 -0.4151
14384SOL    HW143730   1.675   6.005   5.694 -0.6212 -1.0056 -0.8060
14384SOL    HW243731   1.789   5.905   5.682  0.2569 -0.1286  0.0463
14385SOL     OW43732   5.146   3.292   9.285  0.2153  0.0521  0.1472
14385SOL    HW143733   5.105   3.375   9.259 -1.5845 -0.6822  0.5286
14385SOL    HW243734   5.239   3.313   9.291 -0.1869  2.0410  0.2084
14386SOL     OW43735   5.884   8.354   0.491 -0.0468  0.8004  0.6207
14386SOL    HW143736   5.888   8.384   0.582  1.6960 -1.5414  1.4193
14386SOL    HW243737   5.964   8.388   0.451 -2.2093  4.4529 -1.0947
14387SOL     OW43738   2.139   0.357   4.127 -0.4194  0.0252  0.2305
14387SOL    HW143739   2.213   0.318   4.175 -0.9604 -0.2557  0.8491
14387SOL    HW243740   2.169   0.445   4.105  1.1320 -0.9168 -1.8504
14388SOL     OW43741   8.554   9.291   9.029 -0.0350  0.1113  0.0340
14388SOL    HW143742   8.486   9.338   8.982  0.5322  0.8739 -0.0482
14388SOL    HW243743   8.614   9.359   9.059  0.4221 -0.4997  0.5362
14389SOL     OW43744   1.428   2.724   9.528  1.3844  0.1511 -0.1026
14389SOL    HW143745   1.397   2.682   9.448 -0.8322  0.2319  0.6485
14389SOL    HW243746   1.439   2.816   9.504  0.3806  0.2430 -0.2633
14390SOL     OW43747   2.399   1.619   0.634  0.1842 -0.1595 -0.2631
14390SOL    HW143748   2.414   1.713   0.624  0.0576 -0.2515 -1.3826
14390SOL    HW243749   2.405   1.584   0.546  0.4399 -1.2446  0.1719
14391SOL     OW43750   7.397   5.363   5.125 -0.2120 -0.0276  0.4665
14391SOL    HW143751   7.304   5.363   5.103  0.0236  0.5516 -0.5831
14391SOL    HW243752   7.400   5.340   5.218 -1.3567 -0.7318  0.3461
14392SOL     OW43753   7.793   6.642   1.761  0.3852 -0.2696  0.1445
14392SOL    HW143754   7.856   6.709   1.733  0.7260 -0.5570  0.2086
14392SOL    HW243755   7.708   6.677   1.737  0.7229 -1.1553 -2.7299
14393SOL     OW43756   6.530   3.212   4.331 -0.2008 -0.0309 -0.2603
14393SOL    HW143757   6.487   3.292   4.302 -0.1707  0.3949  0.8392
14393SOL    HW243758   6.459   3.153   4.353 -0.2258  0.1367  0.1124
14394SOL     OW43759   9.892   2.458   7.090 -0.2771 -0.1377  0.1501
14394SOL    HW143760   9.804   2.473   7.055 -0.8050 -0.5976  1.2415
14394SOL    HW243761   9.920   2.543   7.122 -0.4684 -0.0587  0.1096
14395SOL     OW43762   8.475   3.529   9.530 -0.0939 -0.1699 -0.0877
14395SOL    HW143763   8.562   3.494   9.512  0.0443  0.2695 -0.3069
14395SOL    HW243764   8.491   3.620   9.557 -0.6232  0.8640 -2.8604
14396SOL     OW43765   9.403   3.365   4.262  0.2148 -0.2751 -0.0566
14396SOL    HW143766   9.339   3.357   4.191 -1.3077  2.2354  0.8747
14396SOL    HW243767   9.359   3.325   4.338  0.4034  0.0508  0.2273
14397SOL     OW43768   9.244   2.875   8.221 -0.0847  0.4025  0.0590
14397SOL    HW143769   9.274   2.864   8.311  1.4937  0.2965 -0.4615
14397SOL    HW243770   9.324   2.880   8.169 -0.9598 -1.4887 -1.5912
14398SOL     OW43771   8.436   7.217   4.173  0.6981 -0.1221 -0.0161
14398SOL    HW143772   8.383   7.175   4.105  1.0662 -1.3603  0.4223
14398SOL    HW243773   8.523   7.226   4.134  0.6139  0.2676 -0.1184
14399SOL     OW43774   7.832   2.117   1.213 -0.3012 -0.0589  0.3970
14399SOL    HW143775   7.790   2.156   1.136 -0.0481 -0.7785 -0.1171
14399SOL    HW243776   7.909   2.173   1.228  0.2828 -0.5670 -0.5824
14400SOL     OW43777   9.703   0.461   3.727 -0.4233  0.0590  0.2368
14400SOL    HW143778   9.664   0.449   3.641 -0.1652  0.3435  0.0786
14400SOL    HW243779   9.790   0.422   3.719  0.1957  1.4353 -0.0990
14401SOL     OW43780   5.499   9.474   0.242  0.1325  0.2030  0.3788
14401SOL    HW143781   5.452   9.395   0.267 -0.3131  0.8798  1.8244
14401SOL    HW243782   5.443   9.546   0.271  0.7403  1.0532 -0.4701
14402SOL     OW43783   2.834   7.768   4.160 -0.5821  0.1244 -0.0039
14402SOL    HW143784   2.869   7.712   4.091  1.3335  0.1713  0.8633
14402SOL    HW243785   2.881   7.851   4.149 -0.4574  0.2230  1.1492
14403SOL     OW43786   0.891   3.011   5.146 -0.1344  0.4006 -0.4372
14403SOL    HW143787   0.838   3.091   5.144 -1.4531 -0.4591 -0.7643
14403SOL    HW243788   0.931   3.008   5.059  0.1072  0.8181 -0.3458
14404SOL     OW43789   0.921   4.335   3.533 -0.1381 -0.6795 -0.0184
14404SOL    HW143790   1.005   4.291   3.517 -0.3356 -0.8679 -0.5330
14404SOL    HW243791   0.863   4.303   3.464 -0.0147  1.0945 -1.0206
14405SOL     OW43792   8.114   0.682   0.191  0.3196  0.1592 -0.1084
14405SOL    HW143793   8.133   0.696   0.098  0.3987 -0.8980 -0.2634
14405SOL    HW243794   8.045   0.745   0.211 -0.0902  0.0106 -1.0275
14406SOL     OW43795   8.476   8.662   8.652 -0.4785  0.2199  0.6644
14406SOL    HW143796   8.420   8.732   8.685  0.3218  0.3415  1.8313
14406SOL    HW243797   8.553   8.707   8.617 -1.1596  0.0749 -1.1814
14407SOL     OW43798   7.896   2.156   2.349 -0.0361 -0.5734  0.2289
14407SOL    HW143799   7.878   2.133   2.440 -0.1849  0.2395  0.4163
14407SOL    HW243800   7.921   2.249   2.353 -3.8991  0.7023 -0.9713
14408SOL     OW43801   7.320   3.552   0.225 -0.0162 -0.2769  0.2964
14408SOL    HW143802   7.321   3.479   0.163  0.3862 -0.6744  0.7635
14408SOL    HW243803   7.227   3.563   0.247 -0.0922 -0.5762  0.1369
14409SOL     OW43804   6.225   2.172   3.245  0.7490 -0.2145  0.5148
14409SOL    HW143805   6.308   2.206   3.278  0.2348 -0.7214  2.4791
14409SOL    HW243806   6.160   2.237   3.271  0.4953  0.0974 -0.8595
14410SOL     OW43807   0.621   8.783   9.557 -0.0747 -0.3429 -0.1305
14410SOL    HW143808   0.562   8.831   9.615  0.4340 -0.7519  0.7511
14410SOL    HW243809   0.573   8.775   9.475 -0.6445  0.6271  0.0876
14411SOL     OW43810   4.989   6.238   7.420 -0.0108 -0.2745  0.5811
14411SOL    HW143811   5.007   6.144   7.419 -1.2114 -0.5211  0.7830
14411SOL    HW243812   4.908   6.247   7.369 -1.0815  0.3836  2.3341
14412SOL     OW43813   3.813   7.123   5.645 -0.1658  0.3002 -0.5774
14412SOL    HW143814   3.780   7.089   5.561 -1.1727  1.1276 -0.5343
14412SOL    HW243815   3.765   7.073   5.711 -1.2394  1.3459 -0.5159
14413SOL     OW43816   6.399   8.625   3.093 -0.9880  0.0841 -0.7850
14413SOL    HW143817   6.457   8.568   3.143 -1.0621  0.8412  0.1802
14413SOL    HW243818   6.334   8.655   3.156 -1.3662  0.6878 -1.4409
14414SOL     OW43819   3.742   5.546   0.668  0.5581  0.4488  0.4777
14414SOL    HW143820   3.759   5.452   0.667 -2.2002 -0.2474 -2.8082
14414SOL    HW243821   3.776   5.576   0.751  4.2230 -2.8841  0.4727
14415SOL     OW43822   2.123   5.283   2.234 -0.5353 -0.0509  0.0115
14415SOL    HW143823   2.114   5.221   2.306  1.6099  1.3147  1.5318
14415SOL    HW243824   2.212   5.271   2.202  0.1255  2.5187  0.6679
14416SOL     OW43825   3.517   7.407   2.371  0.0133  0.0517  0.0635
14416SOL    HW143826   3.449   7.344   2.394 -0.5147  0.3274 -0.7363
14416SOL    HW243827   3.501   7.482   2.429 -0.5234  0.2191 -0.2959
14417SOL     OW43828   0.523   1.287   9.802  0.0411  0.0239  0.5781
14417SOL    HW143829   0.431   1.287   9.827  0.1357  0.6769  0.9505
14417SOL    HW243830   0.568   1.247   9.876  0.0217 -0.6427  0.2349
14418SOL     OW43831   1.779   0.854   6.630  0.0322  0.1156  0.1509
14418SOL    HW143832   1.728   0.929   6.599 -0.2504  0.5090  1.5029
14418SOL    HW243833   1.870   0.879   6.617 -0.0668  0.6305  0.4403
14419SOL     OW43834   6.226   3.722   3.414  0.1885 -0.1251  0.4413
14419SOL    HW143835   6.293   3.659   3.440  1.5401  1.3789  0.7650
14419SOL    HW243836   6.232   3.791   3.480 -3.4700 -1.0903  2.0222
14420SOL     OW43837   6.363   6.019   7.813  0.1952 -0.3701 -0.3658
14420SOL    HW143838   6.282   6.065   7.834 -0.7946 -1.7505 -0.9785
14420SOL    HW243839   6.366   6.020   7.717  1.1426  0.0493 -0.3367
14421SOL     OW43840   1.149   4.559   7.622  0.4711 -0.0426 -0.1368
14421SOL    HW143841   1.095   4.508   7.562  0.1991  0.5155 -0.3647
14421SOL    HW243842   1.150   4.507   7.703  1.3388 -1.1041 -0.7937
14422SOL     OW43843   3.349   6.956   7.675  0.0709 -0.1516 -0.0362
14422SOL    HW143844   3.305   6.952   7.591  0.4268  0.6674 -0.2683
14422SOL    HW243845   3.442   6.947   7.654  0.0195 -3.0687  0.5398
14423SOL     OW43846   4.727   6.849   8.690  0.2946  0.3185  0.7079
14423SOL    HW143847   4.642   6.862   8.733 -0.6884  0.1426 -1.1102
14423SOL    HW243848   4.732   6.918   8.624  0.8979 -0.5864 -0.2244
14424SOL     OW43849   1.133   0.019   0.658 -0.5021 -0.7743 -0.0715
14424SOL    HW143850   1.112   0.055   0.572 -1.9369 -0.3388  0.4147
14424SOL    HW243851   1.065  -0.046   0.674 -0.2484 -0.8575  0.7245
14425SOL     OW43852   1.438   8.361   5.983 -0.8588 -0.0723 -0.4007
14425SOL    HW143853   1.485   8.445   5.987 -1.6896  0.5428 -2.3698
14425SOL    HW243854   1.378   8.365   6.057  0.2271  0.3345  0.4994
14426SOL     OW43855   9.718   5.754   1.056  0.1968 -0.3228 -0.6908
14426SOL    HW143856   9.762   5.750   0.972  0.2898  1.8817 -0.8224
14426SOL    HW243857   9.625   5.761   1.035  0.1322 -0.8095 -0.5711
14427SOL     OW43858   8.409   3.578   2.125 -0.2949 -0.2015 -0.1915
14427SOL    HW143859   8.459   3.513   2.175 -0.1617  0.0385 -0.0129
14427SOL    HW243860   8.317   3.558   2.145 -0.2280  0.3429  0.7244
14428SOL     OW43861   7.620   4.454   2.923 -0.0024 -0.0147 -0.1668
14428SOL    HW143862   7.549   4.499   2.969  0.1917  0.7622 -0.6057
14428SOL    HW243863   7.586   4.443   2.834 -0.0169 -0.6753 -0.0812
14429SOL     OW43864   3.119   4.410   4.628 -0.3804 -0.3821  0.0112
14429SOL    HW143865   3.049   4.474   4.636  0.0692  0.2289 -0.8062
14429SOL    HW243866   3.083   4.330   4.666 -1.3530  0.0418  0.0052
14430SOL     OW43867   4.725   2.644   1.377  0.3074 -0.1681 -0.3574
14430SOL    HW143868   4.795   2.670   1.317  0.5957  1.4314  0.6291
14430SOL    HW243869   4.770   2.623   1.459 -0.3127  0.3849  0.1315
14431SOL     OW43870   1.674   1.434   9.711 -0.0446 -0.2008 -0.5248
14431SOL    HW143871   1.600   1.489   9.685  0.6517  0.8805 -0.2695
14431SOL    HW243872   1.634   1.362   9.759 -1.0512 -0.3774 -1.5668
14432SOL     OW43873   6.717   1.040   4.932  0.0189 -0.3934 -0.4871
14432SOL    HW143874   6.671   1.034   4.848 -1.4765  2.2764  0.0053
14432SOL    HW243875   6.688   1.124   4.968  3.6738  0.4373  0.9136
14433SOL     OW43876   3.918   9.427   3.645 -0.1923 -0.0180 -0.3340
14433SOL    HW143877   3.859   9.430   3.569  0.6711  1.5498 -0.9783
14433SOL    HW243878   3.880   9.359   3.701 -0.4853 -1.7331 -2.4599
14434SOL     OW43879   2.232   3.158   5.882 -0.5713  0.5031  0.1593
14434SOL    HW143880   2.315   3.136   5.840  0.0668  0.8302  1.2210
14434SOL    HW243881   2.189   3.216   5.820 -0.2253 -0.0361 -0.6084
14435SOL     OW43882   2.753   8.295   4.915  0.8942 -0.2656  0.7921
14435SOL    HW143883   2.708   8.285   4.998 -1.5836 -2.4126 -0.6722
14435SOL    HW243884   2.819   8.226   4.915 -2.5811 -3.9377 -0.9518
14436SOL     OW43885   8.365   8.914   9.890 -0.8247  0.0328  0.1035
14436SOL    HW143886   8.329   8.867   9.815 -1.8586 -1.4609  1.4924
14436SOL    HW243887   8.291   8.963   9.926 -0.7559 -0.5774  1.1110
14437SOL     OW43888   3.405   6.666   2.233 -0.3636 -0.2382  0.5112
14437SOL    HW143889   3.363   6.635   2.153  1.6299 -2.6750  0.2806
14437SOL    HW243890   3.370   6.610   2.302  1.0594 -1.0983  0.5886
14438SOL     OW43891   9.199   6.839   3.302 -0.2876 -0.0105 -0.0825
14438SOL    HW143892   9.244   6.760   3.273 -0.5652  0.2393 -1.2524
14438SOL    HW243893   9.260   6.881   3.363 -0.7852 -1.9087  1.8330
14439SOL     OW43894   5.059   2.030   7.853  0.5481 -0.2299  0.0645
14439SOL    HW143895   4.966   2.011   7.837  0.9327 -2.0877 -0.1968
14439SOL    HW243896   5.097   2.038   7.765  0.7244  0.1009  0.1680
14440SOL     OW43897   8.406   7.299   4.952 -0.2003 -0.9102  0.3133
14440SOL    HW143898   8.398   7.298   5.048 -1.0759  1.4697  0.3242
14440SOL    HW243899   8.315   7.303   4.921 -0.0335 -3.3815 -0.7432
14441SOL     OW43900   9.692   1.374   3.713 -0.7718 -0.3327 -0.5261
14441SOL    HW143901   9.694   1.281   3.736 -0.8867  0.1219  1.5159
14441SOL    HW243902   9.776   1.390   3.670 -0.4324 -1.2164 -0.2090
14442SOL     OW43903   3.492   7.589   2.567 -0.0675 -0.0045  0.3823
14442SOL    HW143904   3.546   7.562   2.641  0.2201 -1.0795 -0.2000
14442SOL    HW243905   3.402   7.574   2.595  0.0383 -0.3376  0.5418
14443SOL     OW43906   3.335   3.513   0.652 -0.2072 -0.1701 -0.2356
14443SOL    HW143907   3.395   3.587   0.648 -0.8801  0.4566  0.8157
14443SOL    HW243908   3.248   3.552   0.654 -0.6205 -1.0376 -0.8726
14444SOL     OW43909   3.558   2.954   1.894  0.5386  0.0141 -0.3131
14444SOL    HW143910   3.593   2.926   1.979  1.0308 -0.1270 -0.5559
14444SOL    HW243911   3.513   2.876   1.860 -0.2634  0.2801  0.1246
14445SOL     OW43912   2.682   3.920   6.505  0.0196 -0.2834  0.0241
14445SOL    HW143913   2.650   3.841   6.462  1.4074 -1.6807  1.4189
14445SOL    HW243914   2.695   3.983   6.434 -0.6297 -1.4763 -1.1928
14446SOL     OW43915   8.265   6.700   5.765 -0.0067  0.6562 -0.3663
14446SOL    HW143916   8.332   6.714   5.832 -0.4376  1.8654 -0.1692
14446SOL    HW243917   8.310   6.653   5.695 -0.0135 -2.5750  1.6078
14447SOL     OW43918   3.624   1.397   3.260  0.2684 -0.0988  0.2882
14447SOL    HW143919   3.557   1.462   3.239  0.6848  0.0524 -0.6101
14447SOL    HW243920   3.655   1.421   3.348  0.2490  0.7699  0.0617
14448SOL     OW43921   7.306   5.256   9.315  0.3170 -0.1091  0.0035
14448SOL    HW143922   7.286   5.321   9.383 -0.4148 -0.2726 -0.0479
14448SOL    HW243923   7.290   5.302   9.233 -2.7571 -1.0708 -0.0421
14449SOL     OW43924   9.857   9.494   5.149 -0.1209  0.0597  0.1886
14449SOL    HW143925   9.830   9.581   5.119  0.6943 -0.4323 -2.1165
14449SOL    HW243926   9.858   9.440   5.070  1.5604 -1.4922  1.1987
14450SOL     OW43927   8.211   3.714   3.360  0.5230  0.3080 -0.1926
14450SOL    HW143928   8.213   3.730   3.454  1.9775 -0.6638 -0.0412
14450SOL    HW243929   8.238   3.797   3.321  0.4768  0.5420  0.2688
14451SOL     OW43930   8.139   4.494   6.654 -0.1291  0.0336 -0.1956
14451SOL    HW143931   8.153   4.427   6.586  0.5977  0.1942 -0.2197
14451SOL    HW243932   8.058   4.469   6.697  0.8953 -1.7273  0.7932
14452SOL     OW43933   7.410   0.077   9.127 -0.2372  0.1419 -0.7421
14452SOL    HW143934   7.339   0.051   9.068 -0.4584 -0.5955 -0.1683
14452SOL    HW243935   7.391   0.031   9.209  0.6847  0.2490 -0.4591
14453SOL     OW43936   1.761   4.839   7.745 -0.3636 -0.3062  0.6795
14453SOL    HW143937   1.706   4.761   7.737 -0.3412 -0.3918  1.2800
14453SOL    HW243938   1.843   4.816   7.701 -1.0040  0.0325 -0.7605
14454SOL     OW43939   2.947   6.034   9.904  0.3667  0.5300  0.3673
14454SOL    HW143940   2.866   6.037   9.956  0.0953 -0.0569 -0.0087
14454SOL    HW243941   2.947   5.946   9.866 -0.0227  1.3132 -1.5552
14455SOL     OW43942   2.336   6.141   7.130  0.0576  0.3922  0.3118
14455SOL    HW143943   2.424   6.177   7.138  0.9215 -1.8236  1.9020
14455SOL    HW243944   2.284   6.190   7.193  0.3009  1.2693 -0.1602
14456SOL     OW43945   6.879   9.134   7.197 -0.2376 -0.0364  0.2278
14456SOL    HW143946   6.874   9.058   7.139  2.7618  1.2652 -1.9817
14456SOL    HW243947   6.815   9.196   7.162  0.5670  0.1951 -0.8797
14457SOL     OW43948   9.110   3.322   6.616  0.4846 -0.4597  0.0275
14457SOL    HW143949   9.042   3.259   6.591 -0.0424 -0.1254  0.5790
14457SOL    HW243950   9.068   3.408   6.606  1.1827 -0.1918 -0.6877
14458SOL     OW43951   2.339   1.866   9.921 -0.8503 -0.2483 -0.4017
14458SOL    HW143952   2.370   1.924   9.851  0.2905 -0.3742 -0.0216
14458SOL    HW243953   2.356   1.778   9.889  0.8394 -0.2937  0.5059
14459SOL     OW43954   3.088   9.316   6.930 -0.1470 -0.7020 -0.0055
14459SOL    HW143955   3.105   9.340   6.838 -0.0310  0.1254  0.2248
14459SOL    HW243956   3.012   9.259   6.926 -2.6554  2.3924 -0.3281
14460SOL     OW43957   1.343   8.226   5.249 -0.0524  0.3069  0.2015
14460SOL    HW143958   1.345   8.313   5.289 -0.5099  0.0814  0.7321
14460SOL    HW243959   1.407   8.230   5.178  0.2845  0.9241  0.5377
14461SOL     OW43960   9.475   5.163   8.820  0.0426  0.3098 -0.6357
14461SOL    HW143961   9.502   5.250   8.851  1.3389  0.6741 -2.5879
14461SOL    HW243962   9.478   5.108   8.898  1.2379  1.5781  0.2678
14462SOL     OW43963   5.007   5.365   8.123  0.2119 -0.0360  0.1939
14462SOL    HW143964   4.956   5.408   8.192  0.4093 -0.8657  0.8756
14462SOL    HW243965   5.040   5.437   8.069 -0.4926  0.5895  0.5801
14463SOL     OW43966   0.683   0.591   2.940 -0.3003  0.0065  0.3011
14463SOL    HW143967   0.654   0.604   2.850 -2.2175 -1.7276  0.5732
14463SOL    HW243968   0.602   0.590   2.991  0.7256  0.7479  2.0457
14464SOL     OW43969   5.972   1.499   9.629  0.1160 -0.1727  0.0747
14464SOL    HW143970   6.022   1.581   9.627  0.5187 -0.4099  0.2506
14464SOL    HW243971   6.038   1.431   9.612 -0.4474 -0.3549 -1.5492
14465SOL     OW43972   9.308   2.714   2.401 -0.1167  0.5564  0.0679
14465SOL    HW143973   9.300   2.809   2.407  0.4917  0.7443 -1.5769
14465SOL    HW243974   9.402   2.698   2.398 -0.1564 -0.2456  1.7771
14466SOL     OW43975   2.097   8.066   3.359  0.2643 -0.5473 -0.0996
14466SOL    HW143976   2.162   8.081   3.428 -0.8759 -0.3961  0.9895
14466SOL    HW243977   2.013   8.061   3.406 -0.6286  0.1638 -1.5285
14467SOL     OW43978   1.997   4.247   5.772 -0.1198 -0.3648  0.7066
14467SOL    HW143979   1.963   4.169   5.729 -0.7614 -0.7380  1.8556
14467SOL    HW243980   1.963   4.243   5.861 -0.0859  1.1789  0.8226
14468SOL     OW43981   4.852   4.891   3.257 -0.7371  0.4117  0.1354
14468SOL    HW143982   4.807   4.810   3.281  0.2262 -0.3155 -0.4277
14468SOL    HW243983   4.833   4.901   3.164  1.6448 -0.8890 -0.5810
14469SOL     OW43984   7.044   3.797   3.246  0.2219  0.5401  0.4422
14469SOL    HW143985   7.128   3.780   3.290  0.3194 -1.7602 -0.5117
14469SOL    HW243986   7.013   3.711   3.218 -1.3734  1.5728 -1.2104
14470SOL     OW43987   3.075   9.464   3.026 -0.0069 -0.5712 -0.3098
14470SOL    HW143988   3.088   9.516   2.946  2.4548  0.4043  0.6219
14470SOL    HW243989   3.153   9.409   3.031  0.6603  0.4881  2.1597
14471SOL     OW43990   1.447   6.284   1.239  0.0573 -0.3725 -0.4648
14471SOL    HW143991   1.507   6.351   1.269  0.2794 -0.8684  0.2280
14471SOL    HW243992   1.378   6.282   1.306 -0.6440  0.0765 -1.1636
14472SOL     OW43993   3.175   6.004   1.564  0.8092 -0.8164  0.4525
14472SOL    HW143994   3.084   5.976   1.572  0.3981 -0.4543 -2.0171
14472SOL    HW243995   3.225   5.942   1.617 -0.8800 -0.7280  2.2583
14473SOL     OW43996   8.996   8.754   6.354 -0.1603  0.1595 -0.0286
14473SOL    HW143997   9.073   8.762   6.297 -0.9362  0.4630 -1.0606
14473SOL    HW243998   8.926   8.797   6.306 -0.7155  0.9863  1.4326
14474SOL     OW43999   9.721   4.206   9.603 -0.2058 -0.1205 -0.3961
14474SOL    HW144000   9.714   4.113   9.625  2.1879 -0.8777 -2.3919
14474SOL    HW244001   9.794   4.239   9.655  1.6240 -0.4704 -2.5905
14475SOL     OW44002   7.212   6.857   8.878  0.0705 -0.9308 -0.1987
14475SOL    HW144003   7.134   6.901   8.843 -0.5567 -3.3531 -2.1484
14475SOL    HW244004   7.286   6.902   8.837 -0.5293 -1.3106 -1.7843
14476SOL     OW44005   5.886   8.136   6.696  0.0040 -0.4263 -0.5175
14476SOL    HW144006   5.903   8.226   6.671  2.4046 -0.1706  1.6222
14476SOL    HW244007   5.964   8.088   6.668 -0.2638 -1.3738  0.2946
14477SOL     OW44008   5.160   4.454   2.994 -0.0981  0.0904 -0.0146
14477SOL    HW144009   5.246   4.469   2.953 -0.4609  0.7303 -0.5554
14477SOL    HW244010   5.122   4.383   2.942 -0.2661  0.4204 -0.3452
14478SOL     OW44011   5.475   8.921   9.768 -0.0079 -0.5797 -0.0899
14478SOL    HW144012   5.461   8.835   9.729  1.8521 -0.4489 -1.1425
14478SOL    HW244013   5.481   8.904   9.862 -0.9918 -1.3815 -0.1451
14479SOL     OW44014   6.161   7.982   9.338  0.3201 -0.0450  0.2859
14479SOL    HW144015   6.126   7.893   9.341 -3.0574  1.0766 -1.3907
14479SOL    HW244016   6.091   8.037   9.372  1.7253  2.1353 -0.1158
14480SOL     OW44017   7.915   5.378   6.380 -0.3667 -0.4218 -0.2744
14480SOL    HW144018   7.926   5.308   6.316  1.6959 -1.2689  0.8887
14480SOL    HW244019   7.952   5.342   6.461  1.0990  2.1143  0.2787
14481SOL     OW44020   8.943   4.581   2.168  0.2200  0.3232 -0.0036
14481SOL    HW144021   9.024   4.626   2.191 -0.8982  2.1962  0.5736
14481SOL    HW244022   8.944   4.577   2.072  1.7644 -1.3058  0.0361
14482SOL     OW44023   6.870   5.867   6.608  0.0164  0.1253 -0.1123
14482SOL    HW144024   6.906   5.786   6.573  0.0935 -0.4187  1.1746
14482SOL    HW244025   6.815   5.840   6.681 -1.1122  1.1310 -0.5440
14483SOL     OW44026   0.611   4.993   5.796  0.2279  0.3006  0.3532
14483SOL    HW144027   0.631   5.005   5.889 -0.6142  1.5071  0.4068
14483SOL    HW244028   0.595   5.082   5.763  1.2301 -0.0321 -1.1259
14484SOL     OW44029   8.941   8.516   0.938  0.4670 -0.4852  0.4943
14484SOL    HW144030   8.886   8.442   0.961  1.3058 -1.4668 -0.5439
14484SOL    HW244031   9.030   8.485   0.953  0.8195  0.4858  0.4891
14485SOL     OW44032   6.301   3.485   8.355  0.0932  0.0271 -0.0574
14485SOL    HW144033   6.264   3.428   8.422  1.3455  0.6907  1.2545
14485SOL    HW244034   6.395   3.469   8.358  0.0658 -1.3636 -3.0741
14486SOL     OW44035   8.398   9.575   2.808  0.0261  0.0269  0.2815
14486SOL    HW144036   8.326   9.634   2.829  0.5118  1.0420 -0.7939
14486SOL    HW244037   8.463   9.592   2.876 -0.0712  0.3342  0.3007
14487SOL     OW44038   5.248   8.662   5.355 -0.4833 -0.1644  1.0395
14487SOL    HW144039   5.327   8.634   5.401  0.1964 -0.0833 -0.0625
14487SOL    HW244040   5.192   8.697   5.425  0.5010 -0.0799  1.8135
14488SOL     OW44041   8.244   1.031   6.118 -0.4701  0.7984 -0.0638
14488SOL    HW144042   8.240   1.008   6.211 -0.1912 -2.1259 -0.6603
14488SOL    HW244043   8.155   1.016   6.086  0.0438 -1.1000 -0.7610
14489SOL     OW44044   9.545   4.676   2.012  0.2521  0.2700 -0.4364
14489SOL    HW144045   9.637   4.701   2.021  0.2882 -0.0465  0.1827
14489SOL    HW244046   9.543   4.620   1.934  0.4140  1.0447 -1.0052
14490SOL     OW44047   8.888   1.262   8.489 -0.1744 -0.5075  0.0838
14490SOL    HW144048   8.835   1.256   8.410 -1.9940  1.3231  1.0648
14490SOL    HW244049   8.889   1.355   8.511 -0.9063 -1.0640  2.9286
14491SOL     OW44050   0.891   9.828   0.203  0.5550  0.0093  0.0765
14491SOL    HW144051   0.841   9.869   0.133  1.5448  0.1436 -0.5841
14491SOL    HW244052   0.927   9.749   0.163  1.0044  0.0080  0.4732
14492SOL     OW44053   5.141   4.777   5.730 -0.3604 -0.1710 -0.3017
14492SOL    HW144054   5.199   4.737   5.664  0.0404  0.5427 -0.3968
14492SOL    HW244055   5.149   4.871   5.715  0.3681  0.0578  1.2856
14493SOL     OW44056   4.224   0.261   9.905 -0.2071  0.8501 -0.0700
14493SOL    HW144057   4.142   0.307   9.925 -0.8411  0.3629 -1.3871
14493SOL    HW244058   4.221   0.248   9.810  0.9590 -0.0209 -0.0063
14494SOL     OW44059   2.189   1.095   3.329 -0.4021  0.4265 -0.5596
14494SOL    HW144060   2.244   1.105   3.407 -0.0711  1.1798 -0.8777
14494SOL    HW244061   2.102   1.124   3.357 -0.7174 -0.9737  0.0077
14495SOL     OW44062   1.140   8.721   9.577  0.6818 -0.1466 -0.0866
14495SOL    HW144063   1.106   8.659   9.641  1.4580 -1.0371 -0.5126
14495SOL    HW244064   1.148   8.804   9.625  1.0632 -0.7509  0.9153
14496SOL     OW44065   1.063   3.670   0.299  0.3849 -0.1521  0.1377
14496SOL    HW144066   1.152   3.644   0.320  0.4000  1.1458  1.9403
14496SOL    HW244067   1.072   3.747   0.243  0.4635  0.9743  1.6413
14497SOL     OW44068   1.067   4.976   2.000 -0.1992  0.1715 -0.5987
14497SOL    HW144069   0.983   4.992   2.043 -0.4461 -1.5287 -0.3758
14497SOL    HW244070   1.121   4.934   2.067  1.7439  3.3106  0.0531
14498SOL     OW44071   3.339   2.783   3.160  0.2804  0.1387 -0.0572
14498SOL    HW144072   3.403   2.714   3.145  0.8254  0.2244  1.6821
14498SOL    HW244073   3.291   2.755   3.238 -1.0561  0.6315 -0.6543
14499SOL     OW44074   2.857   2.129   8.103  0.0650  0.4467 -0.5756
14499SOL    HW144075   2.821   2.108   8.016 -0.6138 -2.2079  0.2347
14499SOL    HW244076   2.823   2.216   8.123 -0.3787  0.8012 -2.6555
14500SOL     OW44077   0.535   8.919   8.942 -0.5981  0.2505 -0.1868
14500SOL    HW144078   0.588   8.880   9.011 -0.5486 -1.0528 -0.9230
14500SOL    HW244079   0.527   9.011   8.966 -0.5547 -0.1647  1.5224
14501SOL     OW44080   3.451   2.416   6.665  0.6885  0.5251  0.1961
14501SOL    HW144081   3.484   2.475   6.598  0.8812  0.1851 -0.0105
14501SOL    HW244082   3.372   2.458   6.697  0.5668  0.6630 -0.2808
14502SOL     OW44083   9.552   2.567   5.101  0.3220 -0.4257 -0.2814
14502SOL    HW144084   9.541   2.583   5.007  0.5906 -1.5489 -0.5148
14502SOL    HW244085   9.467   2.536   5.130  0.1321  0.2773 -0.0669
14503SOL     OW44086   0.452   3.922   8.339  0.4626  0.1384  0.2069
14503SOL    HW144087   0.363   3.956   8.345  0.8098  1.2795 -0.6804
14503SOL    HW244088   0.452   3.869   8.259  0.7272  0.6736 -0.1578
14504SOL     OW44089   5.875   2.503   6.565  0.4222 -0.1471 -0.4390
14504SOL    HW144090   5.865   2.428   6.507  1.3557  0.9696 -2.1071
14504SOL    HW244091   5.843   2.577   6.514 -0.6046  0.6120  1.2187
14505SOL     OW44092   0.360   4.158   4.996  0.2156  0.1538 -0.0463
14505SOL    HW144093   0.304   4.159   4.918 -1.2842  0.6690  1.0056
14505SOL    HW244094   0.418   4.083   4.982 -0.1333  0.1212 -1.5638
14506SOL     OW44095   8.907   0.324   5.647  0.0797 -1.0198 -0.6436
14506SOL    HW144096   8.821   0.285   5.665  0.0013 -0.3542  0.5685
14506SOL    HW244097   8.902   0.411   5.687  1.7589 -1.4596  0.6274
14507SOL     OW44098   0.853   6.350   6.627 -0.6865  0.1595  0.3309
14507SOL    HW144099   0.855   6.323   6.719  1.0826 -1.0268  0.0221
14507SOL    HW244100   0.801   6.430   6.625 -1.9116 -0.5330  2.1377
14508SOL     OW44101   7.130   6.858   7.527  0.0587 -0.5992  0.0680
14508SOL    HW144102   7.224   6.875   7.538  0.1372 -0.0300 -1.2928
14508SOL    HW244103   7.126   6.770   7.489 -0.0520 -1.1457  1.2664
14509SOL     OW44104   6.646   2.811   5.667 -0.0414  0.6140  0.3309
14509SOL    HW144105   6.578   2.778   5.726  0.6977  0.5002  1.1488
14509SOL    HW244106   6.687   2.732   5.631 -0.6644  0.6839 -0.5640
14510SOL     OW44107   2.034   4.262   7.613  0.3763 -0.0566 -0.1316
14510SOL    HW144108   1.991   4.185   7.576 -0.1970 -0.3332  1.0505
14510SOL    HW244109   1.986   4.336   7.576 -0.5409 -0.3387  0.4560
14511SOL     OW44110   9.091   9.381   2.481  0.1381  0.1461  0.1301
14511SOL    HW144111   9.031   9.365   2.554  0.1674  1.7455  0.5472
14511SOL    HW244112   9.157   9.440   2.516  1.6183 -1.0564 -0.5102
14512SOL     OW44113   3.129   2.030   0.630 -0.1307  0.2193 -0.0729
14512SOL    HW144114   3.043   2.033   0.672  0.0171 -1.2663  0.4004
14512SOL    HW244115   3.159   2.121   0.630 -2.5242  1.1346 -2.0475
14513SOL     OW44116   2.158   6.149   8.597  0.1765  0.2711  0.2655
14513SOL    HW144117   2.204   6.227   8.629  0.6746  0.0122  0.1961
14513SOL    HW244118   2.155   6.090   8.672 -0.8466  0.6368  0.5251
14514SOL     OW44119   5.333   1.653   1.135  0.1837  0.1629  0.4836
14514SOL    HW144120   5.285   1.736   1.136  2.1540  1.4301 -1.3839
14514SOL    HW244121   5.276   1.593   1.086  0.0693  1.3864 -0.9614
14515SOL     OW44122   7.317   6.030   0.450 -0.2486 -0.5535  0.3141
14515SOL    HW144123   7.330   5.942   0.487 -0.5296 -1.8523 -2.4035
14515SOL    HW244124   7.394   6.044   0.395  0.6347  1.7025  1.9946
14516SOL     OW44125   8.872   5.210   6.089 -0.4523 -0.6082  0.3328
14516SOL    HW144126   8.791   5.260   6.079 -0.2963  0.2282  2.6321
14516SOL    HW244127   8.844   5.125   6.123 -0.3672 -0.2165  1.4065
14517SOL     OW44128   9.367   9.844   9.659 -0.1680 -0.6514  0.0231
14517SOL    HW144129   9.401   9.854   9.570 -1.0269 -1.5724 -0.4306
14517SOL    HW244130   9.433   9.886   9.715  0.4367 -0.1564 -1.0313
14518SOL     OW44131   2.415   3.121   9.161  0.2468  0.0922 -0.4370
14518SOL    HW144132   2.465   3.040   9.168 -0.7119 -0.3978  1.2277
14518SOL    HW244133   2.356   3.120   9.237 -0.3804  1.9438 -0.8449
14519SOL     OW44134   6.626   5.891   2.991  0.0965 -0.6388 -0.1122
14519SOL    HW144135   6.715   5.861   2.974  0.2640 -0.1028 -0.2282
14519SOL    HW244136   6.583   5.819   3.036  0.7762 -0.6753  0.4815
14520SOL     OW44137   3.445   6.774   5.144  0.3541  0.7717 -0.1292
14520SOL    HW144138   3.430   6.726   5.062 -0.5762  1.2303 -0.2363
14520SOL    HW244139   3.360   6.774   5.188  1.0371 -0.2697  1.2935
14521SOL     OW44140   5.860   3.792   6.655  0.1822  0.2938 -0.2185
14521SOL    HW144141   5.872   3.800   6.561 -2.0006  0.1527 -0.5534
14521SOL    HW244142   5.943   3.755   6.687  1.4797  1.6688 -1.8541
14522SOL     OW44143   2.484   4.117   6.086 -0.1336  0.1091 -0.2424
14522SOL    HW144144   2.554   4.053   6.086 -1.2402 -1.1583  0.3657
14522SOL    HW244145   2.441   4.107   6.001 -0.9270 -0.6963  0.2368
14523SOL     OW44146   0.591   1.821   7.889  0.0779  0.0056  0.2591
14523SOL    HW144147   0.646   1.758   7.841  1.1958  0.8492  0.4012
14523SOL    HW244148   0.563   1.884   7.823  1.1469  0.8412  0.5685
14524SOL     OW44149   7.125   9.169   6.295  0.2636  0.0265 -0.5010
14524SOL    HW144150   7.056   9.187   6.231  0.2689  0.7365 -0.3084
14524SOL    HW244151   7.078   9.140   6.373  0.1486  0.9145 -0.2299
14525SOL     OW44152   1.643   1.454   3.238 -0.1968 -0.1971  0.5355
14525SOL    HW144153   1.714   1.441   3.301 -0.2355 -0.8424  0.4558
14525SOL    HW244154   1.597   1.370   3.235 -1.4888  0.4435  1.2171
14526SOL     OW44155   5.729   4.614   5.345 -0.2484  0.2723 -0.4247
14526SOL    HW144156   5.730   4.519   5.357  0.6036 -0.0842 -2.7248
14526SOL    HW244157   5.662   4.645   5.405 -0.7333 -1.8124  0.2067
14527SOL     OW44158   6.431   8.545   8.445 -0.0327 -0.2646  0.4053
14527SOL    HW144159   6.490   8.572   8.516 -0.6424  3.1658 -0.2547
14527SOL    HW244160   6.455   8.601   8.371 -2.9394 -0.0199 -0.4454
14528SOL     OW44161   9.245   3.337   7.184 -0.9384  0.2051 -0.5378
14528SOL    HW144162   9.303   3.414   7.178 -1.6106  0.6557 -1.6464
14528SOL    HW244163   9.283   3.284   7.254  0.5045  0.7414 -0.8722
14529SOL     OW44164   8.094   3.699   7.788  0.3308  0.4174 -0.7179
14529SOL    HW144165   8.083   3.775   7.844 -1.8411 -0.6658  0.4574
14529SOL    HW244166   8.181   3.709   7.749  0.7588  2.6148  0.6790
14530SOL     OW44167   1.939   2.194   0.971  0.0811  0.5056 -0.0626
14530SOL    HW144168   1.897   2.109   0.985  0.1103  0.8694  2.8786
14530SOL    HW244169   1.867   2.257   0.968  0.1855  0.7992  2.0913
14531SOL     OW44170   8.332   3.890   4.104  0.1860  0.1184 -0.2887
14531SOL    HW144171   8.306   3.838   4.180 -1.2002  0.2511 -0.6355
14531SOL    HW244172   8.411   3.936   4.132  0.2519 -0.5848  0.7298
14532SOL     OW44173   6.333   8.849   6.562  0.1206  0.1911 -0.1268
14532SOL    HW144174   6.252   8.839   6.611 -0.1053  0.1958 -0.4936
14532SOL    HW244175   6.379   8.920   6.606 -1.2881  2.0580 -1.4796
14533SOL     OW44176   0.437   2.634   5.349  0.3889 -0.1670 -0.2392
14533SOL    HW144177   0.461   2.684   5.270 -0.6705 -0.0582 -0.5042
14533SOL    HW244178   0.341   2.636   5.350  0.3906 -0.3470  0.9452
14534SOL     OW44179   1.830   1.951   0.930 -0.1893 -0.5203  0.2997
14534SOL    HW144180   1.797   1.888   0.995 -0.4189 -1.2361 -0.4832
14534SOL    HW244181   1.865   1.896   0.860 -0.5360  0.2250 -0.4748
14535SOL     OW44182   5.711   5.839   2.695 -0.1052  0.1535  0.0933
14535SOL    HW144183   5.617   5.858   2.694  0.0016  0.6933 -0.2116
14535SOL    HW244184   5.751   5.920   2.662  0.3924 -0.4595 -0.8363
14536SOL     OW44185   2.684   8.883   0.594  0.4600 -0.4921 -0.2587
14536SOL    HW144186   2.678   8.970   0.633  0.8614 -0.4007 -0.4011
14536SOL    HW244187   2.746   8.893   0.522 -1.7857 -0.1518 -2.3061
14537SOL     OW44188   2.192   8.389   1.407  0.4319 -0.5441  0.0705
14537SOL    HW144189   2.229   8.301   1.402  1.2564 -0.1864 -0.3837
14537SOL    HW244190   2.179   8.415   1.316  1.0647  0.1440  0.1657
14538SOL     OW44191   6.716   4.597   0.733  0.0371  0.1033 -0.5963
14538SOL    HW144192   6.759   4.682   0.742 -0.5857  0.4035 -0.4161
14538SOL    HW244193   6.714   4.561   0.822  0.0254  0.0294 -0.6260
14539SOL     OW44194   7.046   6.999   4.977  0.0138 -0.0720 -0.0371
14539SOL    HW144195   6.979   6.939   5.006 -0.4167  1.1578  1.6433
14539SOL    HW244196   7.117   6.990   5.041 -0.1268  1.2796  0.3505
14540SOL     OW44197   2.641   2.594   5.255 -0.4069 -0.1028  0.2396
14540SOL    HW144198   2.680   2.530   5.195  0.5096 -0.2213  0.9318
14540SOL    HW244199   2.715   2.646   5.285 -0.4391 -1.4288  2.9112
14541SOL     OW44200   1.296   2.269   2.298 -0.1319  0.3482  0.4418
14541SOL    HW144201   1.326   2.309   2.216  1.8974 -0.5946  0.6633
14541SOL    HW244202   1.202   2.286   2.300 -0.0595  1.2727 -1.5782
14542SOL     OW44203   8.330   4.684   8.016 -0.0482 -0.4995  0.3226
14542SOL    HW144204   8.385   4.753   8.054  1.4587 -2.5231  1.9892
14542SOL    HW244205   8.388   4.635   7.958 -1.1102 -0.4255 -0.8591
14543SOL     OW44206   5.795   8.121   8.867  0.0539  0.3887  0.2551
14543SOL    HW144207   5.827   8.131   8.778  0.9083  0.2501  0.5369
14543SOL    HW244208   5.790   8.211   8.901  0.2813  0.3992  0.2587
14544SOL     OW44209   9.448   1.015   4.952 -0.3118  0.0125 -0.1057
14544SOL    HW144210   9.473   1.015   4.860 -0.5917 -1.5309 -0.2157
14544SOL    HW244211   9.432   0.923   4.973  0.9454  0.1568  1.8111
14545SOL     OW44212   7.724   2.316   6.687 -0.1508  0.8158  0.2005
14545SOL    HW144213   7.706   2.237   6.737  2.2428  0.9243  1.3836
14545SOL    HW244214   7.709   2.388   6.749 -2.4979  1.3867 -0.9166
14546SOL     OW44215   1.779   2.570   0.055 -1.0099 -0.1892  0.2635
14546SOL    HW144216   1.802   2.658   0.025 -1.8253 -0.2913 -0.7072
14546SOL    HW244217   1.764   2.521  -0.025  1.6621 -1.8859  0.6663
14547SOL     OW44218   2.138   2.043   0.813  0.3171  0.7250  0.2202
14547SOL    HW144219   2.091   2.007   0.738  0.5998  0.2899  0.2512
14547SOL    HW244220   2.070   2.086   0.865 -0.1850 -0.5682  0.6694
14548SOL     OW44221   8.020   2.069   9.044 -0.3565  0.0109 -0.6199
14548SOL    HW144222   8.009   2.132   8.973  0.8432 -1.4692 -2.2132
14548SOL    HW244223   7.942   2.079   9.098 -1.0081  1.6293 -1.7975
14549SOL     OW44224   7.334   4.906   4.963  0.0561  0.0876  0.1427
14549SOL    HW144225   7.342   4.847   4.888 -0.9669  0.7694 -0.5251
14549SOL    HW244226   7.244   4.895   4.993 -0.3701  1.7680 -0.4017
14550SOL     OW44227   0.640   5.947   5.939  0.3581  0.1553  0.0582
14550SOL    HW144228   0.578   6.005   5.983 -0.7786 -1.0268  0.0558
14550SOL    HW244229   0.587   5.898   5.876  1.1780 -1.2778  0.4376
14551SOL     OW44230   0.351   9.047   2.383  0.4829 -0.0986 -0.0388
14551SOL    HW144231   0.363   9.087   2.469 -0.2128  1.0780 -0.4687
14551SOL    HW244232   0.369   9.117   2.320 -0.9845 -0.3662 -0.8036
14552SOL     OW44233   0.565   2.102   4.880  0.0032 -0.0023  0.0784
14552SOL    HW144234   0.488   2.050   4.859 -0.7869  0.4691  1.6636
14552SOL    HW244235   0.628   2.081   4.811 -0.5819 -2.4270  0.1905
14553SOL     OW44236   1.220   2.218   6.995 -0.1312 -0.5616 -0.2324
14553SOL    HW144237   1.147   2.238   7.054 -2.4260 -0.6474 -2.8190
14553SOL    HW244238   1.252   2.303   6.967 -1.4140 -0.4610 -1.5023
14554SOL     OW44239   9.162   1.444   9.013  0.0196 -0.0295 -0.5560
14554SOL    HW144240   9.067   1.456   9.015 -0.2822 -1.0299 -3.5500
14554SOL    HW244241   9.173   1.355   8.978  2.0955 -0.5088  1.1381
14555SOL     OW44242   6.488   3.196   6.713  0.1281  0.1706  0.4726
14555SOL    HW144243   6.520   3.284   6.696  1.1289 -0.2710 -0.0590
14555SOL    HW244244   6.560   3.153   6.760 -0.4731 -0.2731  1.0148
14556SOL     OW44245   9.928   4.676   9.246 -0.1157 -0.1213  0.2403
14556SOL    HW144246   9.987   4.643   9.178 -0.9692  1.3809 -1.3006
14556SOL    HW244247   9.981   4.740   9.294 -0.0698  0.1917 -0.2248
14557SOL     OW44248   5.807   3.149   5.940  0.3520  0.1279 -0.1178
14557SOL    HW144249   5.822   3.125   6.032  0.9423  0.1481 -0.2018
14557SOL    HW244250   5.831   3.241   5.935 -0.8867  0.4699 -0.0295
14558SOL     OW44251   4.068   9.717   8.327  0.3871 -0.1119 -0.3830
14558SOL    HW144252   4.054   9.629   8.362 -0.3545  0.5899  1.2184
14558SOL    HW244253   4.004   9.772   8.374 -1.6024  0.7458 -3.7704
14559SOL     OW44254   9.782   2.894   3.696 -0.0895  0.5379  0.0259
14559SOL    HW144255   9.834   2.904   3.616 -0.8440 -0.0304 -0.5496
14559SOL    HW244256   9.736   2.977   3.705  0.4767  0.8368  0.2295
14560SOL     OW44257   9.151   5.695   4.887  0.1262  0.1465  0.3665
14560SOL    HW144258   9.131   5.692   4.793  0.0131 -1.9907  0.4182
14560SOL    HW244259   9.100   5.624   4.925  0.7553  0.4996  1.9539
14561SOL     OW44260   5.076   4.213   1.258 -0.0881  0.6696  0.3302
14561SOL    HW144261   4.983   4.208   1.234  0.8899 -1.8509 -4.0104
14561SOL    HW244262   5.109   4.289   1.209  0.3984  0.8723  0.9560
14562SOL     OW44263   1.706   9.060   5.022  0.1030 -0.0311  0.7909
14562SOL    HW144264   1.782   9.088   4.972  0.2482  1.0965  1.5993
14562SOL    HW244265   1.632   9.105   4.981  0.2916  1.3398  1.8754
14563SOL     OW44266   1.088   9.584   4.403  0.2007  0.2693  0.1928
14563SOL    HW144267   1.029   9.658   4.414 -0.1757 -0.2421  1.9797
14563SOL    HW244268   1.080   9.560   4.311 -1.0304  1.3084  0.0066
14564SOL     OW44269   6.726   2.240   4.019  0.1436 -0.6924  0.1880
14564SOL    HW144270   6.693   2.326   4.045 -0.5699 -1.1025  0.6749
14564SOL    HW244271   6.758   2.201   4.100  0.6770 -0.8001 -0.0715
14565SOL     OW44272   6.482   4.521   6.554 -0.2107  0.3360 -0.2025
14565SOL    HW144273   6.442   4.601   6.519 -1.0578  1.8781  3.7386
14565SOL    HW244274   6.575   4.530   6.534 -0.5323  1.3801 -1.3996
14566SOL     OW44275   6.372   0.048   8.542 -0.0715 -0.7262 -0.1566
14566SOL    HW144276   6.278   0.066   8.528 -0.4690 -2.1997  0.4878
14566SOL    HW244277   6.407   0.037   8.453 -0.6646 -0.9453 -0.3716
14567SOL     OW44278   2.708   8.025   6.691 -0.4194  0.4460  0.1611
14567SOL    HW144279   2.615   8.002   6.689 -0.6575  1.3418  0.3486
14567SOL    HW244280   2.720   8.081   6.614 -0.0710  0.4574  0.2235
14568SOL     OW44281   9.448   9.512   2.998  0.2583  0.6446 -1.1669
14568SOL    HW144282   9.543   9.507   2.995  0.2631  0.7342 -1.1780
14568SOL    HW244283   9.418   9.429   2.962  0.3546 -0.8700  1.8820
14569SOL     OW44284   4.580   4.923   6.153 -0.1447  0.9985  0.5009
14569SOL    HW144285   4.634   5.002   6.140 -1.5141  1.8699 -0.0854
14569SOL    HW244286   4.513   4.929   6.085 -1.4647  0.3678  1.7079
14570SOL     OW44287   0.221   6.707   4.556  0.3618 -0.0365  0.2897
14570SOL    HW144288   0.285   6.694   4.626  0.7142 -1.0049 -0.1879
14570SOL    HW244289   0.155   6.765   4.594  0.7323 -0.2576  1.3037
14571SOL     OW44290   8.827   7.022   4.500  0.7655  0.3897  0.0552
14571SOL    HW144291   8.829   7.116   4.479  1.2594  0.8449  1.9714
14571SOL    HW244292   8.901   7.010   4.560 -0.0575 -0.9839  0.8262
14572SOL     OW44293   8.873   5.997   2.663 -0.4611  0.3757 -0.0446
14572SOL    HW144294   8.818   6.073   2.684 -0.2266  0.2958  0.8756
14572SOL    HW244295   8.923   6.025   2.586  0.2814  1.5048  0.8087
14573SOL     OW44296   5.462   4.221   5.202  0.3940  0.1579  0.0881
14573SOL    HW144297   5.508   4.143   5.171 -0.7111 -0.1280 -0.8957
14573SOL    HW244298   5.509   4.294   5.164  2.0822  0.0766  1.8570
14574SOL     OW44299   1.457   3.022   3.719 -0.7177 -0.3069  0.2153
14574SOL    HW144300   1.417   2.964   3.785 -1.6450 -0.6788 -0.6399
14574SOL    HW244301   1.526   2.969   3.680  1.2308  0.6058  2.2427
14575SOL     OW44302   8.632   9.568   4.565 -0.2369  0.6751 -0.1723
14575SOL    HW144303   8.663   9.479   4.551 -1.0262  0.0654  1.6861
14575SOL    HW244304   8.630   9.607   4.477  0.3450 -1.0428 -0.9855
14576SOL     OW44305   9.918   1.761   6.218  0.3231 -0.0138 -0.2557
14576SOL    HW144306   9.992   1.820   6.231  2.0425 -1.9000 -0.8686
14576SOL    HW244307   9.908   1.756   6.122  0.4172 -0.9155 -0.2328
14577SOL     OW44308   8.795   0.476   6.587 -0.2025 -0.0806 -0.3611
14577SOL    HW144309   8.808   0.532   6.511  0.2814  0.7754  0.3245
14577SOL    HW244310   8.871   0.492   6.642 -0.1795 -1.2373 -0.0213
14578SOL     OW44311   0.148   6.335   8.670 -0.7055  0.3413 -0.2774
14578SOL    HW144312   0.219   6.333   8.605 -0.0691 -0.6380  0.4142
14578SOL    HW244313   0.102   6.416   8.652  2.0811  2.3144  0.8012
14579SOL     OW44314   6.900   1.205   4.745 -0.0072  0.3337 -0.3654
14579SOL    HW144315   6.856   1.208   4.830 -0.7583  0.4498 -0.7444
14579SOL    HW244316   6.978   1.260   4.756 -0.6624  1.2235 -0.0549
14580SOL     OW44317   6.478   3.981   3.365 -0.4616 -0.0176  0.1594
14580SOL    HW144318   6.542   3.916   3.336  0.1188  1.7094 -2.9012
14580SOL    HW244319   6.528   4.041   3.421  0.5164  0.9115 -1.6237
14581SOL     OW44320   3.619   0.407   9.024  0.4092 -0.1320 -0.2578
14581SOL    HW144321   3.696   0.372   8.980  0.1190 -0.9780 -0.1185
14581SOL    HW244322   3.613   0.356   9.105  0.3580  0.7131  0.2797
14582SOL     OW44323   7.725   1.989   5.426  0.7928  0.0305  0.2823
14582SOL    HW144324   7.658   2.048   5.460  0.5146 -0.8437  1.3210
14582SOL    HW244325   7.767   2.038   5.355  1.0510  1.7540  1.5455
14583SOL     OW44326   2.107   8.029   6.407 -0.2034  0.3898 -0.3063
14583SOL    HW144327   2.074   8.117   6.429  0.6573  0.1532  2.2302
14583SOL    HW244328   2.200   8.041   6.392 -0.0391 -0.0830  0.2686
14584SOL     OW44329   1.051   0.528   3.859  0.0200  0.0984 -0.1759
14584SOL    HW144330   1.001   0.532   3.940 -0.2618 -1.1430 -0.2780
14584SOL    HW244331   1.032   0.612   3.816 -1.3112 -0.0039  0.1650
14585SOL     OW44332   8.356   9.812   0.876  0.1639 -0.2819  0.0427
14585SOL    HW144333   8.361   9.825   0.782 -0.4400  0.9815  0.1571
14585SOL    HW244334   8.322   9.895   0.910  0.3465 -0.7164  1.3689
14586SOL     OW44335   1.660   6.072   7.271  0.4286  0.4680 -0.2103
14586SOL    HW144336   1.651   6.167   7.264 -2.8230  0.3135  0.6232
14586SOL    HW244337   1.601   6.046   7.341  1.0539 -2.2398 -0.5436
14587SOL     OW44338   5.736   6.371   9.017 -0.3967  0.2053 -0.0061
14587SOL    HW144339   5.704   6.309   9.082 -0.4806 -0.4410 -0.6569
14587SOL    HW244340   5.728   6.325   8.933  1.7335  0.1981 -0.2718
14588SOL     OW44341   7.034   6.031   9.480 -0.5500 -0.1068  0.1217
14588SOL    HW144342   7.118   6.071   9.501 -0.1630 -0.8464  0.0101
14588SOL    HW244343   7.024   5.961   9.544 -0.7877 -0.4231 -0.2591
14589SOL     OW44344   7.845   3.167   0.785  0.2181  0.1851  0.4252
14589SOL    HW144345   7.865   3.135   0.697 -0.2472  1.7715 -0.2774
14589SOL    HW244346   7.752   3.149   0.797  0.5249 -1.1599  1.1266
14590SOL     OW44347   1.270   2.232   1.532 -0.2112  0.7574 -0.4132
14590SOL    HW144348   1.311   2.317   1.517  0.2896  0.6027  0.0441
14590SOL    HW244349   1.338   2.169   1.507 -0.0556  0.4961  0.6295
14591SOL     OW44350   8.983   5.900   4.997 -0.8670 -0.9148 -0.4155
14591SOL    HW144351   9.072   5.901   4.961 -1.5070  0.2073 -2.1274
14591SOL    HW244352   8.967   5.808   5.018  0.9054 -1.0477  0.5470
14592SOL     OW44353   6.560   3.915   7.731 -0.2698 -0.2376  0.0857
14592SOL    HW144354   6.648   3.943   7.758 -0.9199  1.2639  0.7736
14592SOL    HW244355   6.521   3.880   7.811 -0.5173 -0.3554 -0.0858
14593SOL     OW44356   7.998   1.346   7.321 -0.3276  0.5714  0.2528
14593SOL    HW144357   8.024   1.310   7.237  0.7777  0.8064  0.4755
14593SOL    HW244358   8.026   1.280   7.385 -0.2443  0.8473  0.5039
14594SOL     OW44359   5.204   8.595   7.371 -0.0953  0.0156 -0.4717
14594SOL    HW144360   5.283   8.573   7.321 -0.1247  0.2024 -0.6007
14594SOL    HW244361   5.179   8.682   7.340  0.4975  0.5977  0.6465
14595SOL     OW44362   8.480   1.166   2.163 -0.3191  0.0163 -0.1004
14595SOL    HW144363   8.415   1.098   2.179 -0.8182  0.4569 -0.2302
14595SOL    HW244364   8.429   1.243   2.141  0.2316  0.5700  0.5400
14596SOL     OW44365   7.871   0.721   5.811 -0.2618 -0.2180  0.1964
14596SOL    HW144366   7.961   0.749   5.823  0.2404 -2.0172  0.9694
14596SOL    HW244367   7.877   0.629   5.785 -1.8132  0.2911 -2.3129
14597SOL     OW44368   6.776   0.745   4.626 -0.0206  0.6439  0.0931
14597SOL    HW144369   6.698   0.785   4.586 -0.1822  0.1997 -0.0373
14597SOL    HW244370   6.754   0.652   4.634  0.0417  0.7106  1.1524
14598SOL     OW44371   5.149   3.120   3.367  0.1055 -0.0821  0.0529
14598SOL    HW144372   5.168   3.074   3.285 -0.2352 -0.8953  0.4186
14598SOL    HW244373   5.089   3.063   3.413  0.4640  0.2615  0.9701
14599SOL     OW44374   0.991   4.329   1.981 -0.1237  0.0665  0.2292
14599SOL    HW144375   1.032   4.413   1.961  1.7036 -0.8287  0.0232
14599SOL    HW244376   0.941   4.308   1.903  2.4084 -0.7361 -1.2849
14600SOL     OW44377   9.065   2.713   4.132  0.1930 -0.4772 -0.0536
14600SOL    HW144378   8.981   2.693   4.090  0.0850 -0.4683  0.1542
14600SOL    HW244379   9.042   2.729   4.224  0.3757 -0.1062 -0.0731
14601SOL     OW44380   0.329   8.015   7.165  0.5659 -0.2315  0.2502
14601SOL    HW144381   0.325   7.988   7.074  1.3305 -0.2485  0.2081
14601SOL    HW244382   0.420   7.996   7.191 -0.0812 -1.8400  1.5123
14602SOL     OW44383   7.199   9.252   0.231 -0.2636  0.4475 -0.2329
14602SOL    HW144384   7.247   9.282   0.153  0.1958  1.0905  0.2742
14602SOL    HW244385   7.219   9.319   0.297 -0.5102 -0.1784  0.4810
14603SOL     OW44386   1.776   5.682   4.392  0.3288 -0.2749 -0.0561
14603SOL    HW144387   1.734   5.737   4.458  1.0728  1.5599 -1.0316
14603SOL    HW244388   1.710   5.671   4.324 -0.0220 -1.1090  0.4158
14604SOL     OW44389   0.396   1.604   4.643 -0.1212  0.6172  0.3016
14604SOL    HW144390   0.368   1.650   4.564 -1.0169 -0.6891 -0.1950
14604SOL    HW244391   0.491   1.614   4.644  0.0860 -0.4901 -1.7519
14605SOL     OW44392   5.459   7.708   5.094 -0.2308 -0.2328  0.6596
14605SOL    HW144393   5.396   7.740   5.029  0.2992 -0.3788  0.0633
14605SOL    HW244394   5.440   7.760   5.173 -0.1467  0.7368  0.0604
14606SOL     OW44395   7.819   0.217   4.505 -0.6310  0.2252 -0.1523
14606SOL    HW144396   7.737   0.198   4.459 -1.0018  1.7092 -0.1522
14606SOL    HW244397   7.799   0.203   4.597 -0.9304  0.6713 -0.1434
14607SOL     OW44398   0.861   9.951   4.134 -0.4970  0.3105  0.8790
14607SOL    HW144399   0.821   9.874   4.093  1.5119 -0.7212  0.7003
14607SOL    HW244400   0.791  10.015   4.138 -1.8556 -1.0017 -0.3838
14608SOL     OW44401   8.955   0.863   3.086  0.2534  0.5204  0.0638
14608SOL    HW144402   9.032   0.854   3.143 -0.4396  2.1640  1.3096
14608SOL    HW244403   8.892   0.801   3.121  0.3896  0.3905  0.0832
14609SOL     OW44404   7.697   2.076   1.465 -0.7994  0.4418  0.7854
14609SOL    HW144405   7.769   2.044   1.411 -0.7065 -0.2021  1.2798
14609SOL    HW244406   7.650   2.137   1.408 -0.8241 -0.3708 -0.1027
14610SOL     OW44407   5.208   4.201   7.994 -0.1459  0.0619  0.1414
14610SOL    HW144408   5.292   4.241   7.972  0.9688  0.0960  3.8175
14610SOL    HW244409   5.145   4.273   7.991  0.7356  0.9023  1.0373
14611SOL     OW44410   7.540   9.014   3.123  0.3056  0.3938  0.4874
14611SOL    HW144411   7.475   9.037   3.056 -0.1332 -2.1802 -0.0667
14611SOL    HW244412   7.624   9.014   3.075  0.6644  2.6893  0.9740
14612SOL     OW44413   3.094   0.268   6.719  0.5008  0.4920  0.5863
14612SOL    HW144414   3.042   0.320   6.780  0.5061 -0.8722  1.8171
14612SOL    HW244415   3.067   0.298   6.632 -1.5054  0.6253  1.2076
14613SOL     OW44416   2.898   1.749   0.374  0.1912 -0.4332  0.4999
14613SOL    HW144417   2.982   1.707   0.393  0.8897 -0.1440 -1.6712
14613SOL    HW244418   2.909   1.786   0.287 -1.8789  0.4895  0.5718
14614SOL     OW44419   6.605   5.299   3.319  0.4105 -0.0103 -0.2837
14614SOL    HW144420   6.571   5.373   3.270  0.1007  1.1574  1.5924
14614SOL    HW244421   6.530   5.266   3.369  0.9863 -0.3167  0.4057
14615SOL     OW44422   0.797   2.461   5.092 -0.1507  0.7440 -0.2980
14615SOL    HW144423   0.867   2.497   5.146 -0.8868  0.0249  1.2256
14615SOL    HW244424   0.722   2.519   5.108 -0.9260 -0.5355  1.0457
14616SOL     OW44425   7.209   1.074   4.480 -0.5951 -0.2121 -0.6497
14616SOL    HW144426   7.113   1.077   4.487 -0.5627  1.8019 -0.3895
14616SOL    HW244427   7.225   1.052   4.388 -1.2218 -3.8314 -0.0221
14617SOL     OW44428   4.710   3.935   6.418 -0.0308 -0.2157  0.2230
14617SOL    HW144429   4.711   3.881   6.339 -0.6600  0.8549 -0.5484
14617SOL    HW244430   4.619   3.932   6.448  0.1950 -0.5854  0.9027
14618SOL     OW44431   3.534   8.045   8.302 -0.2297 -0.1595  0.4568
14618SOL    HW144432   3.578   8.018   8.221  0.4302  0.3824  0.6139
14618SOL    HW244433   3.444   8.017   8.292  0.1585 -1.3219  0.1198
14619SOL     OW44434   6.579   8.039   0.710 -0.4775 -0.4947 -0.0933
14619SOL    HW144435   6.664   8.042   0.666 -0.8743 -0.3831 -0.8739
14619SOL    HW244436   6.599   8.010   0.799  0.3227 -0.9172 -0.4025
14620SOL     OW44437   4.579   2.798   1.112 -0.1991 -0.0040 -0.2923
14620SOL    HW144438   4.609   2.707   1.111  0.2038  0.1159  0.4815
14620SOL    HW244439   4.484   2.792   1.127 -0.1598 -0.2968 -0.1606
14621SOL     OW44440   3.337   8.964   8.197 -0.3497  0.0258 -0.0098
14621SOL    HW144441   3.429   8.988   8.189 -0.3468 -0.2340 -0.8970
14621SOL    HW244442   3.291   9.048   8.207 -0.1585  0.2935 -1.2103
14622SOL     OW44443   1.300   8.900   7.134  0.3919  0.0568 -0.2732
14622SOL    HW144444   1.214   8.865   7.158  0.6996  0.7401  2.0416
14622SOL    HW244445   1.283   8.992   7.113  0.4455  0.0048 -0.5405
14623SOL     OW44446   4.699   9.292   3.095 -0.4831  0.0256 -0.2840
14623SOL    HW144447   4.719   9.349   3.169 -0.1641 -0.0412 -0.3189
14623SOL    HW244448   4.724   9.342   3.018 -1.0491  0.1950 -0.3625
14624SOL     OW44449   7.634   5.159   2.352  0.2444  0.0250 -0.6035
14624SOL    HW144450   7.609   5.148   2.444  1.2890  0.9518 -0.1953
14624SOL    HW244451   7.703   5.225   2.353  1.4722 -1.1631 -1.8800
14625SOL     OW44452   6.463   0.881   1.899  0.1771  0.1818 -0.2935
14625SOL    HW144453   6.462   0.786   1.885 -0.2825  0.2136 -0.4811
14625SOL    HW244454   6.424   0.892   1.985  0.2136  0.2019 -0.2798
14626SOL     OW44455   2.736   1.539   4.024 -0.0456 -0.4919 -0.1323
14626SOL    HW144456   2.824   1.501   4.030  1.5301  2.5558 -1.6881
14626SOL    HW244457   2.738   1.612   4.085 -2.2778 -1.5172  1.2900
14627SOL     OW44458   8.164   5.833   0.463 -0.0726 -0.2062  0.4156
14627SOL    HW144459   8.072   5.852   0.445 -0.1401 -0.8947  0.0033
14627SOL    HW244460   8.168   5.819   0.557 -0.6906 -1.7062  0.2432
14628SOL     OW44461   8.114   2.905   2.191  0.1836  0.0490  0.1845
14628SOL    HW144462   8.158   2.957   2.123  0.1328  0.7037  0.6417
14628SOL    HW244463   8.098   2.967   2.262  0.2061 -0.6181  0.7869
14629SOL     OW44464   7.133   8.273   5.944  0.1410 -0.3531  0.1859
14629SOL    HW144465   7.180   8.336   5.998  1.5847 -0.5256 -0.8093
14629SOL    HW244466   7.156   8.297   5.854 -1.6495 -0.4947 -0.3529
14630SOL     OW44467   0.015   3.521   1.230  0.4696 -0.7495 -0.1294
14630SOL    HW144468   0.095   3.534   1.179  0.4907 -0.4262 -0.0193
14630SOL    HW244469  -0.029   3.447   1.188 -0.4955  0.7175 -1.8573
14631SOL     OW44470   1.436   0.086   5.596 -0.2733  0.2915 -0.4701
14631SOL    HW144471   1.442   0.170   5.551  0.1768  1.4082  1.5621
14631SOL    HW244472   1.418   0.023   5.526  0.0137  1.9623 -2.1394
14632SOL     OW44473   6.525   5.500   2.076 -0.1324 -0.2573 -0.5949
14632SOL    HW144474   6.591   5.567   2.093 -0.9789  0.4628 -0.0444
14632SOL    HW244475   6.570   5.434   2.023  0.5536  1.0094 -1.6172
14633SOL     OW44476   1.598   9.911   0.217 -0.0276 -0.1301  0.1058
14633SOL    HW144477   1.531   9.975   0.241 -0.2233  0.0739 -0.9518
14633SOL    HW244478   1.681   9.958   0.230 -0.0210 -0.5850  2.0275
14634SOL     OW44479   5.817   5.665   5.267 -0.3236 -0.1962 -0.3891
14634SOL    HW144480   5.742   5.708   5.226 -1.0600  0.3545  1.4140
14634SOL    HW244481   5.795   5.572   5.264 -1.2645 -0.0183  0.4158
14635SOL     OW44482   9.213   8.117   3.346 -0.2320 -0.7325 -0.0519
14635SOL    HW144483   9.162   8.051   3.298  0.7316 -0.7741 -1.0396
14635SOL    HW244484   9.149   8.158   3.405 -1.1453 -1.5987 -0.4095
14636SOL     OW44485   2.255   7.052   8.856 -0.2788 -0.1758  0.0530
14636SOL    HW144486   2.170   7.074   8.818 -1.1382 -1.0276  1.4021
14636SOL    HW244487   2.256   7.098   8.940  0.9199  0.3951 -0.2440
14637SOL     OW44488   0.040   8.304   8.248 -0.0431  1.1827  0.0160
14637SOL    HW144489   0.002   8.276   8.331 -1.2162  0.1887 -0.8214
14637SOL    HW244490   0.080   8.389   8.268  1.0922  0.2709  1.9472
14638SOL     OW44491   8.657   6.223   2.112  0.0972 -0.6550 -0.6974
14638SOL    HW144492   8.609   6.226   2.195 -1.8002 -0.5136 -1.7418
14638SOL    HW244493   8.711   6.144   2.119 -1.2364 -1.5427  0.0677
14639SOL     OW44494   2.887   0.347   0.500  0.1898 -0.1732 -0.2249
14639SOL    HW144495   2.892   0.294   0.420  0.1313  1.9005 -1.6788
14639SOL    HW244496   2.975   0.342   0.538  0.2421 -1.1136 -0.4593
14640SOL     OW44497   3.177   2.707   4.766  0.2896 -0.7664 -0.3912
14640SOL    HW144498   3.226   2.755   4.833 -1.3530  0.5683 -0.0693
14640SOL    HW244499   3.203   2.616   4.778  1.8191 -0.2550  0.4700
14641SOL     OW44500   3.451   7.969   3.544 -0.7042 -0.6127  0.3622
14641SOL    HW144501   3.416   8.042   3.492 -0.4562 -0.6821  0.0963
14641SOL    HW244502   3.527   8.005   3.589  0.8440 -1.2802 -1.5649
14642SOL     OW44503   2.404   1.778   4.895 -0.0212  0.0370  0.0948
14642SOL    HW144504   2.430   1.863   4.859 -1.0752  0.2293 -0.2243
14642SOL    HW244505   2.353   1.800   4.973 -2.2594 -0.1948 -1.2364
14643SOL     OW44506   7.424   8.763   6.950  0.1750  0.4244  0.2880
14643SOL    HW144507   7.463   8.677   6.937  1.4094  1.0117 -0.1303
14643SOL    HW244508   7.335   8.755   6.915  0.6163 -0.3936 -0.7114
14644SOL     OW44509   4.920   9.126   4.803 -0.2538 -0.3592 -0.0375
14644SOL    HW144510   4.963   9.041   4.794  2.4822  1.0345 -1.0393
14644SOL    HW244511   4.978   9.177   4.859 -0.5906  1.5943 -1.3640
14645SOL     OW44512   1.596   5.588   4.234 -0.4733  0.3248 -0.8094
14645SOL    HW144513   1.601   5.501   4.193  0.2593 -0.5479  1.0309
14645SOL    HW244514   1.506   5.617   4.216 -0.5688 -0.5614 -1.9165
14646SOL     OW44515   8.963   1.874   4.851  0.4595 -0.3657  0.5679
14646SOL    HW144516   9.008   1.790   4.855  3.9085  1.1961 -1.3109
14646SOL    HW244517   8.921   1.874   4.765  0.0458 -0.3524  0.7688
14647SOL     OW44518   8.632   1.581   4.551  0.1995  0.2373  0.5580
14647SOL    HW144519   8.656   1.504   4.603  2.5669 -2.0776 -3.4683
14647SOL    HW244520   8.601   1.545   4.468 -0.1704  3.6450 -0.9531
14648SOL     OW44521   4.282   7.132   6.277  0.5067  0.4410 -0.2643
14648SOL    HW144522   4.229   7.211   6.288  0.2092  0.3171 -0.7508
14648SOL    HW244523   4.219   7.063   6.262  0.7270 -0.0533  0.9731
14649SOL     OW44524   3.666   2.899   2.143  0.4355 -0.2920  0.5154
14649SOL    HW144525   3.761   2.900   2.130  0.6958  0.4628  2.2000
14649SOL    HW244526   3.652   2.829   2.208 -0.0854  0.0155  0.7378
14650SOL     OW44527   4.829   9.853   0.169 -0.2206 -0.0658  0.2331
14650SOL    HW144528   4.754   9.906   0.141 -2.7110 -1.1315  4.0613
14650SOL    HW244529   4.801   9.763   0.154 -0.3218 -0.5254  2.6921
14651SOL     OW44530   2.549   6.223   0.404  0.0743 -0.1106 -0.5276
14651SOL    HW144531   2.512   6.304   0.439 -0.0747 -0.3415 -0.1331
14651SOL    HW244532   2.625   6.250   0.353  0.4723  0.2162  0.2285
14652SOL     OW44533   4.543   7.092   0.972  0.4346  0.2324 -0.0586
14652SOL    HW144534   4.542   7.162   1.037 -0.0382 -0.0395  0.2412
14652SOL    HW244535   4.564   7.013   1.022 -2.0742 -0.3681  0.2238
14653SOL     OW44536   7.259   6.808   5.326 -0.4518 -0.2032 -0.4303
14653SOL    HW144537   7.163   6.804   5.318 -0.4848 -0.2569 -0.0208
14653SOL    HW244538   7.275   6.806   5.420 -0.0531 -0.0028 -0.4928
14654SOL     OW44539   4.398   9.343   6.122 -0.3158  0.1180  0.0393
14654SOL    HW144540   4.407   9.382   6.035 -0.1894 -3.5754 -1.8140
14654SOL    HW244541   4.383   9.417   6.181  1.5265  2.9939 -2.7922
14655SOL     OW44542   2.744   2.109   7.840 -0.0533  0.6971 -0.5379
14655SOL    HW144543   2.701   2.177   7.892 -2.1521 -0.5219 -0.5754
14655SOL    HW244544   2.763   2.151   7.756  1.0003  1.9287  0.2762
14656SOL     OW44545   0.405   6.426   3.978 -0.4494  0.0932  0.6889
14656SOL    HW144546   0.491   6.442   4.017 -1.2501  0.8793  2.2161
14656SOL    HW244547   0.391   6.502   3.920 -0.8037  0.8388  1.7257
14657SOL     OW44548   5.159   1.059   9.381 -0.3562  0.2449 -0.0777
14657SOL    HW144549   5.195   0.977   9.347  0.4106  0.3229  0.5132
14657SOL    HW244550   5.072   1.036   9.412 -0.1286 -0.3578  0.1285
14658SOL     OW44551   6.399   0.333   1.833 -0.7553 -0.1584 -0.0299
14658SOL    HW144552   6.316   0.287   1.815 -0.2903 -1.0200 -0.0373
14658SOL    HW244553   6.466   0.265   1.823  0.0666  0.7942 -1.1879
14659SOL     OW44554   2.307   2.702   4.324 -0.1186  0.4471 -0.4054
14659SOL    HW144555   2.335   2.731   4.238 -0.0294  0.1039 -0.4944
14659SOL    HW244556   2.294   2.608   4.314  0.6346  0.2713  0.1491
14660SOL     OW44557   5.727   0.611   3.837 -0.0687  0.2016  0.2807
14660SOL    HW144558   5.778   0.594   3.757 -1.0479  0.3669 -0.3966
14660SOL    HW244559   5.791   0.646   3.899  0.8034 -0.3704 -0.2680
14661SOL     OW44560   7.650   0.359   8.086 -0.1462 -0.6421  0.4685
14661SOL    HW144561   7.666   0.303   8.162 -0.3148 -0.0462  0.9547
14661SOL    HW244562   7.669   0.448   8.117 -0.3269 -0.3784 -0.1508
14662SOL     OW44563   7.384   8.785   3.834 -0.2493  0.5169 -0.4053
14662SOL    HW144564   7.407   8.769   3.926  1.1433 -0.1513 -0.8405
14662SOL    HW244565   7.327   8.712   3.811 -0.6520  0.7170 -0.0654
14663SOL     OW44566   9.266   4.506   8.820 -0.1838 -0.2919  0.1286
14663SOL    HW144567   9.310   4.587   8.794 -0.1578  0.1357  1.3881
14663SOL    HW244568   9.336   4.451   8.856 -0.4009 -0.3040  0.5479
14664SOL     OW44569   9.305   0.744   6.894 -0.0587  0.0362 -0.2567
14664SOL    HW144570   9.320   0.830   6.856  0.0938  0.8054  1.4553
14664SOL    HW244571   9.254   0.697   6.828 -2.2941  2.2659 -0.2606
14665SOL     OW44572   5.797   0.036   2.069  0.2003  0.2430  0.2421
14665SOL    HW144573   5.763   0.115   2.028 -0.0500  0.7454  1.3743
14665SOL    HW244574   5.835   0.066   2.152  1.8401 -0.5568 -0.1833
14666SOL     OW44575   9.516   9.733   8.775 -0.3356 -0.3255 -0.0285
14666SOL    HW144576   9.500   9.802   8.840  0.5014 -1.6131  1.6555
14666SOL    HW244577   9.481   9.654   8.816  0.3471 -1.2063 -1.0949
14667SOL     OW44578   6.010   9.530   1.784  0.0164 -0.2892 -0.3427
14667SOL    HW144579   5.919   9.560   1.791  0.3989  0.8467 -0.0905
14667SOL    HW244580   6.032   9.543   1.692  0.5693  1.4295 -0.0013
14668SOL     OW44581   9.032   5.329   3.899  0.4194 -0.5231 -0.3701
14668SOL    HW144582   8.936   5.332   3.896  0.4295  0.0755 -3.4288
14668SOL    HW244583   9.055   5.382   3.975 -1.6798  0.3023 -0.2337
14669SOL     OW44584   4.248   5.379   1.093  0.0555 -0.2791 -0.2649
14669SOL    HW144585   4.263   5.407   1.003 -0.4420 -1.4557 -0.7408
14669SOL    HW244586   4.331   5.340   1.121 -0.1109 -0.9048 -0.6159
14670SOL     OW44587   9.901   1.434   7.918 -0.6005  0.0143  0.1331
14670SOL    HW144588   9.993   1.427   7.893 -0.6303 -1.1054  0.2834
14670SOL    HW244589   9.853   1.396   7.845 -0.7530 -2.1463  1.2663
14671SOL     OW44590   2.796   2.904   6.911 -0.4601 -0.2576 -0.1628
14671SOL    HW144591   2.748   2.874   6.834 -1.5127  1.2464 -0.1362
14671SOL    HW244592   2.752   2.985   6.937  2.2145  1.3351 -0.2493
14672SOL     OW44593   1.303   6.514   7.593  0.0711  0.0321  0.2016
14672SOL    HW144594   1.347   6.595   7.566 -0.2886  0.2163  0.1535
14672SOL    HW244595   1.359   6.444   7.560 -0.2846  0.2527 -0.9063
14673SOL     OW44596   9.711   6.093   0.610 -0.0136  0.0994 -0.5461
14673SOL    HW144597   9.731   6.142   0.531  0.7024  0.6031 -0.0696
14673SOL    HW244598   9.628   6.049   0.592  0.7591 -0.8182 -2.0494
14674SOL     OW44599   3.737   4.798   7.738  0.1156 -0.7321  0.2084
14674SOL    HW144600   3.756   4.883   7.779 -1.1217  0.0659 -0.7885
14674SOL    HW244601   3.682   4.820   7.663  0.0967 -2.4027 -0.2966
14675SOL     OW44602   8.969   1.193   5.824  0.1933  0.4687  0.0695
14675SOL    HW144603   9.024   1.163   5.897 -0.8439 -0.6923  0.4192
14675SOL    HW244604   8.887   1.219   5.865 -0.7007 -0.9574 -0.7320
14676SOL     OW44605   5.839   6.425   7.736 -0.3985  0.5155  0.1291
14676SOL    HW144606   5.778   6.352   7.728 -0.9049  0.9979 -0.5951
14676SOL    HW244607   5.901   6.412   7.664  1.7117 -1.1621  2.1035
14677SOL     OW44608   2.593   5.057   6.788  0.2625  0.0144 -0.5457
14677SOL    HW144609   2.673   5.004   6.783  1.0743  1.2369 -0.8788
14677SOL    HW244610   2.546   5.021   6.863  1.5508 -0.1595  0.2154
14678SOL     OW44611   1.620   7.577   2.180  0.4112 -0.2437  0.1369
14678SOL    HW144612   1.705   7.571   2.223 -0.0433 -1.0345  0.9637
14678SOL    HW244613   1.616   7.501   2.123 -0.1553 -0.8105  0.9053
14679SOL     OW44614   1.440   3.800   3.166  0.3491  1.0110 -0.1807
14679SOL    HW144615   1.348   3.799   3.193 -0.4068  1.2036 -2.5137
14679SOL    HW244616   1.446   3.875   3.106  1.6670  0.1248 -1.2072
14680SOL     OW44617   4.083   8.181   6.350 -0.1552  0.2125  0.8145
14680SOL    HW144618   4.072   8.216   6.262  1.4384 -0.2444  0.3874
14680SOL    HW244619   4.063   8.088   6.342 -0.3610  0.2386  1.0129
14681SOL     OW44620   4.385   9.102   2.616  0.1151  0.4828  0.5785
14681SOL    HW144621   4.464   9.139   2.655  0.6129  0.3741 -0.3133
14681SOL    HW244622   4.316   9.165   2.638  0.9628  2.0536 -1.0106
14682SOL     OW44623   4.334   7.508   7.798 -0.0695  0.2812  0.2964
14682SOL    HW144624   4.313   7.464   7.880  0.2253 -1.3147 -0.4590
14682SOL    HW244625   4.281   7.588   7.800  0.7781  0.8799  2.5488
14683SOL     OW44626   3.266   6.128   6.528  0.8920 -0.0688  0.2823
14683SOL    HW144627   3.251   6.034   6.536  0.2401 -0.2246 -2.0367
14683SOL    HW244628   3.198   6.158   6.467  1.4028  1.8206  0.5727
14684SOL     OW44629   6.708   5.634   8.172 -0.4267  0.3197 -0.3744
14684SOL    HW144630   6.703   5.724   8.203 -0.1443  0.1505  0.1890
14684SOL    HW244631   6.784   5.632   8.115  0.4026  0.1354  0.7069
14685SOL     OW44632   9.040   0.335   8.329 -0.3496 -0.2397 -0.2739
14685SOL    HW144633   9.070   0.415   8.372 -0.8361  0.6583 -1.5463
14685SOL    HW244634   9.079   0.264   8.381  0.5817  0.8131  0.5231
14686SOL     OW44635   9.052   3.345   6.009  0.1527 -0.2801  0.2808
14686SOL    HW144636   9.042   3.375   5.919  0.2903  1.8283  0.9192
14686SOL    HW244637   8.964   3.351   6.046  0.0973 -1.1352  0.3015
14687SOL     OW44638   6.880   7.163   4.545 -0.3837  0.1056 -0.2169
14687SOL    HW144639   6.896   7.079   4.501  0.4883  0.7093 -1.0888
14687SOL    HW244640   6.944   7.166   4.615 -0.1009  0.2482 -0.4804
14688SOL     OW44641   0.750   3.718   6.877  0.7545  0.1117 -0.1706
14688SOL    HW144642   0.742   3.627   6.848 -0.6302  0.6896 -1.7784
14688SOL    HW244643   0.842   3.739   6.866  0.8226 -0.6601 -1.2307
14689SOL     OW44644   2.129   2.919   8.171  0.5295  0.1196 -0.4726
14689SOL    HW144645   2.034   2.914   8.185  0.8485  0.2920  2.2847
14689SOL    HW244646   2.144   3.010   8.143  0.0629  0.8428  1.4464
14690SOL     OW44647   1.493   6.065   2.174  0.7398 -0.1639  0.1688
14690SOL    HW144648   1.465   6.119   2.248  1.7958 -0.0255  0.4851
14690SOL    HW244649   1.504   6.127   2.102 -2.0219 -0.5178 -0.6713
14691SOL     OW44650   6.458   2.394   8.841 -0.3691 -0.5226 -0.0598
14691SOL    HW144651   6.468   2.489   8.849  1.6721 -0.6447 -0.5966
14691SOL    HW244652   6.533   2.359   8.889 -0.6287 -1.8456 -0.5988
14692SOL     OW44653   2.651   2.516   4.387  0.4024  0.1564  0.1610
14692SOL    HW144654   2.691   2.432   4.410  1.7213  0.8597  0.5534
14692SOL    HW244655   2.682   2.577   4.454 -0.7990  0.9010  0.0792
14693SOL     OW44656   8.946   3.638   3.933  0.3276 -0.4402  0.2877
14693SOL    HW144657   8.929   3.611   3.843  0.4449 -0.8926  0.3967
14693SOL    HW244658   8.884   3.709   3.950 -0.7961 -1.4080  0.3671
14694SOL     OW44659   6.819   3.163   2.479  0.1138 -0.1953 -0.2518
14694SOL    HW144660   6.905   3.136   2.447  0.3920 -0.5610  0.7516
14694SOL    HW244661   6.797   3.241   2.428  1.4992  0.4968  0.1515
14695SOL     OW44662   0.498   7.438   9.768 -0.8256  0.5687 -0.1075
14695SOL    HW144663   0.570   7.480   9.720  0.8684 -1.1602  0.7774
14695SOL    HW244664   0.426   7.436   9.705  0.7808 -0.1129 -2.0663
14696SOL     OW44665   9.324   5.755   0.918 -0.5106 -0.0970  0.1758
14696SOL    HW144666   9.238   5.787   0.943  0.2448  3.1659 -0.9634
14696SOL    HW244667   9.361   5.824   0.863  3.4954 -0.5680  1.9255
14697SOL     OW44668   8.880   9.582   6.430 -0.4364 -0.7085  0.1715
14697SOL    HW144669   8.863   9.571   6.337  2.3094 -3.4678 -0.1548
14697SOL    HW244670   8.961   9.633   6.435 -1.8489  1.6327  1.2510
14698SOL     OW44671   6.687   3.520   3.143  0.3669 -0.0068 -0.1104
14698SOL    HW144672   6.779   3.497   3.130  0.1721 -0.3752 -0.9153
14698SOL    HW244673   6.659   3.466   3.218  0.6725 -0.2771 -0.1879
14699SOL     OW44674   8.823   0.533   3.478 -0.0172 -0.1759  0.2049
14699SOL    HW144675   8.811   0.438   3.489 -0.7551 -0.2039 -0.7152
14699SOL    HW244676   8.738   0.571   3.499 -0.2976  0.0945 -1.2535
14700SOL     OW44677   4.490   9.788   7.753 -0.0816 -0.4851 -0.4594
14700SOL    HW144678   4.507   9.835   7.834 -2.9341  0.1134 -0.0706
14700SOL    HW244679   4.482   9.697   7.779  0.2196 -0.4642 -0.2908
14701SOL     OW44680   7.747   5.240   8.729 -0.2497  0.0563  0.2064
14701SOL    HW144681   7.835   5.228   8.694 -0.5426 -0.5784 -0.3182
14701SOL    HW244682   7.761   5.275   8.818  0.5121  0.3902 -0.0379
14702SOL     OW44683   0.896   2.115   7.359  0.1989 -0.1173  0.0535
14702SOL    HW144684   0.838   2.085   7.289  1.8287  0.4498 -1.5920
14702SOL    HW244685   0.916   2.036   7.409 -2.0533 -0.3076  0.7760
14703SOL     OW44686   6.969   7.167   8.393  0.1206  0.6866 -0.3963
14703SOL    HW144687   6.918   7.202   8.320  0.2406 -3.4706 -2.7836
14703SOL    HW244688   6.911   7.103   8.434  1.9143 -1.1163 -0.5053
14704SOL     OW44689   3.463   5.181   7.043 -0.1808  0.4766  0.6065
14704SOL    HW144690   3.536   5.237   7.068 -0.2623  0.4829  0.8330
14704SOL    HW244691   3.386   5.237   7.048 -0.0668  0.8148 -0.8326
14705SOL     OW44692   0.449   2.911   0.864  0.2393  0.2094  0.2076
14705SOL    HW144693   0.425   2.987   0.917  0.9684  0.6525 -0.0876
14705SOL    HW244694   0.462   2.841   0.928 -1.4994  0.0194  0.4026
14706SOL     OW44695   7.125   3.028   1.365 -0.5087  0.5501 -0.1388
14706SOL    HW144696   7.205   2.993   1.406 -0.8804  0.3918  0.4597
14706SOL    HW244697   7.087   2.952   1.321 -1.6734 -0.0028  1.7266
14707SOL     OW44698   9.870   4.829   3.620  0.5452 -0.1783  0.2220
14707SOL    HW144699   9.778   4.854   3.628  0.0879 -2.0628  1.4997
14707SOL    HW244700   9.906   4.891   3.556 -2.0453 -0.5559 -1.7600
14708SOL     OW44701   4.049   1.438   4.533  0.2552  0.0294  0.2709
14708SOL    HW144702   3.982   1.380   4.495 -0.7260 -0.2596  2.2643
14708SOL    HW244703   4.030   1.524   4.497  2.1115 -0.8416 -3.2348
14709SOL     OW44704   7.885   7.845   0.671  0.1609 -0.6103 -0.6599
14709SOL    HW144705   7.863   7.806   0.587 -0.7025  0.9631 -1.1922
14709SOL    HW244706   7.960   7.902   0.653  0.0030 -0.3011 -0.3454
14710SOL     OW44707   1.366   9.790   3.247 -0.2549 -0.2112  0.3238
14710SOL    HW144708   1.406   9.707   3.274 -1.6032 -2.3187 -3.3485
14710SOL    HW244709   1.277   9.786   3.283  0.0316  0.2584  1.1157
14711SOL     OW44710   7.890   1.903   3.660 -0.5315  0.4126  0.1010
14711SOL    HW144711   7.800   1.907   3.628 -0.2241  1.1764 -0.7127
14711SOL    HW244712   7.910   1.994   3.684  0.1923  0.3494 -0.2455
14712SOL     OW44713   2.280   7.284   1.471  0.5718  0.3752  0.1727
14712SOL    HW144714   2.216   7.282   1.400 -1.1199  1.0813  1.6005
14712SOL    HW244715   2.317   7.372   1.469  0.3459  0.4730  0.3202
14713SOL     OW44716   6.063   4.870   9.332  0.0810 -0.0517 -0.6638
14713SOL    HW144717   6.147   4.828   9.313  0.8613  1.6940 -1.2230
14713SOL    HW244718   6.064   4.882   9.427  0.8245  0.6662 -0.7536
14714SOL     OW44719   9.411   3.300   1.326  0.1765  0.2829  0.2211
14714SOL    HW144720   9.363   3.223   1.355  0.0033  0.3058 -0.0017
14714SOL    HW244721   9.386   3.311   1.234  1.3920 -0.2997 -0.2009
14715SOL     OW44722   4.619   7.065   0.693  0.2151 -0.0169  0.2050
14715SOL    HW144723   4.585   7.085   0.780 -1.0767  0.5894 -0.4091
14715SOL    HW244724   4.551   7.096   0.633  0.4251 -1.6727 -0.9827
14716SOL     OW44725   7.323   8.415   8.780  0.1307 -0.1905 -0.2397
14716SOL    HW144726   7.413   8.437   8.757  0.3093  2.7674  2.4373
14716SOL    HW244727   7.325   8.403   8.875 -2.3596  0.5873  0.0013
14717SOL     OW44728   0.302   8.417   7.240 -0.0957  0.1509  0.4933
14717SOL    HW144729   0.322   8.398   7.332  0.5843 -0.7281  0.1784
14717SOL    HW244730   0.274   8.508   7.240 -2.0456 -0.3970  1.8607
14718SOL     OW44731   8.396   5.287   4.780 -0.1168 -0.4768 -0.0628
14718SOL    HW144732   8.486   5.318   4.779  0.2430 -1.4935  0.2830
14718SOL    HW244733   8.347   5.355   4.733  0.8549 -0.0379 -0.4640
14719SOL     OW44734   6.414   3.213   0.857  0.5791  0.3596 -0.0101
14719SOL    HW144735   6.339   3.229   0.800  0.2493 -0.1490  0.2789
14719SOL    HW244736   6.471   3.155   0.806  0.0788 -0.4520  0.3370
14720SOL     OW44737   4.798   6.182   2.055  0.3071 -0.0429 -0.2845
14720SOL    HW144738   4.820   6.220   1.970 -1.7786  2.4354  0.1553
14720SOL    HW244739   4.703   6.191   2.062  0.4852  0.7923  2.6750
14721SOL     OW44740   5.564   9.235   2.538 -0.1738  0.4339 -0.1258
14721SOL    HW144741   5.630   9.167   2.527  1.0268  1.4749  0.3687
14721SOL    HW244742   5.524   9.244   2.452  0.0930 -0.4387 -0.3535
14722SOL     OW44743   3.322   9.273   1.515  0.5581  0.2586  0.0716
14722SOL    HW144744   3.323   9.284   1.610 -0.2754 -1.7353  0.3567
14722SOL    HW244745   3.363   9.187   1.501 -2.4431 -1.1126 -1.0547
14723SOL     OW44746   8.418   5.221   3.417  0.2993 -0.1717 -0.0726
14723SOL    HW144747   8.338   5.238   3.367  0.1872 -1.1695 -0.2553
14723SOL    HW244748   8.432   5.300   3.468 -0.6059  0.1498 -0.3122
14724SOL     OW44749   4.878   7.002   0.611 -0.4220  0.1040  0.0191
14724SOL    HW144750   4.787   6.993   0.638 -0.5126 -0.9369 -0.5770
14724SOL    HW244751   4.877   7.074   0.548 -0.9757 -0.3776 -0.5446
14725SOL     OW44752   1.651   0.229   6.269 -0.2437 -0.3032 -0.2485
14725SOL    HW144753   1.622   0.318   6.251 -1.9536 -0.6210  0.7808
14725SOL    HW244754   1.634   0.216   6.362 -1.1300 -2.0975 -0.6214
14726SOL     OW44755   9.328   3.476   9.458 -0.0174  0.0861  0.2915
14726SOL    HW144756   9.414   3.432   9.465  0.0415  0.1691  0.0866
14726SOL    HW244757   9.338   3.536   9.384 -0.4608 -0.3694 -0.1406
14727SOL     OW44758   8.281   3.323   7.993  0.7360  0.7431  0.1550
14727SOL    HW144759   8.233   3.341   8.074 -2.3643 -2.4363 -0.7076
14727SOL    HW244760   8.230   3.366   7.925 -0.5656 -1.9422 -0.6903
14728SOL     OW44761   9.940   6.703   9.445  0.4827  0.1609  0.0537
14728SOL    HW144762  10.005   6.664   9.503  1.5310  1.6758 -0.0457
14728SOL    HW244763   9.856   6.680   9.484  1.1585  1.4657  2.4177
14729SOL     OW44764   9.496   0.098   2.877  0.5910  0.1638 -0.3401
14729SOL    HW144765   9.450   0.179   2.853  1.1398  0.9925  1.3014
14729SOL    HW244766   9.438   0.028   2.846 -0.4559  1.1800 -0.7604
14730SOL     OW44767   2.848   2.570   7.721 -0.2426 -0.2101 -0.6216
14730SOL    HW144768   2.882   2.650   7.681 -1.4844  0.6522 -0.0196
14730SOL    HW244769   2.841   2.591   7.814 -1.7377 -0.5625 -0.6182
14731SOL     OW44770   0.774   6.486   3.568  0.6575  0.0171 -0.4266
14731SOL    HW144771   0.720   6.562   3.547 -1.1421 -1.3589 -1.1211
14731SOL    HW244772   0.740   6.455   3.652  1.7423  0.2606  0.1202
14732SOL     OW44773   3.495   4.130   5.889 -0.0086 -0.1058 -0.3959
14732SOL    HW144774   3.415   4.164   5.930  0.3882 -0.3063  0.5660
14732SOL    HW244775   3.545   4.094   5.962 -0.5384 -3.0872 -1.3914
14733SOL     OW44776   2.815   1.636   5.458  0.2144  0.4445 -0.2766
14733SOL    HW144777   2.887   1.646   5.395 -0.0395 -1.4551 -0.9298
14733SOL    HW244778   2.858   1.608   5.539  0.3745  1.1661 -0.1058
14734SOL     OW44779   0.832   5.493   0.983  0.0805 -0.3836  0.1863
14734SOL    HW144780   0.815   5.519   0.892 -1.5083  0.4319  0.6737
14734SOL    HW244781   0.832   5.576   1.031 -0.9093 -0.9423  1.1856
14735SOL     OW44782   8.579   0.976   6.670  0.4518 -0.6541  0.2933
14735SOL    HW144783   8.525   1.054   6.653  1.0757 -0.2909 -0.0577
14735SOL    HW244784   8.645   1.005   6.732  0.7978 -0.8558  0.0226
14736SOL     OW44785   3.789   8.324   5.173  0.0445  0.1982 -0.2636
14736SOL    HW144786   3.750   8.382   5.108  0.1780 -0.6264 -1.1086
14736SOL    HW244787   3.858   8.376   5.214  1.2857  0.1489 -2.1623
14737SOL     OW44788   9.898   6.997   0.198 -0.2180 -0.1375  0.1560
14737SOL    HW144789   9.981   6.962   0.230  0.6632  0.2933 -1.5469
14737SOL    HW244790   9.900   6.982   0.103 -1.6408  0.7688 -0.0534
14738SOL     OW44791   0.853   4.355   1.682 -0.0404 -0.2867  0.3264
14738SOL    HW144792   0.854   4.261   1.665  1.8340 -0.2079 -0.2124
14738SOL    HW244793   0.810   4.393   1.606 -0.7078 -0.6836  0.4964
14739SOL     OW44794   6.124   8.448   0.440  0.0553 -0.2420  0.5569
14739SOL    HW144795   6.187   8.383   0.470  0.4938 -0.7286 -1.2881
14739SOL    HW244796   6.174   8.530   0.435  0.1886 -0.3372  0.3520
14740SOL     OW44797   5.521   3.138   7.327  0.2531 -0.1778  0.2786
14740SOL    HW144798   5.508   3.163   7.418  0.8278  0.8276  0.0888
14740SOL    HW244799   5.509   3.219   7.277 -2.0233 -1.0425 -0.7534
14741SOL     OW44800   6.776   9.902   9.037  0.1297 -0.0829 -0.5563
14741SOL    HW144801   6.835   9.830   9.057  0.9919  0.9945  0.9730
14741SOL    HW244802   6.766   9.948   9.120 -2.3139  0.1898 -0.9344
14742SOL     OW44803   6.496   3.046   1.915 -0.0946 -0.1593  0.0667
14742SOL    HW144804   6.582   3.040   1.956  0.7033  0.6140 -1.4001
14742SOL    HW244805   6.434   3.040   1.988  1.2590  2.7344  1.6107
14743SOL     OW44806   5.573   2.219   2.208  0.5339  0.0301  0.1124
14743SOL    HW144807   5.566   2.171   2.126  0.2538  1.5921 -0.8154
14743SOL    HW244808   5.489   2.264   2.217  0.7067  0.1798  1.0630
14744SOL     OW44809   0.450   1.948   7.619  0.0928  0.2932  0.4068
14744SOL    HW144810   0.464   1.858   7.589 -1.8299  0.1834 -0.3076
14744SOL    HW244811   0.364   1.947   7.661  0.1788  1.7279  0.6790
14745SOL     OW44812   1.755   3.408   3.814 -0.7527 -0.3377  0.2198
14745SOL    HW144813   1.722   3.375   3.730  0.6417 -2.0898  0.3296
14745SOL    HW244814   1.763   3.503   3.800 -1.9041 -0.3965 -1.1278
14746SOL     OW44815   9.077   4.781   6.154 -0.2069  0.0828  0.4615
14746SOL    HW144816   9.000   4.825   6.117 -0.8104 -1.0216  0.3650
14746SOL    HW244817   9.079   4.696   6.110 -0.9642 -1.3096  2.9154
14747SOL     OW44818   0.702   9.006   8.206 -0.4803 -0.3860  0.7314
14747SOL    HW144819   0.779   8.971   8.161 -0.4346  0.3221  0.2368
14747SOL    HW244820   0.727   9.005   8.299  0.3570  0.3630  0.5305
14748SOL     OW44821   5.224   2.704   1.495  0.3904 -0.3845  0.4206
14748SOL    HW144822   5.244   2.731   1.585  0.5535  2.0594 -0.2758
14748SOL    HW244823   5.304   2.722   1.446 -0.2217 -0.1281 -0.5103
14749SOL     OW44824   9.098   3.114   9.068 -0.0920  0.0353 -0.3309
14749SOL    HW144825   9.009   3.080   9.051  0.1009 -0.6953  0.0510
14749SOL    HW244826   9.149   3.036   9.088  1.0490  0.2488 -2.1943
14750SOL     OW44827   2.332   6.593   1.995 -0.0208 -0.3000 -0.0336
14750SOL    HW144828   2.412   6.573   1.946  0.1434 -0.8561  0.4534
14750SOL    HW244829   2.357   6.583   2.087 -0.2559  0.9610  0.1955
14751SOL     OW44830   4.835   2.890   1.916 -0.1470  0.5116 -0.7414
14751SOL    HW144831   4.744   2.910   1.890 -0.1642 -0.0904 -1.1545
14751SOL    HW244832   4.833   2.887   2.011 -1.1469 -2.1692 -0.7866
14752SOL     OW44833   9.435   1.568   8.718 -0.7441  0.2435  0.1989
14752SOL    HW144834   9.435   1.505   8.645 -2.6113  0.2837  0.1178
14752SOL    HW244835   9.500   1.533   8.779 -1.6397 -1.7513  0.1149
14753SOL     OW44836   9.793   3.964   4.231  0.3699  0.4262 -0.0335
14753SOL    HW144837   9.788   3.891   4.292  0.2565  0.0966 -0.4321
14753SOL    HW244838   9.883   3.962   4.199  0.4365  0.6135  0.1429
14754SOL     OW44839   0.824   9.262   6.064 -0.1639 -0.4784 -0.7057
14754SOL    HW144840   0.838   9.344   6.110 -0.3113 -0.5734 -0.4878
14754SOL    HW244841   0.901   9.252   6.008  0.1152 -0.4620 -0.3294
14755SOL     OW44842   6.412   7.068   3.315  0.7124  0.0766 -0.1095
14755SOL    HW144843   6.451   6.982   3.296  0.0635  0.0533 -1.5224
14755SOL    HW244844   6.481   7.131   3.293  1.4882 -0.0844  1.7520
14756SOL     OW44845   9.771   0.868   8.082 -0.2901 -0.1166  1.0797
14756SOL    HW144846   9.755   0.776   8.060 -0.1157  0.4397 -1.6584
14756SOL    HW244847   9.855   0.866   8.129  0.9980 -1.1826 -1.0867
14757SOL     OW44848   5.536   6.793   1.550  0.5724  0.3141  0.3377
14757SOL    HW144849   5.538   6.700   1.573  0.9430  0.5301  1.2404
14757SOL    HW244850   5.616   6.808   1.501 -0.4219 -0.2429 -1.5475
14758SOL     OW44851   1.470   9.641   8.825 -0.0838  0.2484 -0.4738
14758SOL    HW144852   1.479   9.582   8.750  1.0467 -0.3468  0.1154
14758SOL    HW244853   1.557   9.646   8.863 -0.5216  0.9886  0.4819
14759SOL     OW44854   1.765   3.767   6.839 -0.2428 -0.0279  0.0415
14759SOL    HW144855   1.829   3.837   6.851  0.9405 -0.8913 -0.9964
14759SOL    HW244856   1.796   3.696   6.894  1.1213 -1.3308 -2.2617
14760SOL     OW44857   6.306   4.503   3.942  0.1659 -0.0130  0.3293
14760SOL    HW144858   6.318   4.590   3.904  0.3422  0.0654  0.5601
14760SOL    HW244859   6.390   4.459   3.930 -0.0585 -0.3099 -0.1791
14761SOL     OW44860   3.369   4.024   3.958  0.2911 -0.3848  0.1670
14761SOL    HW144861   3.302   4.002   3.894 -0.4447  1.6870  0.1306
14761SOL    HW244862   3.321   4.055   4.035  1.1815 -1.7683  1.3362
14762SOL     OW44863   1.555   4.491   2.936  0.5498  0.0001 -0.2540
14762SOL    HW144864   1.615   4.533   2.996 -0.1468  0.7662 -0.0730
14762SOL    HW244865   1.508   4.563   2.894 -0.0838 -0.5637 -0.5412
14763SOL     OW44866   4.488   9.004   8.702 -0.7166  0.6115 -0.0644
14763SOL    HW144867   4.473   9.005   8.797 -0.0267  1.1044  0.0505
14763SOL    HW244868   4.525   9.090   8.683  1.4772 -0.3270 -0.3759
14764SOL     OW44869   4.865   3.726   3.139 -0.4440  0.0268  0.3785
14764SOL    HW144870   4.956   3.699   3.154 -0.3053  0.2151 -0.1017
14764SOL    HW244871   4.839   3.767   3.221 -0.4081 -0.8752  0.8477
14765SOL     OW44872   6.851   6.406   7.490 -0.3592 -0.0055  0.4191
14765SOL    HW144873   6.761   6.432   7.472 -0.3586  0.4187  0.9829
14765SOL    HW244874   6.891   6.395   7.404 -0.7587  0.4799  0.1650
14766SOL     OW44875   2.796   7.224   1.780 -0.1620 -0.0592 -0.2302
14766SOL    HW144876   2.734   7.255   1.845 -0.2934  0.7704 -0.7297
14766SOL    HW244877   2.818   7.135   1.807 -0.6944  0.0518  0.5822
14767SOL     OW44878   7.350   7.163   0.779  0.1380 -0.1481 -1.0629
14767SOL    HW144879   7.425   7.219   0.798 -0.5198  0.2767  0.4158
14767SOL    HW244880   7.280   7.223   0.755 -0.0272 -0.4758 -1.4156
14768SOL     OW44881   0.668   0.291   0.691 -0.3823 -0.1698 -0.0265
14768SOL    HW144882   0.662   0.205   0.732  0.0331  0.6084  1.7654
14768SOL    HW244883   0.594   0.340   0.726  0.2029  0.6404  0.1159
14769SOL     OW44884   4.725   9.215   3.463 -0.4261 -0.7015  0.1229
14769SOL    HW144885   4.705   9.235   3.555  0.1456 -0.6924  0.2499
14769SOL    HW244886   4.746   9.300   3.424  0.8000 -0.8735  0.3615
14770SOL     OW44887   3.961   8.231   8.125  0.3532 -0.2266 -0.1296
14770SOL    HW144888   3.929   8.181   8.050 -1.1211 -1.0156  0.9712
14770SOL    HW244889   3.947   8.173   8.200  4.2184 -0.5587  0.5538
14771SOL     OW44890   3.807   9.357   5.300 -0.6156  0.0686 -0.0526
14771SOL    HW144891   3.776   9.267   5.310  1.8515 -0.7820  0.8087
14771SOL    HW244892   3.735   9.411   5.331 -2.8684 -1.4659 -2.2274
14772SOL     OW44893   3.309   1.519   5.673 -0.0880  0.2916  0.1070
14772SOL    HW144894   3.306   1.576   5.596 -0.1757  0.2567  0.0845
14772SOL    HW244895   3.242   1.553   5.731 -1.1234 -0.6368 -0.5012
14773SOL     OW44896   5.218   0.656   9.974 -0.0384 -0.5084  0.2564
14773SOL    HW144897   5.233   0.594   9.903 -0.6456  1.2615 -1.5261
14773SOL    HW244898   5.292   0.716   9.969 -0.3826 -0.0365  0.7240
14774SOL     OW44899   8.373   5.653   9.998  0.0265 -0.6654  0.4003
14774SOL    HW144900   8.328   5.644   9.913  0.1605 -0.2073  0.2784
14774SOL    HW244901   8.466   5.644   9.977  0.1495  0.5848  0.3174
14775SOL     OW44902   5.032   9.785   0.352 -0.1550 -0.4361  0.3694
14775SOL    HW144903   4.988   9.832   0.282 -0.1117 -0.7042  0.1624
14775SOL    HW244904   4.962   9.733   0.393 -0.0953 -0.6132  0.2474
14776SOL     OW44905   0.681   2.345   4.363  0.6162 -0.1921 -0.0166
14776SOL    HW144906   0.758   2.325   4.417  0.5830  2.4856  1.1743
14776SOL    HW244907   0.669   2.439   4.373 -1.5766 -0.1992 -1.9025
14777SOL     OW44908   8.539   2.454   1.707  0.7325  0.6095 -0.7144
14777SOL    HW144909   8.448   2.444   1.678  0.6586  0.5306 -0.4636
14777SOL    HW244910   8.539   2.536   1.756  0.4376 -0.1392  0.6135
14778SOL     OW44911   0.613   9.196   9.407 -0.1349 -0.0694 -0.3005
14778SOL    HW144912   0.586   9.288   9.401 -2.1432 -0.6908 -2.4564
14778SOL    HW244913   0.614   9.178   9.501 -2.4993  1.4332  0.1172
14779SOL     OW44914   9.552   2.237   8.389  0.5935 -0.4045  0.3608
14779SOL    HW144915   9.581   2.165   8.445  0.2512 -0.9315 -0.1351
14779SOL    HW244916   9.477   2.275   8.436  0.5079 -0.6389  0.4115
14780SOL     OW44917   6.746   9.509   6.289  0.9125 -0.0981 -0.5037
14780SOL    HW144918   6.651   9.514   6.301  0.5953 -0.2222 -2.6639
14780SOL    HW244919   6.774   9.439   6.348 -0.3352 -0.0776  0.1486
14781SOL     OW44920   7.103   2.486   0.228  0.4330  0.0362  0.3719
14781SOL    HW144921   7.100   2.406   0.281 -0.4125 -0.2868 -0.1367
14781SOL    HW244922   7.011   2.509   0.216  0.6771  1.3938  0.9504
14782SOL     OW44923   8.962   8.956   4.291  0.0707 -0.1456 -0.0394
14782SOL    HW144924   8.956   8.957   4.387  0.2732  2.0784 -0.0024
14782SOL    HW244925   9.048   8.919   4.273 -0.0369 -0.7511  0.6101
14783SOL     OW44926   5.037   0.328   0.096 -0.4362 -0.3867 -0.0351
14783SOL    HW144927   5.025   0.233   0.087  1.5776 -0.6505 -0.3483
14783SOL    HW244928   4.981   0.352   0.170 -0.9443 -1.8160  0.0851
14784SOL     OW44929   8.948   6.602   9.379  0.2268 -0.2045 -0.3918
14784SOL    HW144930   8.885   6.557   9.322 -0.1078  0.1750 -0.3278
14784SOL    HW244931   9.007   6.532   9.409  0.1407 -0.4804 -0.8488
14785SOL     OW44932   2.224   4.338   8.925 -0.4061 -0.0413  0.4837
14785SOL    HW144933   2.211   4.244   8.921  0.2654 -0.1061 -0.8003
14785SOL    HW244934   2.200   4.362   9.014  0.9329 -1.6508  1.3302
14786SOL     OW44935   2.811   1.506   9.174 -0.0109  0.0379 -0.4937
14786SOL    HW144936   2.812   1.424   9.126 -1.2624  0.7124 -1.7325
14786SOL    HW244937   2.727   1.507   9.220 -0.6338  1.1994 -1.5927
14787SOL     OW44938   2.240   4.561   4.427 -0.1886  0.5496  0.2491
14787SOL    HW144939   2.147   4.577   4.414 -0.6847 -2.0018  0.1494
14787SOL    HW244940   2.263   4.497   4.359  1.4105  0.4185  0.8703
14788SOL     OW44941   4.044   6.002   8.437 -0.0518  0.5258 -0.1490
14788SOL    HW144942   4.135   6.029   8.454 -0.3144  0.9625  0.6029
14788SOL    HW244943   4.008   6.071   8.381 -0.2836  0.9908  0.5662
14789SOL     OW44944   9.534   3.862   1.645 -0.5510 -0.1431 -0.5424
14789SOL    HW144945   9.509   3.939   1.697 -2.3212 -0.7997 -0.3624
14789SOL    HW244946   9.500   3.880   1.558  0.1497 -0.1828 -0.8320
14790SOL     OW44947   6.559   2.750   2.306  0.5262  0.2255 -0.5666
14790SOL    HW144948   6.477   2.753   2.257  1.2331 -0.2792 -1.8491
14790SOL    HW244949   6.556   2.826   2.364 -0.9219  0.1032 -0.4391
14791SOL     OW44950   3.632   1.338   0.790  0.2743 -0.4573  0.0397
14791SOL    HW144951   3.625   1.256   0.839 -0.2637  0.5202  1.6919
14791SOL    HW244952   3.611   1.314   0.700  1.8917 -2.4561  0.1078
14792SOL     OW44953   6.291   9.381   5.209 -0.4997  0.0991 -0.1431
14792SOL    HW144954   6.210   9.349   5.168  0.2565 -0.3891 -1.2783
14792SOL    HW244955   6.264   9.404   5.298 -2.0481  0.6493 -0.7200
14793SOL     OW44956   2.390   3.592   0.285 -0.2142  0.3825 -0.7061
14793SOL    HW144957   2.335   3.520   0.254  0.1959 -1.3632  2.1870
14793SOL    HW244958   2.451   3.609   0.212 -1.8634 -0.5050 -2.3659
14794SOL     OW44959   3.680   4.018   6.974  0.3689 -0.0514  0.4384
14794SOL    HW144960   3.739   4.073   6.923 -1.0032  0.8192 -0.2680
14794SOL    HW244961   3.698   4.041   7.065  1.9011 -0.6484  0.3244
14795SOL     OW44962   0.602   4.432   0.837  0.1321  0.2323  0.1815
14795SOL    HW144963   0.554   4.349   0.831  1.2292 -0.4396  0.4842
14795SOL    HW244964   0.655   4.435   0.757  0.5211  0.3615  0.4398
14796SOL     OW44965   5.092   0.943   9.795 -0.5188 -0.0677  0.3511
14796SOL    HW144966   5.040   1.023   9.789 -0.8330 -0.0009  2.8400
14796SOL    HW244967   5.033   0.879   9.834  0.0687 -1.1839 -0.5564
14797SOL     OW44968   9.172   1.835   6.997 -0.1886  0.4198  0.1301
14797SOL    HW144969   9.241   1.780   7.033 -0.4699 -0.1867 -0.2460
14797SOL    HW244970   9.094   1.779   6.997 -0.3800  0.6751 -0.6430
14798SOL     OW44971   7.347   4.431   6.218 -0.1713  0.5287 -0.4300
14798SOL    HW144972   7.253   4.435   6.232 -0.0180 -1.4694  1.7916
14798SOL    HW244973   7.356   4.391   6.131 -1.4077 -0.1632 -0.2652
14799SOL     OW44974   1.343   1.374   2.369 -0.1161 -0.2815 -0.2269
14799SOL    HW144975   1.423   1.419   2.340  0.5487 -0.8866  0.6005
14799SOL    HW244976   1.372   1.285   2.390 -1.2808 -0.9095 -1.1902
14800SOL     OW44977   7.781   2.431   4.402 -0.0758 -0.4816  0.3590
14800SOL    HW144978   7.830   2.508   4.371  1.3089 -2.0396 -1.5289
14800SOL    HW244979   7.832   2.399   4.476  0.0578 -0.3235  0.3383
14801SOL     OW44980   4.632   9.458   9.714 -0.0632  0.0233 -0.0878
14801SOL    HW144981   4.666   9.538   9.754  0.3705 -1.0346  1.7903
14801SOL    HW244982   4.698   9.434   9.648  0.8121  0.1797  0.7018
14802SOL     OW44983   2.210   8.850   7.879 -0.1196  0.1000  0.0488
14802SOL    HW144984   2.281   8.883   7.934 -0.8860 -0.0351  1.1611
14802SOL    HW244985   2.137   8.835   7.940 -0.5950 -1.2834 -0.7917
14803SOL     OW44986   6.187   4.401   8.934  0.7160  0.2948 -0.5802
14803SOL    HW144987   6.278   4.380   8.953  1.3828  2.6121 -0.9140
14803SOL    HW244988   6.162   4.338   8.866  2.7216  0.8738 -1.9350
14804SOL     OW44989   0.937   8.285   6.787  0.0719 -0.1432 -0.0901
14804SOL    HW144990   0.882   8.261   6.862 -0.4302  0.6992 -0.1782
14804SOL    HW244991   1.022   8.245   6.806  0.3646  1.1509  1.5861
14805SOL     OW44992   9.026   9.725   6.981  0.8727 -0.4285  0.6191
14805SOL    HW144993   8.943   9.698   7.019  0.5786 -0.5641 -0.1038
14805SOL    HW244994   9.079   9.753   7.056 -0.3361  1.0849  0.9408
14806SOL     OW44995   3.818   3.048   4.358  0.4533 -0.2612  0.4776
14806SOL    HW144996   3.736   3.007   4.327  0.2994 -1.3043  2.1593
14806SOL    HW244997   3.887   2.995   4.319  0.2698 -1.0961  1.2569
14807SOL     OW44998   6.124   6.735   7.199  0.2711 -0.1926  0.8031
14807SOL    HW144999   6.060   6.707   7.264 -2.6732 -0.5926 -2.0117
14807SOL    HW245000   6.181   6.659   7.187 -1.8200 -1.7045 -0.0496
14808SOL     OW45001   1.038   1.663   0.891  0.5333  0.0347 -0.0825
14808SOL    HW145002   1.125   1.639   0.922  0.1976 -0.0485  0.8173
14808SOL    HW245003   0.990   1.688   0.970 -0.6572 -1.1760 -0.3751
14809SOL     OW45004   3.390   8.108   9.030 -0.1631 -0.2276  0.2552
14809SOL    HW145005   3.372   8.196   9.062 -1.9740  0.0612 -1.3746
14809SOL    HW245006   3.482   8.110   9.004  0.6723  0.2398  2.9054
14810SOL     OW45007   8.831   2.652   7.745 -0.2293  0.5785 -0.0619
14810SOL    HW145008   8.880   2.645   7.663  1.1593  4.7649  0.1712
14810SOL    HW245009   8.766   2.720   7.728 -2.3567 -0.9511  1.3698
14811SOL     OW45010   4.789   9.184   6.973  0.3552  0.2481  0.6111
14811SOL    HW145011   4.794   9.089   6.970  0.5796  0.2391 -3.0418
14811SOL    HW245012   4.876   9.212   7.002  0.1743 -0.5852  2.0735
14812SOL     OW45013   3.586   6.503   3.165 -0.3209 -0.4051  0.4381
14812SOL    HW145014   3.636   6.438   3.115 -0.3404  0.5575 -0.8599
14812SOL    HW245015   3.653   6.557   3.206 -0.2837  0.1183 -0.2958
14813SOL     OW45016   0.162   8.270   3.545 -0.1558  0.4722  0.2264
14813SOL    HW145017   0.166   8.199   3.610  1.6904 -0.4696 -0.8176
14813SOL    HW245018   0.077   8.258   3.503  0.4688 -1.8145 -0.5724
14814SOL     OW45019   0.929   5.005   9.847 -0.0680  0.0681  0.6613
14814SOL    HW145020   1.013   5.038   9.813 -1.4420  2.8633 -0.3789
14814SOL    HW245021   0.874   4.995   9.769 -0.9229 -1.0404  1.3892
14815SOL     OW45022   1.500   2.523   3.221 -0.1207 -0.2721 -0.2219
14815SOL    HW145023   1.514   2.429   3.232 -1.2049 -0.3814  0.4228
14815SOL    HW245024   1.555   2.547   3.146 -1.1144 -1.7490 -1.4970
14816SOL     OW45025   9.658   8.080   2.383  0.1048 -0.1038  0.6872
14816SOL    HW145026   9.643   8.131   2.303  1.5348  0.2875  0.6344
14816SOL    HW245027   9.718   8.010   2.355  0.6082  0.0327  1.4148
14817SOL     OW45028   5.935   6.130   2.899  0.2593  0.2145 -0.4433
14817SOL    HW145029   5.875   6.180   2.844  0.5886  0.5649 -0.4906
14817SOL    HW245030   5.927   6.169   2.986  1.2794  1.0606 -0.6979
14818SOL     OW45031   1.597   4.291   1.952  0.2013  0.2927  0.0937
14818SOL    HW145032   1.613   4.257   1.865 -0.5134  0.7621 -0.2293
14818SOL    HW245033   1.673   4.264   2.003  1.1698  0.9616 -0.9522
14819SOL     OW45034   7.791   1.667   0.910  0.2298 -0.1429  0.3012
14819SOL    HW145035   7.712   1.664   0.965 -0.2005 -0.6578 -0.3358
14819SOL    HW245036   7.863   1.671   0.973 -0.3207  1.2179  0.8989
14820SOL     OW45037   6.416   3.786   2.684  0.1209 -0.3227  0.9675
14820SOL    HW145038   6.492   3.741   2.647  0.1734  1.8157 -1.9610
14820SOL    HW245039   6.395   3.853   2.618 -5.5765 -2.0674  0.5526
14821SOL     OW45040   2.778   7.783   5.132 -1.0877  0.0728 -0.2379
14821SOL    HW145041   2.862   7.776   5.178 -0.8501  0.0515 -0.6683
14821SOL    HW245042   2.713   7.791   5.202 -0.6419  1.0166  0.0962
14822SOL     OW45043   9.269   9.083   5.851  0.3891 -0.4385 -0.3818
14822SOL    HW145044   9.240   9.064   5.761 -0.5711 -0.1093 -0.1525
14822SOL    HW245045   9.328   9.158   5.841  0.0827 -0.2362 -0.7122
14823SOL     OW45046   0.405   5.808   6.641 -0.0794  0.4350 -0.0765
14823SOL    HW145047   0.410   5.719   6.606 -0.1478  0.4327 -0.0809
14823SOL    HW245048   0.393   5.864   6.564 -0.0449  0.4473 -0.0729
14824SOL     OW45049   4.370   1.651   9.091  0.2207 -0.0193  0.2388
14824SOL    HW145050   4.321   1.587   9.143 -1.3227  0.5465 -0.4694
14824SOL    HW245051   4.382   1.609   9.006 -2.5119  1.2364 -0.9137
14825SOL     OW45052   5.007   1.730   1.933  0.7528 -0.5251 -0.6392
14825SOL    HW145053   4.962   1.797   1.881 -0.4311 -0.3886  0.5076
14825SOL    HW245054   4.985   1.751   2.024  3.6891 -0.1154  0.0514
14826SOL     OW45055   4.060   9.539   9.061 -0.7362 -0.1184 -0.2443
14826SOL    HW145056   4.009   9.601   9.113 -1.1888 -1.7939  1.4096
14826SOL    HW245057   4.137   9.520   9.114  0.6321  0.7625 -1.7887
14827SOL     OW45058   6.646   6.121   0.101 -0.1410  0.6230 -0.1055
14827SOL    HW145059   6.638   6.026   0.116 -0.6762  0.6845  0.0266
14827SOL    HW245060   6.561   6.156   0.128 -0.1198  1.0803 -0.6170
14828SOL     OW45061   2.982   5.106   7.572 -0.4096 -0.1675  0.3173
14828SOL    HW145062   2.978   5.165   7.648  2.2590 -0.3467  0.6914
14828SOL    HW245063   3.001   5.163   7.498 -1.5863 -0.1657 -0.0050
14829SOL     OW45064   2.369   1.000   5.474  0.1649  0.6318 -0.4218
14829SOL    HW145065   2.346   1.080   5.426 -0.4416 -0.5142 -2.1310
14829SOL    HW245066   2.327   0.930   5.425  1.6744 -0.8798  0.3598
14830SOL     OW45067   1.525   2.209   3.232 -0.6326 -0.3150 -0.4816
14830SOL    HW145068   1.612   2.170   3.226 -0.9380 -0.8606 -1.6922
14830SOL    HW245069   1.476   2.150   3.289 -0.6781 -0.9175 -1.1404
14831SOL     OW45070   2.500   4.771   4.710 -0.3306 -0.0647 -0.4812
14831SOL    HW145071   2.458   4.796   4.627  0.2898  0.5920 -0.6142
14831SOL    HW245072   2.594   4.772   4.689 -0.1624  0.2652  0.2654
14832SOL     OW45073   8.454   6.568   2.762  0.0722  0.1589  0.6020
14832SOL    HW145074   8.422   6.615   2.839  0.1662  1.2681 -0.0175
14832SOL    HW245075   8.425   6.621   2.688  1.6934  0.1855 -0.0485
14833SOL     OW45076   2.803   8.979   3.894 -0.2259 -0.0900 -0.0339
14833SOL    HW145077   2.808   8.930   3.812 -0.9561  1.5631 -1.1153
14833SOL    HW245078   2.719   8.954   3.932  0.5276 -1.5977  0.7623
14834SOL     OW45079   1.280   6.558   5.279  1.0203  0.5261  0.2830
14834SOL    HW145080   1.289   6.546   5.185  0.4153 -0.1230  0.3100
14834SOL    HW245081   1.245   6.647   5.289 -0.6721 -0.0715 -0.1858
14835SOL     OW45082   3.879   3.250   8.136  0.2430 -0.6157  0.3185
14835SOL    HW145083   3.874   3.318   8.202 -1.0908  0.3135 -0.6791
14835SOL    HW245084   3.845   3.171   8.179 -1.4432  0.1807  0.5224
14836SOL     OW45085   5.298   7.215   2.551  0.0623 -0.0415 -0.3737
14836SOL    HW145086   5.279   7.127   2.517  0.9973 -0.9089  1.2306
14836SOL    HW245087   5.249   7.220   2.633 -0.2130  1.0592 -0.6002
14837SOL     OW45088   4.057   3.032   4.198  0.0765 -0.5734 -0.1643
14837SOL    HW145089   4.018   3.080   4.124 -0.8768  1.1716  1.3809
14837SOL    HW245090   4.136   3.082   4.219 -0.6611  0.0599  1.1617
14838SOL     OW45091   2.271   9.500   0.820  0.1097  0.3537 -0.3662
14838SOL    HW145092   2.362   9.528   0.814  0.9061 -2.2108 -1.7515
14838SOL    HW245093   2.275   9.405   0.810 -2.7116  0.1506 -0.2396
14839SOL     OW45094   0.929   3.905   7.390 -0.1969 -0.2605 -0.3079
14839SOL    HW145095   0.862   3.851   7.432  0.0931 -0.7419 -0.4604
14839SOL    HW245096   0.882   3.985   7.365 -0.5358 -0.2602  0.2852
14840SOL     OW45097   1.586   2.004   7.312  0.3851  0.7486 -0.5361
14840SOL    HW145098   1.661   1.956   7.276 -0.0083  1.2264 -2.0834
14840SOL    HW245099   1.522   1.936   7.333  2.0705  0.0776  3.1406
14841SOL     OW45100   0.062   6.761   2.957  0.1929  0.5973 -0.5083
14841SOL    HW145101   0.049   6.788   2.866  0.3946 -0.0569 -0.7366
14841SOL    HW245102   0.142   6.806   2.984 -0.2932  1.4180 -0.3940
14842SOL     OW45103   3.076   2.422   7.687 -0.0360 -0.0894  0.9672
14842SOL    HW145104   3.002   2.483   7.691  0.1098  0.1195  0.5547
14842SOL    HW245105   3.061   2.361   7.759 -0.0697  0.5650  1.5214
14843SOL     OW45106   4.281   2.665   7.159 -0.1682 -0.2186  0.3966
14843SOL    HW145107   4.215   2.731   7.181 -0.9834 -0.1248 -1.9754
14843SOL    HW245108   4.233   2.600   7.108  1.6067  0.0650 -1.7933
14844SOL     OW45109   6.320   3.663   4.086  0.5668  1.1985  0.0043
14844SOL    HW145110   6.388   3.713   4.041  2.0431 -0.8797 -0.2167
14844SOL    HW245111   6.262   3.632   4.017 -0.1603  2.2426  0.1116
14845SOL     OW45112   2.410   9.075   1.679  0.3425 -0.0014  0.1436
14845SOL    HW145113   2.439   9.005   1.737  0.3027 -1.5449 -1.6372
14845SOL    HW245114   2.317   9.060   1.667  0.0502  1.1632  0.7767
14846SOL     OW45115   2.391   4.650   2.726 -0.9818 -0.0942  0.2763
14846SOL    HW145116   2.476   4.610   2.748 -0.5823  0.3232 -0.4713
14846SOL    HW245117   2.403   4.683   2.637 -1.7073  0.5896  0.4276
14847SOL     OW45118   7.553   6.225   0.559 -0.4514 -0.1892 -0.1655
14847SOL    HW145119   7.480   6.175   0.596  0.5378 -1.6325 -0.1044
14847SOL    HW245120   7.607   6.160   0.514  2.2308  0.3054  2.0545
14848SOL     OW45121   7.329   6.525   7.750  0.1619  0.1632 -0.0846
14848SOL    HW145122   7.386   6.464   7.705  0.2860 -1.5348  2.2135
14848SOL    HW245123   7.240   6.495   7.730  0.2190 -0.6737  0.8868
14849SOL     OW45124   5.424   6.653   6.462 -0.1734  0.1440  0.3335
14849SOL    HW145125   5.514   6.680   6.479 -0.8114  1.4314  1.8966
14849SOL    HW245126   5.428   6.557   6.458  1.0435  0.1042  1.7617
14850SOL     OW45127   6.808   6.437   9.620  0.1162  0.2974 -0.4834
14850SOL    HW145128   6.790   6.380   9.546 -0.4046 -0.7320  0.4215
14850SOL    HW245129   6.901   6.424   9.638 -0.4587 -2.0738  1.1561
14851SOL     OW45130   6.369   0.328   1.127 -0.3839 -0.3369 -0.2986
14851SOL    HW145131   6.325   0.385   1.189 -2.0160  0.0597 -1.7396
14851SOL    HW245132   6.454   0.370   1.110  0.0707 -0.4347  1.5621
14852SOL     OW45133   8.423   0.878   3.690  0.6140  0.7951  0.1101
14852SOL    HW145134   8.456   0.833   3.612 -0.1083 -1.6611  1.1213
14852SOL    HW245135   8.469   0.837   3.763 -1.3095  0.4845  1.2170
14853SOL     OW45136   3.774   1.690   1.929  0.2891 -0.1035  0.2758
14853SOL    HW145137   3.719   1.611   1.925  1.5104 -1.0153  0.7956
14853SOL    HW245138   3.713   1.761   1.949 -1.0101 -0.7140 -1.2668
14854SOL     OW45139   0.992   4.415   2.243 -0.1062 -0.2656 -0.4607
14854SOL    HW145140   0.992   4.393   2.150  0.2205 -2.8387  0.0741
14854SOL    HW245141   0.900   4.411   2.269 -0.0516 -0.9877 -0.3765
14855SOL     OW45142   4.892   4.060   5.681  0.6361 -0.1670 -0.0210
14855SOL    HW145143   4.857   4.147   5.697 -0.6159 -0.2636 -1.8582
14855SOL    HW245144   4.968   4.074   5.624  0.0937 -0.2988 -0.7842
14856SOL     OW45145   6.394   4.018   5.618 -0.4154  0.0140  0.9769
14856SOL    HW145146   6.437   3.984   5.539 -2.2899 -0.5419  0.1356
14856SOL    HW245147   6.387   3.942   5.676 -2.9577 -0.7275 -0.1619
14857SOL     OW45148   7.064   5.183   2.365  0.5117  0.4047 -0.4385
14857SOL    HW145149   7.058   5.099   2.321  0.3105 -0.1707  0.6591
14857SOL    HW245150   6.974   5.215   2.369  0.1892 -0.6173  1.5453
14858SOL     OW45151   3.816   0.890   5.075  0.1318 -0.1872  0.4873
14858SOL    HW145152   3.732   0.937   5.071  0.5121  0.7347  2.2784
14858SOL    HW245153   3.821   0.843   4.992 -0.4541  2.6386 -1.2795
14859SOL     OW45154   9.172   6.007   4.110  0.6357 -0.4617  0.1452
14859SOL    HW145155   9.089   5.965   4.088  1.0663 -1.5098  0.4716
14859SOL    HW245156   9.224   6.001   4.030  0.4682  0.0288 -0.0024
14860SOL     OW45157   7.792   4.911   4.037 -0.2230  0.3512 -0.9300
14860SOL    HW145158   7.741   4.991   4.021  0.4536  0.9059 -0.4126
14860SOL    HW245159   7.880   4.943   4.057 -0.0598 -0.5003 -0.2131
14861SOL     OW45160   6.549   9.389   8.809 -0.3128 -0.3476  0.2826
14861SOL    HW145161   6.533   9.439   8.729 -0.7015  0.1032  0.6382
14861SOL    HW245162   6.545   9.454   8.879 -1.7909 -1.0247  0.8521
14862SOL     OW45163   7.593   5.248   4.947 -0.5139 -0.1622  0.2351
14862SOL    HW145164   7.613   5.155   4.957  0.9504  0.1003  0.0422
14862SOL    HW245165   7.516   5.262   5.002 -0.5573 -1.4102  0.5317
14863SOL     OW45166   1.460   8.749   0.125  0.6516 -0.6168 -0.1277
14863SOL    HW145167   1.470   8.801   0.205  0.1346  1.6414 -1.4457
14863SOL    HW245168   1.430   8.664   0.156 -0.6668  0.5306  2.0316
14864SOL     OW45169   9.474   3.809   2.906 -0.5292  0.1572 -0.3503
14864SOL    HW145170   9.564   3.819   2.938 -0.5040 -1.0378  0.0053
14864SOL    HW245171   9.452   3.894   2.869  0.9047  0.3316 -0.8417
14865SOL     OW45172   6.233   7.505   8.805  0.0426  0.5270 -0.4566
14865SOL    HW145173   6.215   7.481   8.896  0.0394 -1.0081 -0.8356
14865SOL    HW245174   6.298   7.576   8.812 -0.8748  1.2999  0.7414
14866SOL     OW45175   4.248   1.639   0.744  0.7246 -0.6644  0.1272
14866SOL    HW145176   4.224   1.724   0.781 -2.7059 -1.0664 -0.8702
14866SOL    HW245177   4.232   1.648   0.650 -0.8189 -2.6785  0.1299
14867SOL     OW45178   4.576   7.263   7.714  0.0360  0.2558 -0.7361
14867SOL    HW145179   4.523   7.342   7.708  1.7941  1.4914 -0.7003
14867SOL    HW245180   4.557   7.215   7.633 -1.8943  0.1209 -0.2435
14868SOL     OW45181   9.898   1.777   2.149 -0.1112  0.0890  0.2930
14868SOL    HW145182   9.914   1.784   2.244 -2.2339 -1.9621  0.8805
14868SOL    HW245183   9.971   1.723   2.117 -0.2181 -0.5201  1.0472
14869SOL     OW45184   7.496   9.605   0.952 -0.5162  0.3543 -0.2654
14869SOL    HW145185   7.412   9.650   0.948 -1.0158 -0.4572  0.7507
14869SOL    HW245186   7.475   9.517   0.981  0.8059  0.5508  1.4621
14870SOL     OW45187   6.718   3.807   3.693  0.1866  0.0869 -0.4717
14870SOL    HW145188   6.798   3.758   3.673  0.6059 -0.3369  1.9703
14870SOL    HW245189   6.748   3.882   3.745 -0.9612  0.2515 -0.0285
14871SOL     OW45190   1.558   4.277   6.643 -0.2258  0.1957 -0.2857
14871SOL    HW145191   1.504   4.217   6.695 -0.6432 -0.1394 -1.0925
14871SOL    HW245192   1.585   4.344   6.705  0.7468 -1.1365  0.7927
14872SOL     OW45193   4.956   0.762   8.829 -0.1621  0.1660 -0.3216
14872SOL    HW145194   4.885   0.698   8.818 -0.1174  0.1538 -0.5284
14872SOL    HW245195   5.029   0.711   8.865  0.1793 -0.0857 -1.3496
14873SOL     OW45196   1.707   9.428   8.070  0.0531  0.1672 -0.6851
14873SOL    HW145197   1.766   9.356   8.052  1.4851  0.7448  1.3531
14873SOL    HW245198   1.658   9.441   7.989  0.5867 -2.2851 -1.4560
14874SOL     OW45199   8.630   6.710   2.447  0.5292 -0.2582  0.4757
14874SOL    HW145200   8.615   6.791   2.496 -0.8016  0.2794 -0.7470
14874SOL    HW245201   8.676   6.738   2.368  1.0580 -0.8701  0.5589
14875SOL     OW45202   2.575   6.189   5.950  0.3154 -0.4826 -0.0307
14875SOL    HW145203   2.503   6.165   6.009  1.0171  0.5575  1.3023
14875SOL    HW245204   2.654   6.165   5.999  0.9126  0.3658 -0.5586
14876SOL     OW45205   6.129   2.904   9.328 -0.1484 -0.2377 -0.1747
14876SOL    HW145206   6.121   2.855   9.246 -1.2043  0.9189 -0.7943
14876SOL    HW245207   6.170   2.987   9.303 -0.2554  0.0299  0.5070
14877SOL     OW45208   9.708   6.937   0.848 -0.4431 -0.2619 -0.2430
14877SOL    HW145209   9.760   7.007   0.888 -0.2154 -0.8658  0.5528
14877SOL    HW245210   9.770   6.887   0.796 -0.0467 -1.3505  1.1953
14878SOL     OW45211   5.620   7.912   8.883 -0.0169 -0.2059 -0.3939
14878SOL    HW145212   5.671   7.839   8.847  1.7354  0.5129  0.5079
14878SOL    HW245213   5.680   7.986   8.881 -1.5260  1.0559 -0.6053
14879SOL     OW45214   9.784   2.461   9.203  0.1579  0.2306 -0.4847
14879SOL    HW145215   9.869   2.428   9.172  1.7013  1.3001  2.2162
14879SOL    HW245216   9.754   2.520   9.134  2.7268  1.5268 -0.6250
14880SOL     OW45217   2.498   7.795   0.973 -0.4592 -0.1227 -0.3785
14880SOL    HW145218   2.542   7.711   0.966  1.9166  1.0079  0.0273
14880SOL    HW245219   2.503   7.818   1.066 -2.5068 -0.2008 -0.1966
14881SOL     OW45220   4.532   8.378   1.337  0.3743  0.4443 -0.0042
14881SOL    HW145221   4.612   8.415   1.300  0.9875 -1.2710 -0.5034
14881SOL    HW245222   4.562   8.325   1.411 -0.0189 -1.8648 -1.4258
14882SOL     OW45223   6.159   6.091   2.729 -0.2810  0.6622 -0.1511
14882SOL    HW145224   6.191   6.181   2.737  0.0605  0.4557  0.8807
14882SOL    HW245225   6.081   6.088   2.785 -0.8728  0.5752 -0.9576
14883SOL     OW45226   9.271   9.025   5.275  0.4133 -0.0139  0.5307
14883SOL    HW145227   9.344   9.004   5.334  0.3333 -0.1637  0.5762
14883SOL    HW245228   9.249   8.942   5.233 -0.3196 -0.1524  1.1800
14884SOL     OW45229   8.232   4.764   0.280 -0.2581  0.2735  0.2865
14884SOL    HW145230   8.302   4.707   0.312  0.8374 -0.7425 -3.4167
14884SOL    HW245231   8.151   4.718   0.303  0.3422  0.0484  2.1485
14885SOL     OW45232   3.779   5.583   9.291  0.2726  0.0043 -0.6593
14885SOL    HW145233   3.735   5.585   9.375  0.9212 -0.4519 -0.2988
14885SOL    HW245234   3.845   5.514   9.300  0.6276  0.2379 -1.3930
14886SOL     OW45235   7.756   1.260   4.295 -0.7517  0.0903 -0.3187
14886SOL    HW145236   7.785   1.195   4.358  0.1207  0.6293 -0.1470
14886SOL    HW245237   7.775   1.344   4.337 -2.8773  0.4877 -0.0531
14887SOL     OW45238   1.869   0.416   6.502 -0.1156 -0.1704  0.3685
14887SOL    HW145239   1.813   0.338   6.496 -0.1860 -0.1238  0.4221
14887SOL    HW245240   1.809   0.490   6.491  0.1607 -0.1522 -1.2645
14888SOL     OW45241   4.546   1.997   5.010  0.3152 -0.1545 -0.4115
14888SOL    HW145242   4.590   2.059   5.068  1.9176  0.2042 -1.9069
14888SOL    HW245243   4.603   1.920   5.009 -0.1824 -0.5254 -0.7615
14889SOL     OW45244   7.215   9.601   1.296 -0.3186 -0.2371 -0.1778
14889SOL    HW145245   7.155   9.534   1.261  0.0035 -0.9227  0.5632
14889SOL    HW245246   7.225   9.663   1.223  0.6683 -1.8430 -1.4898
14890SOL     OW45247   6.988   1.957   4.075 -0.1438  0.1638 -0.0470
14890SOL    HW145248   6.942   1.944   3.992  0.7309 -1.0628 -0.3667
14890SOL    HW245249   6.977   1.874   4.122  1.9041 -0.2649 -0.2375
14891SOL     OW45250   6.603   5.838   0.103 -0.5325 -0.5345 -0.2824
14891SOL    HW145251   6.561   5.811   0.022 -1.3662  0.4994 -0.2227
14891SOL    HW245252   6.666   5.768   0.123 -0.5287 -0.9446 -1.6477
14892SOL     OW45253   4.310   2.333   6.678 -0.5822  0.7997  0.4622
14892SOL    HW145254   4.357   2.400   6.628 -0.7969 -0.1764 -1.1305
14892SOL    HW245255   4.353   2.251   6.654 -0.9636  0.2438  1.5985
14893SOL     OW45256   2.718   2.885   8.520  0.4880  0.1385  0.1999
14893SOL    HW145257   2.737   2.923   8.434  1.4275  0.1667  0.3997
14893SOL    HW245258   2.676   2.956   8.569 -0.0358  0.1263 -0.2357
14894SOL     OW45259   5.707   7.284   4.566 -0.5024  0.0177 -0.0283
14894SOL    HW145260   5.654   7.364   4.565 -0.4915  0.0403  0.6695
14894SOL    HW245261   5.671   7.233   4.638 -0.7831 -0.7993 -0.7322
14895SOL     OW45262   5.375   5.561   4.726 -0.2718 -0.5593  0.2924
14895SOL    HW145263   5.383   5.656   4.716 -0.3209 -0.5043  0.7675
14895SOL    HW245264   5.384   5.546   4.820  0.2896 -1.0822  0.1618
14896SOL     OW45265   3.127   1.514   7.480 -0.0070  0.4427  0.2955
14896SOL    HW145266   3.064   1.474   7.539  0.4440  0.8508  1.0610
14896SOL    HW245267   3.117   1.465   7.398 -1.8503  0.9685  0.1464
14897SOL     OW45268   1.619   1.833   9.357 -0.2681 -0.2713  0.0805
14897SOL    HW145269   1.662   1.846   9.273  0.9956 -0.7192  0.6314
14897SOL    HW245270   1.634   1.915   9.405  1.8148 -1.1244  1.0267
14898SOL     OW45271   3.856   0.802   1.821 -0.4679  0.2992  0.1276
14898SOL    HW145272   3.938   0.787   1.869 -0.3131  0.3870 -0.1094
14898SOL    HW245273   3.801   0.726   1.844 -0.3342  0.2578  0.3138
14899SOL     OW45274   7.931   4.501   1.073 -0.2069  0.1556  0.1406
14899SOL    HW145275   7.984   4.560   1.019  1.0184 -0.2012  0.9305
14899SOL    HW245276   7.854   4.483   1.019 -0.6219  2.4490 -0.1300
14900SOL     OW45277   5.863   2.669   7.732  0.3465  0.5057 -0.4929
14900SOL    HW145278   5.818   2.585   7.737  0.9027  0.2447  0.5324
14900SOL    HW245279   5.792   2.734   7.734 -0.0369  0.1124  1.5443
14901SOL     OW45280   4.730   9.819   5.684 -0.6031  0.0799 -0.1853
14901SOL    HW145281   4.644   9.823   5.724 -0.8178 -1.4690 -0.4371
14901SOL    HW245282   4.715   9.778   5.599  0.5394 -1.5162  0.3327
14902SOL     OW45283   1.291   9.162   7.973  0.1642  0.2473  0.0982
14902SOL    HW145284   1.246   9.079   7.955 -0.3714  0.6616 -0.5165
14902SOL    HW245285   1.325   9.190   7.888  2.0895 -0.3269  0.6508
14903SOL     OW45286   7.055   0.235   5.237  0.1319  0.0993  0.0923
14903SOL    HW145287   7.083   0.143   5.233 -0.5243 -0.1047  0.0894
14903SOL    HW245288   7.094   0.275   5.159 -1.6844 -0.7956 -1.3758
14904SOL     OW45289   8.050   0.069   1.462  0.1414  0.3014  0.4342
14904SOL    HW145290   8.145   0.082   1.461  0.2831 -0.6474 -0.0330
14904SOL    HW245291   8.038  -0.015   1.418 -0.8670  0.0972  1.0800
14905SOL     OW45292   6.685   4.459   5.584 -0.0801 -0.0037  0.6236
14905SOL    HW145293   6.648   4.404   5.514 -2.5948  1.0151  1.0386
14905SOL    HW245294   6.724   4.397   5.645 -1.3023 -1.2396  0.2150
14906SOL     OW45295   3.462   0.293   1.274  0.8804  0.2570  0.4556
14906SOL    HW145296   3.502   0.377   1.254 -2.3282  1.4732 -1.6052
14906SOL    HW245297   3.497   0.233   1.209 -0.8896  1.4452 -1.7254
14907SOL     OW45298   0.884   8.969   2.674  1.1741 -0.0338  0.4711
14907SOL    HW145299   0.855   8.880   2.690 -1.2923  0.6258 -0.0150
14907SOL    HW245300   0.956   8.960   2.611  1.6532 -1.6905  1.1921
14908SOL     OW45301   8.019   2.380   1.076  0.4368 -0.2298  0.1640
14908SOL    HW145302   7.928   2.410   1.083 -0.5664 -3.1911  1.3381
14908SOL    HW245303   8.025   2.343   0.988 -0.7126 -3.2390  1.2230
14909SOL     OW45304   4.278   3.556   0.580  0.0074  0.2610  0.5306
14909SOL    HW145305   4.200   3.504   0.603  1.4633 -2.5236 -0.3660
14909SOL    HW245306   4.305   3.596   0.663 -3.1989  2.7200  0.5910
14910SOL     OW45307   4.814   7.119   3.740  0.0190  0.4252 -0.1772
14910SOL    HW145308   4.881   7.155   3.682  1.0115 -0.6005  0.3053
14910SOL    HW245309   4.739   7.103   3.682  1.3554 -1.6332 -1.4703
14911SOL     OW45310   8.487   5.358   5.272  0.5077 -0.5267  0.2956
14911SOL    HW145311   8.404   5.311   5.269  1.3122 -2.0054  0.6954
14911SOL    HW245312   8.550   5.300   5.229  1.2054  0.9056 -0.7159
14912SOL     OW45313   9.507   0.038   0.825 -0.1446  0.0229  0.0401
14912SOL    HW145314   9.490  -0.049   0.788 -0.2508  0.4875 -1.0538
14912SOL    HW245315   9.598   0.035   0.854  0.0824 -0.2271 -0.6806
14913SOL     OW45316   1.278   7.724   7.497 -0.2453  0.5235 -0.8504
14913SOL    HW145317   1.299   7.672   7.419 -2.0630  1.3583 -1.9973
14913SOL    HW245318   1.277   7.661   7.569  0.1711 -0.5302 -1.7342
14914SOL     OW45319   1.300   5.537   0.677 -0.9010 -0.0698  0.1943
14914SOL    HW145320   1.369   5.484   0.636 -1.4462 -1.1441  0.6394
14914SOL    HW245321   1.338   5.625   0.683  0.5275 -0.6898  0.6439
14915SOL     OW45322   8.253   0.582   7.649 -0.1649 -0.3972 -0.0585
14915SOL    HW145323   8.164   0.596   7.681 -0.3194  0.3677 -0.7904
14915SOL    HW245324   8.302   0.553   7.726  0.0078  3.4520  1.4997
14916SOL     OW45325   5.767   9.598   9.030  0.4825 -0.2861  0.3214
14916SOL    HW145326   5.740   9.603   8.939  2.4032 -0.4617 -0.3065
14916SOL    HW245327   5.797   9.508   9.041  0.6694 -0.1468  1.0086
14917SOL     OW45328   8.865   2.248   7.657  0.3793 -0.2131 -0.0875
14917SOL    HW145329   8.947   2.280   7.620  0.1890  1.1199  0.5695
14917SOL    HW245330   8.856   2.295   7.740  0.0751 -2.0253  0.9570
14918SOL     OW45331   7.168   3.294   7.215  0.2099  0.4425 -0.2240
14918SOL    HW145332   7.154   3.388   7.225 -1.0079  0.2198  0.3736
14918SOL    HW245333   7.255   3.278   7.252 -0.9174  0.8586  2.9254
14919SOL     OW45334   6.899   0.093   2.838 -0.3177 -0.2076  0.3525
14919SOL    HW145335   6.868   0.170   2.885 -0.2799 -0.8763  1.5248
14919SOL    HW245336   6.846   0.021   2.872 -0.2132 -0.7361 -0.5643
14920SOL     OW45337   3.387   0.042   8.250  0.2639  0.6947  0.1151
14920SOL    HW145338   3.385  -0.034   8.308  2.7970  0.9485  0.6445
14920SOL    HW245339   3.392   0.118   8.308 -0.2136  1.1421 -0.4155
14921SOL     OW45340   5.875   0.234   6.574 -0.0259 -0.4291 -1.0125
14921SOL    HW145341   5.945   0.215   6.637 -0.3925 -0.9833 -0.7655
14921SOL    HW245342   5.794   0.219   6.623 -0.3244  0.2650 -1.2816
14922SOL     OW45343   3.791   6.494   8.734 -0.4064  0.1848  0.4652
14922SOL    HW145344   3.880   6.469   8.712 -0.9330 -1.5544  0.1461
14922SOL    HW245345   3.781   6.468   8.825 -1.2912 -1.8618 -0.1688
14923SOL     OW45346   8.614   9.961   5.830 -0.2390  0.2223  0.7383
14923SOL    HW145347   8.525   9.951   5.864 -1.1652  0.2622 -1.4904
14923SOL    HW245348   8.615   9.908   5.750  2.1581 -0.7765  1.3273
14924SOL     OW45349   2.642   8.945   7.010  0.1767 -0.0803  0.0648
14924SOL    HW145350   2.574   8.903   7.062  0.0623 -0.9673 -0.7721
14924SOL    HW245351   2.696   8.993   7.074  0.1052 -1.2107  1.0039
14925SOL     OW45352   0.055   7.971   3.412 -0.1733  0.2180  0.1672
14925SOL    HW145353   0.058   7.921   3.331  0.2942 -2.0724  1.5035
14925SOL    HW245354   0.012   8.053   3.388  2.7938  1.0510 -3.0668
14926SOL     OW45355   3.678   9.772   1.957 -0.4161  0.8084  0.0354
14926SOL    HW145356   3.646   9.833   1.890 -1.2285 -1.0421 -1.3799
14926SOL    HW245357   3.650   9.686   1.925 -0.0781 -0.2388  2.3643
14927SOL     OW45358   2.362   4.277   1.358 -0.2229 -0.3468  0.6226
14927SOL    HW145359   2.349   4.182   1.359  1.3034 -0.5910  2.6961
14927SOL    HW245360   2.429   4.292   1.292  0.9603 -0.9720  1.6507
14928SOL     OW45361   7.560   0.302   9.396 -0.2225  0.2869  0.3942
14928SOL    HW145362   7.489   0.238   9.397 -0.7185  0.8353  0.1187
14928SOL    HW245363   7.640   0.248   9.405 -0.6140 -0.3945 -0.1282
14929SOL     OW45364   5.883   5.139   9.000 -0.0044 -0.3046  0.0559
14929SOL    HW145365   5.947   5.199   9.040  0.2449  0.3099 -1.1775
14929SOL    HW245366   5.925   5.053   9.003  1.2170  0.1941 -1.3102
14930SOL     OW45367   6.384   4.424   0.979 -0.2669 -0.2652 -0.0714
14930SOL    HW145368   6.319   4.436   1.048 -0.1067  0.2661 -0.0107
14930SOL    HW245369   6.369   4.496   0.919 -0.0270 -0.3982 -0.2926
14931SOL     OW45370   5.284   3.566   6.078 -0.1725 -0.7899 -0.3833
14931SOL    HW145371   5.217   3.616   6.124  0.5774 -1.8124  1.9899
14931SOL    HW245372   5.245   3.547   5.992 -1.7597  0.9977 -0.1274
14932SOL     OW45373   1.724   3.329   1.469  0.0430  0.0137 -0.0454
14932SOL    HW145374   1.741   3.389   1.541  0.4563  0.2145 -0.3050
14932SOL    HW245375   1.669   3.379   1.408  1.4756  0.6029 -0.8910
14933SOL     OW45376   6.370   7.469   7.594  0.6438  0.1354 -0.7336
14933SOL    HW145377   6.336   7.455   7.682  2.1071  0.2467 -0.1143
14933SOL    HW245378   6.447   7.412   7.589  1.6362  1.4917 -1.2778
14934SOL     OW45379   8.183   5.134   3.025  0.0188 -0.1272 -0.1059
14934SOL    HW145380   8.260   5.190   3.010  1.4356 -1.8182  0.4446
14934SOL    HW245381   8.197   5.099   3.113 -1.4743 -0.3845  0.0457
14935SOL     OW45382   7.690   6.761   3.862  0.2609  0.2256  0.2226
14935SOL    HW145383   7.595   6.769   3.859 -0.0391 -1.6289  2.2546
14935SOL    HW245384   7.720   6.841   3.905 -0.4420  0.4677  0.2668
14936SOL     OW45385   8.569   0.052   5.199 -0.3728  0.1126 -0.4609
14936SOL    HW145386   8.601   0.017   5.115  0.8809  0.4084 -0.1199
14936SOL    HW245387   8.550   0.144   5.180  1.3344  0.5754 -0.0848
14937SOL     OW45388   7.182   7.458   4.649  0.6128  0.1402 -0.1173
14937SOL    HW145389   7.201   7.372   4.685  3.4736  0.0845 -1.4853
14937SOL    HW245390   7.137   7.505   4.719  0.7054 -1.8406  1.3261
14938SOL     OW45391   5.563   2.727   7.578  0.8410  0.6098  0.1352
14938SOL    HW145392   5.486   2.778   7.552 -1.0059 -1.3970  1.3222
14938SOL    HW245393   5.578   2.667   7.505  0.3238 -0.0034  0.5256
14939SOL     OW45394   5.211   1.411   6.122  0.1714 -0.0773 -0.5179
14939SOL    HW145395   5.264   1.394   6.044 -0.6239  0.5800 -1.2100
14939SOL    HW245396   5.186   1.502   6.115 -1.9801 -0.6488 -0.7738
14940SOL     OW45397   8.346   2.880   7.937  0.1059  0.3678  0.8954
14940SOL    HW145398   8.372   2.968   7.913 -0.6012  0.1108 -0.9302
14940SOL    HW245399   8.269   2.892   7.993 -0.0077  0.9116  0.6256
14941SOL     OW45400   5.650   3.658   1.363 -0.0233 -0.4742  0.3985
14941SOL    HW145401   5.687   3.712   1.293 -0.4938 -1.6996 -0.8566
14941SOL    HW245402   5.722   3.601   1.390 -0.2985 -1.2288 -0.3846
14942SOL     OW45403   2.879   4.727   1.258  0.2826  0.3470  0.0497
14942SOL    HW145404   2.919   4.658   1.205  0.0116  1.0837 -1.1707
14942SOL    HW245405   2.952   4.762   1.310  1.0765  0.9845 -1.3928
14943SOL     OW45406   6.842   2.530   1.084  0.0010 -0.8134  0.0424
14943SOL    HW145407   6.748   2.544   1.096  0.0763 -0.2194 -0.0296
14943SOL    HW245408   6.875   2.615   1.054  0.3189 -1.4192 -1.3996
14944SOL     OW45409   5.526   9.644   3.866  0.4990 -0.4169 -0.1409
14944SOL    HW145410   5.507   9.562   3.821 -2.1725 -0.0693  0.1522
14944SOL    HW245411   5.610   9.673   3.831  0.7850 -2.5356 -1.3251
14945SOL     OW45412   1.605   8.999   1.991 -0.1173 -0.1822  0.2329
14945SOL    HW145413   1.598   9.072   1.930 -1.2935  0.4776  1.1078
14945SOL    HW245414   1.653   8.931   1.943  0.2761  0.8576 -0.8766
14946SOL     OW45415   2.713   2.541   5.981 -0.1749  0.4044 -0.1186
14946SOL    HW145416   2.727   2.446   5.986 -2.3433  0.0780  0.8897
14946SOL    HW245417   2.753   2.574   6.062 -1.3331  0.0416  0.6240
14947SOL     OW45418   6.656   2.037   8.385  0.4776  0.5804  0.3231
14947SOL    HW145419   6.669   1.944   8.367 -2.0602  0.2285 -0.0481
14947SOL    HW245420   6.724   2.081   8.333  0.8006 -0.9963 -0.6564
14948SOL     OW45421   1.292   0.641   6.235  0.1872 -0.0113 -0.8872
14948SOL    HW145422   1.254   0.591   6.163 -0.9223 -0.7288  0.1655
14948SOL    HW245423   1.324   0.722   6.194  0.8033 -0.9671 -2.3958
14949SOL     OW45424   8.036   2.745   5.403  0.1655 -0.4415 -0.5462
14949SOL    HW145425   8.130   2.741   5.417 -0.0343 -0.1582  1.0285
14949SOL    HW245426   8.000   2.676   5.458 -0.5777 -0.2236 -0.7447
14950SOL     OW45427   2.864   8.840   0.337 -0.2893  0.3646 -0.3003
14950SOL    HW145428   2.892   8.928   0.309  0.7412 -0.1880 -1.1184
14950SOL    HW245429   2.945   8.799   0.368 -0.7674 -0.2908  0.0813
14951SOL     OW45430   6.091   8.777   2.206  0.0430 -0.1115 -0.2268
14951SOL    HW145431   6.090   8.739   2.118 -2.3251  0.7072 -0.6328
14951SOL    HW245432   6.183   8.777   2.232  0.7167 -0.9493 -2.4418
14952SOL     OW45433   9.881   5.888   0.672  0.5965  0.0175 -0.0995
14952SOL    HW145434   9.809   5.950   0.666  0.5949  0.0123 -0.1370
14952SOL    HW245435   9.855   5.815   0.616  0.2879 -0.3290  0.4796
14953SOL     OW45436   1.510   7.155   0.233 -0.1910  0.0681 -0.2531
14953SOL    HW145437   1.483   7.133   0.322 -0.0389  0.3760 -0.1293
14953SOL    HW245438   1.523   7.070   0.190 -1.5411 -0.0880 -0.3773
14954SOL     OW45439   4.303   3.639   0.843 -0.2192 -0.1514 -0.1780
14954SOL    HW145440   4.231   3.634   0.906 -0.5328  1.6810 -0.3426
14954SOL    HW245441   4.382   3.621   0.896 -0.4636  1.4865  0.8117
14955SOL     OW45442   4.398   9.587   0.118 -0.0072  0.6556  0.3326
14955SOL    HW145443   4.349   9.613   0.195 -1.9945 -0.1063 -0.5971
14955SOL    HW245444   4.403   9.491   0.123 -1.1514  0.4825 -0.9702
14956SOL     OW45445   2.553   0.429   8.172  0.1058  0.0686  0.0645
14956SOL    HW145446   2.472   0.431   8.121  0.6450 -0.0722 -0.8107
14956SOL    HW245447   2.603   0.356   8.137  0.2214 -0.4371  1.2330
14957SOL     OW45448   7.501   2.007   3.287 -0.6724 -0.0626  0.0563
14957SOL    HW145449   7.473   1.923   3.323 -2.1486  0.0928 -0.6733
14957SOL    HW245450   7.596   2.001   3.284 -0.7658 -3.3024 -3.6382
14958SOL     OW45451   4.088   9.931   6.540  0.0766 -0.1406 -0.3356
14958SOL    HW145452   4.111   9.939   6.632  1.0233  0.2904 -0.5926
14958SOL    HW245453   4.038  10.011   6.520  2.0206  1.0383 -0.7742
14959SOL     OW45454   2.015   1.976   0.563 -0.2585  0.2672  0.1984
14959SOL    HW145455   2.084   1.973   0.497  0.3651  0.2001  0.8449
14959SOL    HW245456   1.957   2.046   0.534 -0.9329 -0.8740 -1.3230
14960SOL     OW45457   3.427   8.428   9.736 -0.1250 -0.1883  0.3405
14960SOL    HW145458   3.489   8.381   9.792 -0.9740 -0.5074  1.0358
14960SOL    HW245459   3.483   8.477   9.675  0.9279  1.4474  2.4554
14961SOL     OW45460   0.017   2.354   5.869 -0.5753  0.1882  0.2524
14961SOL    HW145461   0.085   2.355   5.936  0.2200 -0.8255 -0.4983
14961SOL    HW245462   0.002   2.261   5.852 -0.9318  0.4206 -0.7846
14962SOL     OW45463   2.364   8.329   9.191  0.1935 -0.1621  0.1193
14962SOL    HW145464   2.351   8.412   9.237 -1.5256 -1.1937  1.6747
14962SOL    HW245465   2.276   8.306   9.159  0.7993 -0.9893 -1.0138
14963SOL     OW45466   9.541   8.060   4.590 -0.4173  0.4895  0.0297
14963SOL    HW145467   9.511   8.123   4.525 -0.4555 -0.1290 -0.5677
14963SOL    HW245468   9.633   8.043   4.566 -0.2449  0.7328  0.5176
14964SOL     OW45469   2.551   4.546   3.534 -0.7021 -0.5836 -0.0405
14964SOL    HW145470   2.523   4.637   3.527  0.5374 -0.0368  1.5027
14964SOL    HW245471   2.471   4.495   3.516 -1.1694  0.7392 -2.0103
14965SOL     OW45472   2.148   8.489   3.112 -0.1731 -0.1760  0.2120
14965SOL    HW145473   2.234   8.459   3.139 -0.2041 -1.1232 -0.6830
14965SOL    HW245474   2.095   8.409   3.107 -0.5120  0.1102 -1.2997
14966SOL     OW45475   0.692   9.519   2.792  0.1961  0.3206  0.1103
14966SOL    HW145476   0.722   9.578   2.861 -1.0165 -0.6413  1.5069
14966SOL    HW245477   0.729   9.434   2.816 -0.3413 -0.0503 -0.3639
14967SOL     OW45478   0.127   8.025   0.333 -0.3774 -0.2081  0.2921
14967SOL    HW145479   0.218   8.057   0.332 -0.9057  1.4352 -1.6413
14967SOL    HW245480   0.074   8.104   0.340 -1.7287 -1.1999  2.6203
14968SOL     OW45481   4.665   3.081   7.948 -0.0320  0.1142  0.3836
14968SOL    HW145482   4.664   2.985   7.950 -1.2481  0.1243  0.9011
14968SOL    HW245483   4.667   3.103   7.855  1.6256 -0.3933  0.2607
14969SOL     OW45484   9.923   4.845   6.807  0.4027 -0.6676 -0.2768
14969SOL    HW145485   9.951   4.935   6.819 -1.4068 -0.1332  0.1544
14969SOL    HW245486   9.841   4.851   6.758  0.1364 -2.0709 -0.0560
14970SOL     OW45487   4.081   2.068   6.619 -0.4748  0.6841  0.3372
14970SOL    HW145488   4.043   2.012   6.551  1.3251  1.2107 -1.2046
14970SOL    HW245489   4.132   2.008   6.673 -2.7209  0.1008  1.9366
14971SOL     OW45490   6.286   9.149   7.790 -0.4625  0.0280  0.7344
14971SOL    HW145491   6.290   9.060   7.825  2.4710 -0.2475 -0.0528
14971SOL    HW245492   6.374   9.183   7.800 -1.3896  2.7296  0.5724
14972SOL     OW45493   2.946   4.310   8.064  0.4725 -0.1539 -0.7915
14972SOL    HW145494   2.959   4.375   8.133  0.9493  1.2805 -2.1926
14972SOL    HW245495   2.857   4.326   8.032 -0.1587 -1.5335  0.1685
14973SOL     OW45496   3.006   3.203   5.113  0.0433  0.4750  0.4289
14973SOL    HW145497   3.086   3.233   5.070  1.4134 -0.8612  1.9223
14973SOL    HW245498   2.958   3.157   5.044  0.6812  1.0326 -0.4146
14974SOL     OW45499   6.813   6.706   9.076  0.1077 -0.3795 -0.4995
14974SOL    HW145500   6.857   6.679   9.156 -0.0881  2.4764  0.6750
14974SOL    HW245501   6.720   6.703   9.098  0.0926  2.5147  0.2633
14975SOL     OW45502   9.118   7.361   5.342  0.4379 -0.1330 -0.3486
14975SOL    HW145503   9.178   7.294   5.310  0.4805 -0.4408  0.3579
14975SOL    HW245504   9.089   7.329   5.428 -0.1682  0.3613 -0.3582
14976SOL     OW45505   5.698   0.383   6.893  0.3295  0.1961  0.6182
14976SOL    HW145506   5.624   0.351   6.842  0.9980 -3.5204  1.6562
14976SOL    HW245507   5.659   0.423   6.971 -0.5786  2.0215 -0.7133
14977SOL     OW45508   4.511   8.136   5.752 -0.0669 -0.3281  0.2164
14977SOL    HW145509   4.531   8.197   5.681 -1.8968  1.5339  1.2072
14977SOL    HW245510   4.417   8.143   5.765 -0.1441 -2.4185  1.2733
14978SOL     OW45511   8.547   1.087   8.628  0.4263 -0.1311 -0.2321
14978SOL    HW145512   8.611   1.107   8.697  1.1643 -0.7718 -0.7158
14978SOL    HW245513   8.600   1.054   8.555 -0.3607  0.3834 -1.0518
14979SOL     OW45514   7.982   2.509   0.138  0.0008 -0.0930 -0.1832
14979SOL    HW145515   8.060   2.558   0.111  0.5002  0.1744  1.6131
14979SOL    HW245516   8.007   2.470   0.222 -1.0652 -1.8206 -0.6248
14980SOL     OW45517   5.011   4.735   9.406  0.0729 -0.5215  0.7177
14980SOL    HW145518   5.102   4.729   9.377  0.4129 -0.5307  1.7542
14980SOL    HW245519   4.999   4.660   9.464 -0.6456 -0.6082  0.4676
14981SOL     OW45520   8.841   9.655   5.157 -0.7203 -0.0345  0.2618
14981SOL    HW145521   8.760   9.639   5.109 -0.2134 -1.0057 -0.2971
14981SOL    HW245522   8.864   9.571   5.196 -0.0182  0.2427  0.4703
14982SOL     OW45523   1.383   6.858   3.896  0.7623 -0.3921  0.6689
14982SOL    HW145524   1.455   6.804   3.930 -0.0908 -0.4187  2.5219
14982SOL    HW245525   1.315   6.795   3.872  0.1982 -0.2211  1.7810
14983SOL     OW45526   9.806   5.037   0.293 -0.1851  0.0959  0.0016
14983SOL    HW145527   9.889   5.067   0.256 -0.4402  0.0189 -0.6511
14983SOL    HW245528   9.747   5.032   0.217 -1.0966  1.2251  0.6104
14984SOL     OW45529   5.913   1.027   3.319 -0.7678 -0.2678 -0.5163
14984SOL    HW145530   5.848   1.005   3.252 -0.8660  0.9976 -0.8474
14984SOL    HW245531   5.991   1.052   3.269 -1.1592  1.6778 -0.2016
14985SOL     OW45532   7.791   6.613   4.742  0.3717  0.0271 -0.6952
14985SOL    HW145533   7.799   6.646   4.831  1.2290  0.6428 -0.9875
14985SOL    HW245534   7.750   6.528   4.751  0.2795  0.1721  0.2746
14986SOL     OW45535   6.545   2.063   1.018 -0.6988  0.5758 -0.4621
14986SOL    HW145536   6.512   2.027   0.936 -0.8324  0.6378 -0.4361
14986SOL    HW245537   6.484   2.030   1.085 -0.6582  0.6199 -0.4037
14987SOL     OW45538   6.599   9.604   2.460 -0.5250 -0.1277 -0.3609
14987SOL    HW145539   6.599   9.627   2.553 -0.1113 -0.2367 -0.3319
14987SOL    HW245540   6.670   9.656   2.422 -2.1189  1.6578 -1.0669
14988SOL     OW45541   4.497   2.186   0.402  0.0738  0.2013 -0.3485
14988SOL    HW145542   4.484   2.150   0.315  0.1257  1.5392 -0.9368
14988SOL    HW245543   4.518   2.110   0.457  0.9563 -0.5484 -1.6703
14989SOL     OW45544   8.013   8.603   0.953  0.5631 -0.2945 -0.3824
14989SOL    HW145545   7.926   8.639   0.936 -0.1288 -1.9847 -0.6470
14989SOL    HW245546   8.018   8.599   1.049  0.1687 -0.5791 -0.3693
14990SOL     OW45547   8.958   6.732   6.802  0.2015  0.5463 -0.0638
14990SOL    HW145548   9.036   6.779   6.773  0.6650 -0.1022  0.0883
14990SOL    HW245549   8.963   6.647   6.757 -0.4008  0.4864 -0.0315
14991SOL     OW45550   5.708   2.039   6.945 -0.3899  0.3921 -0.4654
14991SOL    HW145551   5.719   2.125   6.903 -0.1283  0.3035 -0.5796
14991SOL    HW245552   5.651   1.991   6.885  1.2208 -0.2743 -1.5237
14992SOL     OW45553   3.343   0.619   3.117 -0.4196 -0.0255  0.0924
14992SOL    HW145554   3.428   0.588   3.085 -0.1970  0.7633 -0.1227
14992SOL    HW245555   3.283   0.603   3.045 -0.0004  1.3750 -0.6192
14993SOL     OW45556   1.572   4.014   7.438  0.2538 -0.5054 -0.1036
14993SOL    HW145557   1.515   3.969   7.499  1.0476 -0.3904  0.7398
14993SOL    HW245558   1.632   3.947   7.405  0.0071 -0.5113 -0.5498
14994SOL     OW45559   8.287   9.309   9.904  0.3431 -0.9509  0.4571
14994SOL    HW145560   8.254   9.361   9.831 -0.7276  0.0647  1.6252
14994SOL    HW245561   8.374   9.346   9.923  0.6585 -1.2747 -0.3418
14995SOL     OW45562   9.977   5.578   7.341 -0.4043 -0.0987 -0.3079
14995SOL    HW145563   9.954   5.636   7.413  3.3424  2.9096 -1.2470
14995SOL    HW245564   9.985   5.491   7.381 -1.1144  0.9426  2.2483
14996SOL     OW45565   4.982   2.128   2.428  0.1055  0.4708 -0.2631
14996SOL    HW145566   5.002   2.112   2.520  0.9800  1.1749 -0.3154
14996SOL    HW245567   5.001   2.045   2.384  0.1022  0.2635  0.1265
14997SOL     OW45568   0.304   3.501   0.337  0.1785  0.5250  0.0287
14997SOL    HW145569   0.249   3.573   0.368  0.1915 -0.0001  1.3172
14997SOL    HW245570   0.381   3.503   0.394 -0.4375 -1.3285  1.0040
14998SOL     OW45571   6.024   2.191   6.277 -0.2026 -0.0267 -0.3875
14998SOL    HW145572   5.956   2.228   6.333  1.3590  1.9589  0.2902
14998SOL    HW245573   6.037   2.102   6.310 -0.5388  0.5170  1.2677
14999SOL     OW45574   2.069   2.405   9.580 -0.0050  0.3141  0.4893
14999SOL    HW145575   2.129   2.456   9.526  1.2396 -1.3942  0.1714
14999SOL    HW245576   1.993   2.390   9.525 -0.3935  1.7576  0.5858
15000SOL     OW45577   9.821   0.680   2.173  0.2891  0.4820  0.2417
15000SOL    HW145578   9.821   0.629   2.254 -0.0730  0.8427  0.4738
15000SOL    HW245579   9.730   0.677   2.143  0.6504 -0.6867 -0.8268
15001SOL     OW45580   1.786   0.532   2.773 -0.9170 -0.2703  0.0886
15001SOL    HW145581   1.850   0.479   2.821  0.1614  0.6050 -0.3364
15001SOL    HW245582   1.707   0.478   2.771 -0.1225 -1.4884  0.4183
15002SOL     OW45583   1.375   5.150   0.538  0.3398  0.1797  0.1103
15002SOL    HW145584   1.324   5.213   0.488 -0.9317 -1.3142 -0.5278
15002SOL    HW245585   1.449   5.129   0.482 -0.7638 -1.0350 -0.9486
15003SOL     OW45586   2.296   2.718   2.440 -0.0550 -0.1119 -0.5567
15003SOL    HW145587   2.352   2.783   2.398 -0.6314  0.5803 -0.2734
15003SOL    HW245588   2.221   2.768   2.473  0.0048 -0.7515  0.6016
15004SOL     OW45589   5.716   6.428   8.136 -0.3953 -0.5469  0.3082
15004SOL    HW145590   5.773   6.496   8.099 -0.5314 -0.4678  0.2414
15004SOL    HW245591   5.636   6.475   8.161  0.1103 -0.4046  1.7149
15005SOL     OW45592   9.568   9.412   7.652  0.0300 -0.4107 -0.4082
15005SOL    HW145593   9.593   9.494   7.695  0.2567 -0.4067 -0.5411
15005SOL    HW245594   9.592   9.344   7.715  3.2106 -0.6301 -1.6642
15006SOL     OW45595   5.457   8.298   8.958  0.0235 -0.3503 -0.2756
15006SOL    HW145596   5.470   8.393   8.965 -0.3185 -0.2489 -0.9159
15006SOL    HW245597   5.429   8.271   9.045 -0.1140  0.1756 -0.1515
15007SOL     OW45598   3.487   6.493   4.686 -0.3208  0.2539 -0.4047
15007SOL    HW145599   3.559   6.496   4.623 -0.8344  0.1287 -1.0023
15007SOL    HW245600   3.463   6.401   4.691 -1.9306  0.5323 -1.9478
15008SOL     OW45601   3.009   3.265   7.731  0.0838  0.6165 -0.3156
15008SOL    HW145602   3.103   3.258   7.748  0.0941  0.6400 -0.3608
15008SOL    HW245603   2.987   3.354   7.756 -0.0916  0.3523  0.4811
15009SOL     OW45604   3.199   1.646   9.380  0.1759  0.2709 -0.5025
15009SOL    HW145605   3.169   1.608   9.297 -3.1126  1.6982 -0.1408
15009SOL    HW245606   3.263   1.712   9.354 -0.3971  0.3159 -1.9001
15010SOL     OW45607   6.536   2.994   9.633 -0.7998  0.6490 -0.6693
15010SOL    HW145608   6.513   3.013   9.542 -2.4753  0.2817 -0.3513
15010SOL    HW245609   6.472   3.042   9.685 -0.8780 -0.4415  0.2776
15011SOL     OW45610   0.931   7.109   1.569  0.2920  0.6784 -0.2201
15011SOL    HW145611   0.954   7.076   1.482  0.7813 -0.1492  0.2117
15011SOL    HW245612   0.924   7.203   1.558 -2.9770  0.3792 -1.9206
15012SOL     OW45613   1.864   5.672   8.059  0.5710 -0.5447  0.3724
15012SOL    HW145614   1.879   5.579   8.039  1.1817 -0.4640  0.4230
15012SOL    HW245615   1.871   5.677   8.154  2.0664 -0.2060  0.2715
15013SOL     OW45616   5.796   5.607   6.625 -0.2285  0.5502  0.2739
15013SOL    HW145617   5.702   5.621   6.629 -0.2263  0.3043  2.6405
15013SOL    HW245618   5.827   5.626   6.713  1.8496 -0.0385 -0.2726
15014SOL     OW45619   1.242   2.854   8.444 -0.2145 -0.0944  0.1756
15014SOL    HW145620   1.177   2.919   8.418  0.6877  1.8793  2.4168
15014SOL    HW245621   1.326   2.897   8.427  0.5774 -2.2947 -1.9920
15015SOL     OW45622   6.928   8.009   1.692  0.5143 -0.5739 -0.5534
15015SOL    HW145623   6.953   8.058   1.613  2.0061 -0.4335 -0.0260
15015SOL    HW245624   7.007   8.009   1.745  0.0974 -2.3181  0.1036
15016SOL     OW45625   3.839   3.900   6.675 -0.1611  0.0254 -0.8143
15016SOL    HW145626   3.894   3.978   6.672  0.2148 -0.2153 -0.4722
15016SOL    HW245627   3.757   3.926   6.634  0.8219 -0.0993 -3.0437
15017SOL     OW45628   3.001   1.520   1.472 -0.4328 -0.1742 -0.3882
15017SOL    HW145629   2.990   1.586   1.540  1.3190  1.3783 -1.5112
15017SOL    HW245630   3.050   1.449   1.514 -0.6618  0.0867  0.3303
15018SOL     OW45631   4.606   2.066   6.050  0.4004  0.0802  0.3627
15018SOL    HW145632   4.537   2.065   5.983  2.0698 -0.0645 -1.4810
15018SOL    HW245633   4.622   2.159   6.066 -0.6601  0.1181  1.3362
15019SOL     OW45634   9.259   9.376   4.427 -0.2198  0.5858  0.0382
15019SOL    HW145635   9.306   9.347   4.348 -0.1600 -1.3943  0.7520
15019SOL    HW245636   9.325   9.377   4.496 -0.2265  2.5130  0.0701
15020SOL     OW45637   8.858   9.089   3.999 -0.2029  0.3229  0.5263
15020SOL    HW145638   8.884   9.125   4.083 -0.7544 -0.8577  1.2293
15020SOL    HW245639   8.776   9.042   4.016 -0.5624  0.4230 -0.7550
15021SOL     OW45640   9.274   8.687   0.769 -0.2491 -0.1321  0.2293
15021SOL    HW145641   9.256   8.610   0.823 -0.5753 -0.0101  0.2955
15021SOL    HW245642   9.300   8.651   0.684 -2.7331 -0.3210 -0.5123
15022SOL     OW45643   4.774   3.834  -0.023  0.3858  0.5360 -0.2735
15022SOL    HW145644   4.682   3.811  -0.013  0.3098 -0.0215 -1.9651
15022SOL    HW245645   4.788   3.904   0.042 -0.8969 -0.1696  0.8238
15023SOL     OW45646   5.869   3.567   9.697 -0.3133 -0.0479 -0.0093
15023SOL    HW145647   5.912   3.484   9.720  1.6405  0.5939 -1.1336
15023SOL    HW245648   5.888   3.578   9.604  0.5812  2.2795  0.3986
15024SOL     OW45649   5.036   7.228   1.000 -0.2332 -0.5296 -0.7882
15024SOL    HW145650   4.977   7.168   0.953 -2.1873  1.1507 -0.6091
15024SOL    HW245651   5.061   7.179   1.078  0.1023 -1.9698 -1.7505
15025SOL     OW45652   7.057   2.320   6.223 -0.4676  0.2764  0.1001
15025SOL    HW145653   7.072   2.360   6.309  2.5376 -0.4910  0.0631
15025SOL    HW245654   6.963   2.304   6.220 -1.4688  4.7179  1.1996
15026SOL     OW45655   5.511   6.450   0.056  0.0690 -0.1829 -0.0639
15026SOL    HW145656   5.583   6.420   0.113  1.5619  1.5271 -0.9610
15026SOL    HW245657   5.456   6.373   0.046  1.8651 -1.6322  0.5239
15027SOL     OW45658   7.747   4.973   6.066  0.0617  0.0630 -0.1783
15027SOL    HW145659   7.783   5.029   5.997  0.0887 -1.0383 -1.0755
15027SOL    HW245660   7.709   4.899   6.020 -0.7137 -0.2689  0.9459
15028SOL     OW45661   4.805   2.304   9.736  0.3199 -0.2234 -0.3617
15028SOL    HW145662   4.829   2.388   9.775 -1.2358  0.1040 -0.0410
15028SOL    HW245663   4.874   2.286   9.672  1.7445  0.3207  0.9482
15029SOL     OW45664   5.112   8.158   1.082  0.0727 -0.2611 -0.8675
15029SOL    HW145665   5.029   8.133   1.041 -0.2018  0.2444 -0.6327
15029SOL    HW245666   5.145   8.078   1.121 -0.6329 -0.3278 -0.3909
15030SOL     OW45667   1.046   3.352   8.511 -0.3499 -0.1246  0.5307
15030SOL    HW145668   0.975   3.288   8.504 -1.0531  0.8311 -1.5914
15030SOL    HW245669   1.003   3.434   8.531  0.4166  0.0294  1.6627
15031SOL     OW45670   0.635   0.653   3.328  0.0974 -0.3135  0.4569
15031SOL    HW145671   0.730   0.643   3.336  0.3094  0.8625 -0.2837
15031SOL    HW245672   0.616   0.624   3.238 -0.1768 -0.0667  0.4357
15032SOL     OW45673   3.864   3.425   7.634 -0.1135  0.3606 -0.1028
15032SOL    HW145674   3.794   3.477   7.595  0.6009 -0.0429 -2.0201
15032SOL    HW245675   3.899   3.480   7.704 -0.4486  1.7675 -1.0144
15033SOL     OW45676   3.795   0.761   9.341 -0.5950  0.2012 -0.5762
15033SOL    HW145677   3.753   0.845   9.326 -2.1817 -0.5320 -0.4374
15033SOL    HW245678   3.829   0.736   9.255 -1.8453  0.0987 -1.0561
15034SOL     OW45679   2.985   8.200   9.516 -0.5051  0.1007  1.0208
15034SOL    HW145680   2.925   8.252   9.570 -0.9599  0.8693 -0.1624
15034SOL    HW245681   2.960   8.222   9.426 -0.0582 -1.4582  0.4835
15035SOL     OW45682   9.305   6.508   2.456 -0.2517  0.0115 -0.1399
15035SOL    HW145683   9.323   6.588   2.406  0.7539  0.7041  1.2708
15035SOL    HW245684   9.217   6.520   2.490 -0.3633  0.2045 -0.4926
15036SOL     OW45685   2.249   2.293   7.974  0.5936  0.0831  0.1020
15036SOL    HW145686   2.307   2.323   7.904  0.6020 -1.9386 -0.8125
15036SOL    HW245687   2.165   2.334   7.954  0.4190 -0.9850 -1.5294
15037SOL     OW45688   0.806   3.385   0.471  1.0958 -0.2287 -0.1436
15037SOL    HW145689   0.828   3.377   0.564 -0.6404  0.0271  0.3438
15037SOL    HW245690   0.839   3.305   0.431 -0.4628 -1.6569  1.2388
15038SOL     OW45691   7.411   1.994   1.438  0.1373  0.1187 -0.1082
15038SOL    HW145692   7.493   2.042   1.452  0.3743 -0.1971 -0.3923
15038SOL    HW245693   7.438   1.915   1.391 -0.0838 -0.8811  1.3578
15039SOL     OW45694   5.457   0.105   5.549 -0.1734  0.0815  0.2401
15039SOL    HW145695   5.490   0.184   5.591  1.9773 -0.8909  0.5013
15039SOL    HW245696   5.428   0.049   5.622 -0.4115  0.0745  0.1426
15040SOL     OW45697   9.591   5.903   5.618 -0.2692 -0.3674 -0.5655
15040SOL    HW145698   9.593   5.931   5.526 -0.8648  1.8995  0.0381
15040SOL    HW245699   9.683   5.900   5.644 -0.1187 -0.4963 -1.0939
15041SOL     OW45700   6.777   6.329   4.022 -0.3632 -0.1253 -0.6386
15041SOL    HW145701   6.756   6.337   3.929 -0.3198  1.3127 -0.5461
15041SOL    HW245702   6.845   6.263   4.025 -2.2910 -2.2731 -1.3169
15042SOL     OW45703   4.854   8.106   2.585  0.1829 -0.1689  0.0025
15042SOL    HW145704   4.782   8.043   2.596  0.3196 -0.4679 -0.7625
15042SOL    HW245705   4.833   8.177   2.646 -1.3038  0.2214 -0.9106
15043SOL     OW45706   2.544   8.056   4.134 -0.6923  0.1226  0.0124
15043SOL    HW145707   2.536   7.961   4.132  0.1643 -0.0237  1.7134
15043SOL    HW245708   2.537   8.083   4.042  1.5770 -1.8017 -0.8157
15044SOL     OW45709   5.943   2.138   7.770 -0.1970 -0.2809 -0.5293
15044SOL    HW145710   6.018   2.129   7.710 -1.1680 -0.9215 -1.6886
15044SOL    HW245711   5.911   2.049   7.782 -1.1226  0.0408 -0.5212
15045SOL     OW45712   6.764   7.589   5.842 -0.2127  0.2673 -0.0222
15045SOL    HW145713   6.806   7.504   5.826  0.8550  0.2852  2.2754
15045SOL    HW245714   6.772   7.602   5.937 -3.7543  1.1960  0.2930
15046SOL     OW45715   4.339   9.704   7.121  0.3860  0.3504 -0.1025
15046SOL    HW145716   4.401   9.640   7.087 -0.3538  0.3133 -1.4720
15046SOL    HW245717   4.380   9.739   7.200  0.5154 -2.2822  1.0877
15047SOL     OW45718   9.729   8.747   5.603 -0.8237  0.7481 -0.4734
15047SOL    HW145719   9.694   8.659   5.618  1.0661 -0.0050 -0.2150
15047SOL    HW245720   9.674   8.804   5.658 -1.7946 -0.3060 -0.2986
15048SOL     OW45721   6.299   2.301   6.187 -0.1777 -0.2525  0.2814
15048SOL    HW145722   6.292   2.336   6.098 -0.1417  0.8223  0.6858
15048SOL    HW245723   6.219   2.250   6.199 -0.6585  0.4120 -0.0308
15049SOL     OW45724   6.375   0.611   4.374 -0.3199 -0.1556  0.6355
15049SOL    HW145725   6.284   0.587   4.359 -0.0047 -0.2629 -1.3196
15049SOL    HW245726   6.425   0.551   4.319  0.9310  0.0631  1.4926
15050SOL     OW45727   8.720   3.458   8.296  0.2306  0.0546 -0.2816
15050SOL    HW145728   8.640   3.416   8.327 -0.2003  0.5729 -0.6784
15050SOL    HW245729   8.690   3.529   8.240  0.9702  0.3066 -0.3710
15051SOL     OW45730   6.912   5.877   0.383  0.4454 -0.5213 -0.5186
15051SOL    HW145731   6.911   5.927   0.301 -0.0712 -0.5476 -0.5357
15051SOL    HW245732   6.822   5.844   0.391  0.0289  0.8370  0.9095
15052SOL     OW45733   0.146   3.390   7.185  0.1088 -1.0004  0.5487
15052SOL    HW145734   0.173   3.425   7.270  1.1403  0.1902 -0.2451
15052SOL    HW245735   0.219   3.335   7.157  0.1239 -0.7404  0.0702
15053SOL     OW45736   9.045   5.458   5.064  0.1851  0.0167 -0.0945
15053SOL    HW145737   9.006   5.389   5.118  0.3445 -2.8525 -3.3182
15053SOL    HW245738   9.139   5.446   5.075  0.2241 -0.8106 -1.1837
15054SOL     OW45739   0.338   8.442   6.407  0.0172 -0.5513 -0.1580
15054SOL    HW145740   0.339   8.537   6.408  0.7145 -0.5615  0.1958
15054SOL    HW245741   0.361   8.416   6.496  0.2075 -1.0505 -0.3485
15055SOL     OW45742   7.695   6.024   7.089  0.2692  0.1476 -0.2131
15055SOL    HW145743   7.714   6.067   7.005  0.6812  0.8248  0.2166
15055SOL    HW245744   7.775   5.976   7.110  0.7626  1.2398  0.5336
15056SOL     OW45745   3.030   0.411   6.489 -0.0095  0.1063 -0.8608
15056SOL    HW145746   3.078   0.463   6.425  0.6253 -0.5545 -0.9387
15056SOL    HW245747   2.966   0.362   6.437 -0.2206  0.3708 -0.8543
15057SOL     OW45748   0.580   2.905   2.327 -0.2555  0.1939 -0.2372
15057SOL    HW145749   0.590   3.000   2.338  0.3192  0.0438  0.6970
15057SOL    HW245750   0.601   2.889   2.235 -0.9791  1.0405 -0.5646
15058SOL     OW45751   1.359   1.983   9.353 -0.0995 -0.2343  0.2358
15058SOL    HW145752   1.416   2.002   9.278 -0.0992 -0.7801  0.0903
15058SOL    HW245753   1.400   1.906   9.394 -0.8172 -0.7265  0.0387
15059SOL     OW45754   0.917   1.147   8.878  0.1598  0.0408 -0.1658
15059SOL    HW145755   0.994   1.123   8.826  0.5168  1.6391 -0.4283
15059SOL    HW245756   0.904   1.240   8.860 -0.9165  0.1613  1.0899
15060SOL     OW45757   6.487   2.052   5.777 -0.4186 -0.0709 -0.1131
15060SOL    HW145758   6.455   2.013   5.695  1.2890 -2.7561  0.3615
15060SOL    HW245759   6.485   1.980   5.839  2.4432  0.6885  1.0212
15061SOL     OW45760   2.628   7.030   2.215 -0.1261 -0.0868  0.0965
15061SOL    HW145761   2.712   7.033   2.261  0.7888 -1.5488 -1.3875
15061SOL    HW245762   2.580   6.959   2.259 -0.0838 -0.0865  0.1437
15062SOL     OW45763   2.606   8.361   6.200  0.0417  0.6500  0.2739
15062SOL    HW145764   2.633   8.279   6.158  0.7686  1.3119 -0.5976
15062SOL    HW245765   2.511   8.355   6.205  0.0415 -0.0245 -0.2841
15063SOL     OW45766   4.918   0.409   7.225 -0.5875  0.0006 -0.8583
15063SOL    HW145767   4.994   0.373   7.180 -0.6945 -1.3286 -0.0263
15063SOL    HW245768   4.933   0.390   7.318 -0.3508  2.7136 -0.2469
15064SOL     OW45769   3.342   7.321   8.125  0.0620 -0.1467 -0.5753
15064SOL    HW145770   3.342   7.257   8.054 -0.2522 -0.3380 -0.4042
15064SOL    HW245771   3.282   7.285   8.190 -0.3780  0.4798 -0.6214
15065SOL     OW45772   7.693   9.868   5.355  0.1335  0.4229  0.7836
15065SOL    HW145773   7.637   9.843   5.428 -0.2259 -0.7968  0.1236
15065SOL    HW245774   7.698   9.789   5.301  0.9892  1.0761 -0.1252
15066SOL     OW45775   6.360   8.069   0.063  0.0926 -0.2166 -0.1197
15066SOL    HW145776   6.328   7.982   0.087  0.1956 -0.0642  0.6163
15066SOL    HW245777   6.285   8.127   0.078  0.7546  0.1908  1.9323
15067SOL     OW45778   1.444   8.827   9.235  0.2809  0.1179 -0.6246
15067SOL    HW145779   1.372   8.871   9.279 -0.8054  0.4907 -2.6478
15067SOL    HW245780   1.519   8.885   9.248  0.0627  0.1103  0.8373
15068SOL     OW45781   6.609   7.169   4.459  0.4802  0.3244 -0.6815
15068SOL    HW145782   6.595   7.113   4.383  0.3868 -0.2278 -0.2636
15068SOL    HW245783   6.703   7.191   4.455  0.7083 -0.5603 -0.3818
15069SOL     OW45784   5.680   0.726   4.302 -0.5568 -0.3372 -0.3049
15069SOL    HW145785   5.690   0.814   4.338  0.0803 -1.4833  2.5367
15069SOL    HW245786   5.640   0.740   4.216  0.5297  2.7746 -0.4309
15070SOL     OW45787   8.095   5.673   5.929 -0.1543 -0.0692 -0.1816
15070SOL    HW145788   8.145   5.630   5.998  0.2266  0.9960  0.2235
15070SOL    HW245789   8.088   5.607   5.860  0.9367 -0.5800  0.1766
15071SOL     OW45790   0.786   4.505   6.737 -0.6306 -0.8350 -0.4510
15071SOL    HW145791   0.712   4.531   6.790  1.2179  0.7971  1.5081
15071SOL    HW245792   0.795   4.575   6.672  0.7545  0.4756  1.0587
15072SOL     OW45793   5.965   1.940   4.572 -0.1474  0.1188 -0.7922
15072SOL    HW145794   6.051   1.962   4.536  0.6652 -2.3880 -0.6109
15072SOL    HW245795   5.940   1.859   4.527 -1.7883  0.0611  0.1295
15073SOL     OW45796   0.243   1.215   6.982  0.1213 -0.2588 -0.1406
15073SOL    HW145797   0.332   1.252   6.979  0.6804 -1.5139  0.3113
15073SOL    HW245798   0.255   1.123   6.959 -1.0886 -0.4268 -0.1452
15074SOL     OW45799   5.990   2.865   3.898  0.1435 -0.1652 -0.1870
15074SOL    HW145800   5.981   2.943   3.843  1.0306 -0.1364 -0.3163
15074SOL    HW245801   6.007   2.900   3.986  1.4740 -0.1780 -0.4076
15075SOL     OW45802   9.833   9.572   1.304  0.1311 -0.8374  0.0601
15075SOL    HW145803   9.848   9.540   1.215  0.3940 -0.7584  0.0762
15075SOL    HW245804   9.884   9.515   1.360 -2.4011 -2.8649  0.4961
15076SOL     OW45805   4.439   6.766   5.265  0.0422 -0.3899  0.0029
15076SOL    HW145806   4.529   6.762   5.296 -0.1323  0.7952  0.7607
15076SOL    HW245807   4.444   6.749   5.171  1.0110 -0.6430  0.0964
15077SOL     OW45808   5.070   5.656   0.023 -0.7938 -0.2090  0.2565
15077SOL    HW145809   5.011   5.729   0.005  0.6153  1.2319  1.2136
15077SOL    HW245810   5.019   5.597   0.079 -1.3622  0.9657  1.0149
15078SOL     OW45811   3.130   7.657   0.265 -0.3915 -0.0066  0.1233
15078SOL    HW145812   3.044   7.630   0.296  0.3962 -0.1074  2.3655
15078SOL    HW245813   3.191   7.631   0.334  1.6151 -0.8479 -1.8328
15079SOL     OW45814   3.093   7.580   2.124 -0.4878  0.5854  0.1202
15079SOL    HW145815   3.188   7.572   2.132 -0.4119  1.2775 -0.0393
15079SOL    HW245816   3.069   7.653   2.182 -0.7261  1.3694 -0.9282
15080SOL     OW45817   6.857   6.422   5.226 -0.2498 -0.1895  0.2434
15080SOL    HW145818   6.918   6.496   5.222  0.0695 -0.5016 -1.1416
15080SOL    HW245819   6.792   6.441   5.158 -1.6092  0.0317  1.5476
15081SOL     OW45820   0.341   9.018   4.294  0.2217 -0.1955  0.0015
15081SOL    HW145821   0.382   9.069   4.224  0.3898  0.2260  0.3990
15081SOL    HW245822   0.415   8.976   4.339  0.0693 -0.9593 -0.4489
15082SOL     OW45823   1.657   5.357   6.377  0.2813  0.2005 -0.3079
15082SOL    HW145824   1.648   5.275   6.328  0.0137 -0.1857  0.3844
15082SOL    HW245825   1.567   5.385   6.394  0.3446 -0.4860  1.3103
15083SOL     OW45826   5.284   0.490   8.579  0.3628  0.3930  0.0926
15083SOL    HW145827   5.254   0.578   8.600 -0.9210 -0.1928  0.8549
15083SOL    HW245828   5.226   0.461   8.509 -0.7216 -0.6330  1.3564
15084SOL     OW45829   7.095   3.884   6.808 -0.2592  0.4836  0.1710
15084SOL    HW145830   7.010   3.840   6.816  0.3358 -0.4801  1.8963
15084SOL    HW245831   7.077   3.963   6.758 -1.9639 -0.2283 -0.4132
15085SOL     OW45832   8.561   2.183   3.568 -0.6456 -0.0537  0.0053
15085SOL    HW145833   8.508   2.209   3.644 -0.7691 -1.3219  0.3749
15085SOL    HW245834   8.648   2.167   3.604 -0.8542 -1.2724  0.0208
15086SOL     OW45835   0.088   8.771   8.109  0.0273  0.1025  0.3873
15086SOL    HW145836   0.002   8.790   8.147  0.5763 -0.0883  1.7795
15086SOL    HW245837   0.140   8.740   8.183  1.5731  1.1143 -0.2308
15087SOL     OW45838   7.317   2.903   4.721 -0.1227 -0.0243  0.7412
15087SOL    HW145839   7.236   2.946   4.691 -0.7266 -0.8394  1.1715
15087SOL    HW245840   7.304   2.891   4.815  1.0476  0.9828  1.0503
15088SOL     OW45841   1.468   6.918   0.132 -0.0092  0.3337 -0.0016
15088SOL    HW145842   1.420   6.878   0.205  0.4275 -0.1097  0.0511
15088SOL    HW245843   1.500   6.843   0.081 -1.4880  0.6483 -1.4352
15089SOL     OW45844   3.411   4.779   6.643  0.6032  0.1590 -0.5505
15089SOL    HW145845   3.442   4.763   6.554  0.9118 -0.2626 -0.3700
15089SOL    HW245846   3.344   4.712   6.658  0.3140  0.4384 -0.5819
15090SOL     OW45847   8.563   1.984   7.470  0.2738  0.4284 -0.3401
15090SOL    HW145848   8.476   2.013   7.499  0.5794  0.8823  0.1438
15090SOL    HW245849   8.620   2.003   7.545  0.2807 -2.6064  0.5554
15091SOL     OW45850   7.897   9.804   8.812  0.3816 -0.2533 -0.0929
15091SOL    HW145851   7.841   9.835   8.740  0.5925  0.3996  0.0204
15091SOL    HW245852   7.982   9.845   8.796  0.0084  1.2017  1.4083
15092SOL     OW45853   6.212   7.480   5.838  0.4145  0.1581 -0.6260
15092SOL    HW145854   6.292   7.501   5.885  0.2691  1.9540 -1.1146
15092SOL    HW245855   6.204   7.385   5.844  2.0272  0.0629  0.2988
15093SOL     OW45856   3.529   8.763   9.643 -0.5408  0.2683  0.4221
15093SOL    HW145857   3.444   8.806   9.634 -0.9103 -0.7062 -1.1505
15093SOL    HW245858   3.545   8.762   9.737 -1.8363  1.2953  0.6857
15094SOL     OW45859   0.632   3.207   6.536 -0.1513  0.3942  0.3014
15094SOL    HW145860   0.696   3.139   6.556 -1.0050  0.1378  2.4153
15094SOL    HW245861   0.646   3.273   6.604 -0.9156  1.1994 -0.3046
15095SOL     OW45862   2.844   5.671   6.159 -0.0238  0.0043 -0.1945
15095SOL    HW145863   2.893   5.589   6.147  0.7810  0.4114  0.2265
15095SOL    HW245864   2.831   5.704   6.071  0.6607 -0.0053 -0.3067
15096SOL     OW45865   4.510   3.735   7.594 -0.3314  0.1993  0.3731
15096SOL    HW145866   4.472   3.655   7.559  1.8463 -0.2942 -1.0761
15096SOL    HW245867   4.493   3.801   7.527  1.1451 -0.0052 -0.2501
15097SOL     OW45868   9.029   0.227   5.413 -0.6671 -0.0584  0.1107
15097SOL    HW145869   8.998   0.249   5.501 -0.2458  0.6412  0.0921
15097SOL    HW245870   9.002   0.302   5.359 -1.0974 -0.5700 -0.4023
15098SOL     OW45871   5.921   1.466   5.447  0.5287  0.2334 -0.0992
15098SOL    HW145872   5.921   1.559   5.423 -1.7779 -0.1393 -1.9735
15098SOL    HW245873   5.923   1.419   5.364  0.7695 -1.3993  0.7732
15099SOL     OW45874   4.903   7.457   8.697 -0.4092  0.2347 -0.3620
15099SOL    HW145875   4.965   7.384   8.702  0.3170  0.8907  1.3955
15099SOL    HW245876   4.821   7.418   8.667 -0.2606 -1.4869  1.2889
15100SOL     OW45877   1.348   2.254   9.398 -0.0142 -0.1089 -0.6541
15100SOL    HW145878   1.306   2.282   9.479  1.4632 -0.6014  0.3004
15100SOL    HW245879   1.331   2.160   9.394  0.5706 -0.2194 -0.5218
15101SOL     OW45880   0.095   4.184   4.028  0.2979  0.3742 -0.0524
15101SOL    HW145881  -0.001   4.175   4.031  0.2152  1.0943 -0.4975
15101SOL    HW245882   0.121   4.133   3.952  0.5241 -1.7723  1.3497
15102SOL     OW45883   3.292   8.030   7.504 -0.1520  0.3499  0.3096
15102SOL    HW145884   3.384   8.006   7.490  0.3373  1.5494  1.3024
15102SOL    HW245885   3.253   7.953   7.546  0.5938  0.1152  0.5821
15103SOL     OW45886   5.494   6.712   6.777 -0.6292 -0.1519 -0.1234
15103SOL    HW145887   5.486   6.806   6.786  1.2825  0.0766 -0.2653
15103SOL    HW245888   5.526   6.698   6.688  1.0352 -0.7245  0.5074
15104SOL     OW45889   2.425   8.332   4.728  0.3381  0.6783 -0.3033
15104SOL    HW145890   2.478   8.284   4.663  2.6072  1.0488  1.1591
15104SOL    HW245891   2.401   8.413   4.683 -0.2068 -0.1023 -1.4738
15105SOL     OW45892   8.207   0.733   3.166 -0.0111  0.2716 -0.9146
15105SOL    HW145893   8.281   0.673   3.156 -0.2031 -0.6851  2.2540
15105SOL    HW245894   8.130   0.676   3.166 -0.4985  0.9161 -1.1305
15106SOL     OW45895   3.342   4.311   7.073  0.1973  0.1161 -0.4611
15106SOL    HW145896   3.342   4.297   6.979 -1.1964 -0.9973 -0.3232
15106SOL    HW245897   3.419   4.366   7.089  1.3519 -0.9661 -2.0440
15107SOL     OW45898   6.081   0.601   8.077  0.6844 -0.5697 -0.1778
15107SOL    HW145899   6.054   0.634   8.163  0.5772  0.5869 -0.6475
15107SOL    HW245900   6.171   0.571   8.090  1.1296  0.7874  0.0555
15108SOL     OW45901   5.176   7.993   7.889  0.3130 -0.2153  0.2523
15108SOL    HW145902   5.113   7.936   7.934 -0.5222 -0.2642 -0.9274
15108SOL    HW245903   5.128   8.026   7.813  1.1064  1.2859  0.3695
15109SOL     OW45904   3.159   0.123   2.347  0.2469 -0.1232  0.3204
15109SOL    HW145905   3.121   0.141   2.262 -0.0706  0.2091  0.5295
15109SOL    HW245906   3.220   0.050   2.332  0.8332  0.4978 -0.3499
15110SOL     OW45907   7.925   4.600   1.701  0.0720  0.4885 -0.1994
15110SOL    HW145908   8.000   4.641   1.743 -0.1731  0.6401  0.0984
15110SOL    HW245909   7.880   4.672   1.656 -0.2191  0.4997  0.1117
15111SOL     OW45910   0.538   5.817   3.750 -0.5671 -0.3974  0.3544
15111SOL    HW145911   0.509   5.905   3.726 -0.4508 -0.4523  0.0084
15111SOL    HW245912   0.462   5.761   3.732 -0.3720 -0.4874 -0.2092
15112SOL     OW45913   5.542   0.793   8.010  0.0347  0.9666 -0.4113
15112SOL    HW145914   5.569   0.727   7.946 -0.6735 -0.0146  0.2753
15112SOL    HW245915   5.569   0.876   7.971  0.7784  0.2967 -1.3839
15113SOL     OW45916   0.389   2.375   3.662 -0.2848  0.2365 -0.4538
15113SOL    HW145917   0.460   2.411   3.610  0.0977  1.9142  1.1402
15113SOL    HW245918   0.313   2.376   3.603  0.1663  1.8904 -1.0668
15114SOL     OW45919   3.705   5.041   2.340  0.2896 -0.2671 -0.1264
15114SOL    HW145920   3.740   4.978   2.402  1.0053  1.2683  1.1046
15114SOL    HW245921   3.614   5.016   2.328  0.0018 -0.3271  1.9332
15115SOL     OW45922   8.031   2.056   5.457  0.0747  0.3859  0.0103
15115SOL    HW145923   8.083   2.025   5.383 -1.0686  1.8397 -1.4937
15115SOL    HW245924   7.961   2.108   5.417 -3.3994 -2.5059  1.7654
15116SOL     OW45925   3.017   9.824   0.941  0.3865  0.7247 -0.1340
15116SOL    HW145926   3.032   9.913   0.973  1.7673  0.0080  1.3675
15116SOL    HW245927   2.976   9.779   1.015  1.7350 -0.4279 -0.0369
15117SOL     OW45928   8.915   9.581  -0.015  0.3996  0.2774  0.0449
15117SOL    HW145929   8.861   9.506  -0.039 -0.1362  0.8276 -0.5237
15117SOL    HW245930   8.915   9.581   0.081  0.1124 -0.2395  0.0513
15118SOL     OW45931   3.884   2.471   2.300  0.3375  0.2658  0.5226
15118SOL    HW145932   3.867   2.523   2.379 -2.8114 -0.9201  0.7793
15118SOL    HW245933   3.909   2.535   2.234 -0.8945  1.8140  1.4827
15119SOL     OW45934   4.896   9.440   7.738 -0.6081 -0.4957  0.0752
15119SOL    HW145935   4.820   9.418   7.683 -1.8195 -0.8315  1.8208
15119SOL    HW245936   4.917   9.359   7.784  0.4838 -0.2568  0.0218
15120SOL     OW45937   3.748   4.790   7.284  0.1747  0.0255  0.0044
15120SOL    HW145938   3.840   4.764   7.281 -0.0536 -0.9952  1.2161
15120SOL    HW245939   3.747   4.867   7.342  0.3881  0.6944 -0.8567
15121SOL     OW45940   1.039   5.916   4.897  0.8849  0.2682 -0.2782
15121SOL    HW145941   1.068   5.852   4.832  2.2064  0.4404  0.1258
15121SOL    HW245942   1.112   5.977   4.905 -0.0911  1.4492 -0.1580
15122SOL     OW45943   4.387   6.500   4.691 -0.1849 -0.4219  0.0076
15122SOL    HW145944   4.371   6.455   4.608  1.5666 -2.2891  0.5811
15122SOL    HW245945   4.377   6.593   4.671  0.3836 -0.8082 -2.3496
15123SOL     OW45946   0.482   3.551   1.522  0.3297 -0.0390  0.4447
15123SOL    HW145947   0.452   3.465   1.553  1.1443 -0.8051 -0.7847
15123SOL    HW245948   0.562   3.568   1.572  0.5651 -0.3480  0.1801
15124SOL     OW45949   2.329   6.369   8.342  0.4579  0.4944 -0.3013
15124SOL    HW145950   2.297   6.317   8.416  1.0328  1.3468  0.5678
15124SOL    HW245951   2.308   6.459   8.366  2.4237  0.9810 -0.2446
15125SOL     OW45952   4.647   4.393   8.347  0.0051  0.0542  0.4353
15125SOL    HW145953   4.659   4.302   8.319 -1.1031  0.1195 -0.3218
15125SOL    HW245954   4.552   4.402   8.358  0.2870  0.3869  3.1223
15126SOL     OW45955   1.924   0.846   6.289 -0.1476  0.5067 -0.0211
15126SOL    HW145956   1.950   0.759   6.259 -0.6151  0.3569  0.0048
15126SOL    HW245957   1.954   0.851   6.380 -0.1529  0.3634 -0.0128
15127SOL     OW45958   1.971   4.809   6.129  0.1693 -0.2777 -0.5044
15127SOL    HW145959   1.881   4.842   6.130 -0.2698 -1.3944 -1.1256
15127SOL    HW245960   2.016   4.863   6.065  0.5549  1.7232  1.3433
15128SOL     OW45961   9.279   2.391   1.134 -0.4518  0.2873  0.5733
15128SOL    HW145962   9.354   2.400   1.075 -1.4851 -0.0328 -0.8573
15128SOL    HW245963   9.241   2.306   1.111 -0.5212 -0.1261  2.1535
15129SOL     OW45964   2.467   8.591   6.573  0.3804  0.0373  0.0354
15129SOL    HW145965   2.424   8.583   6.488 -0.1632 -1.0625  0.3884
15129SOL    HW245966   2.533   8.521   6.572 -0.9605 -1.3017  1.2534
15130SOL     OW45967   6.339   1.390   6.269  0.3456 -0.6360  0.4864
15130SOL    HW145968   6.376   1.442   6.341  1.1111 -0.9241  0.3085
15130SOL    HW245969   6.296   1.316   6.312 -1.0532  0.2831  0.7681
15131SOL     OW45970   8.202   2.424   4.572 -0.8170 -0.3288  0.0544
15131SOL    HW145971   8.213   2.517   4.594 -0.4518 -0.2653 -0.3662
15131SOL    HW245972   8.270   2.407   4.507  0.9570 -1.6068  2.1357
15132SOL     OW45973   2.995   7.625   8.651 -0.6332 -0.5248 -0.3246
15132SOL    HW145974   3.087   7.644   8.631 -1.0447  1.3609 -0.6539
15132SOL    HW245975   2.952   7.710   8.644 -2.3372 -1.3113  0.2404
15133SOL     OW45976   1.237   1.006   3.968  0.1038 -0.0528  0.6755
15133SOL    HW145977   1.266   0.934   4.024  2.6736  1.9242  2.1599
15133SOL    HW245978   1.242   1.083   4.024 -0.1954  1.6213 -1.4503
15134SOL     OW45979   9.037   9.531   2.945 -0.4721  0.2522 -0.0908
15134SOL    HW145980   9.087   9.452   2.965 -0.6156  0.5446  1.4764
15134SOL    HW245981   8.979   9.544   3.020  1.0103  3.0027  0.7052
15135SOL     OW45982   2.297   7.875   4.384  0.6394  0.2027 -0.0138
15135SOL    HW145983   2.391   7.876   4.403  0.3828  0.9915  1.3772
15135SOL    HW245984   2.265   7.957   4.422 -0.4672  0.3767 -1.2858
15136SOL     OW45985   3.175   5.342   1.048  0.4799 -0.4603  0.6831
15136SOL    HW145986   3.209   5.420   1.004 -1.8255  1.4196  1.9872
15136SOL    HW245987   3.083   5.363   1.067  0.4557 -2.4334  3.4145
15137SOL     OW45988   4.800   2.950   4.601  0.1690  0.0443 -0.4560
15137SOL    HW145989   4.840   2.913   4.680  0.1913 -0.5755 -0.7551
15137SOL    HW245990   4.811   3.045   4.611  1.5773 -0.1015 -0.4591
15138SOL     OW45991   4.061   8.269   5.013  0.3865 -0.3475  0.7556
15138SOL    HW145992   4.009   8.332   4.962  2.0221 -0.6480 -1.4059
15138SOL    HW245993   3.996   8.207   5.047 -0.8614  0.3321 -0.2717
15139SOL     OW45994   9.064   0.796   2.840 -0.4505  0.1506 -0.4136
15139SOL    HW145995   9.034   0.826   2.926  1.3225 -0.3554  0.4323
15139SOL    HW245996   9.108   0.873   2.802 -3.5944  1.2428 -2.1353
15140SOL     OW45997   4.730   0.587   7.133  0.2514 -0.8762  0.6764
15140SOL    HW145998   4.648   0.564   7.175  0.2945  0.4134  1.5309
15140SOL    HW245999   4.784   0.508   7.140 -0.8988 -1.7343  0.0846
15141SOL     OW46000   1.111   7.386   4.691  0.0759  0.4077  0.1708
15141SOL    HW146001   1.202   7.381   4.663  0.6399  0.6280  1.8181
15141SOL    HW246002   1.081   7.472   4.661 -0.2198 -0.3804 -1.9855
15142SOL     OW46003   3.840   2.616   7.757  0.0685  0.1894 -0.2591
15142SOL    HW146004   3.913   2.664   7.797  0.1744  2.1027 -2.5260
15142SOL    HW246005   3.873   2.526   7.748  1.0187  0.3374  1.3569
15143SOL     OW46006   9.240   5.232   4.678 -0.0464  0.1936 -0.5190
15143SOL    HW146007   9.294   5.234   4.757 -1.6626  0.2487  0.6391
15143SOL    HW246008   9.183   5.155   4.690 -0.5880  0.4383 -1.4406
15144SOL     OW46009   0.617   8.092   7.433 -0.3206 -0.3447  0.3382
15144SOL    HW146010   0.662   8.052   7.507 -0.6166 -0.4823  0.4427
15144SOL    HW246011   0.530   8.115   7.466 -0.6452 -0.9084 -0.1168
15145SOL     OW46012   3.577   8.290   7.663 -0.1132  0.0941  0.1472
15145SOL    HW146013   3.638   8.363   7.649 -0.7493  0.9091  1.3980
15145SOL    HW246014   3.492   8.326   7.638  0.0515 -1.5559 -3.2308
15146SOL     OW46015   2.844   8.835   5.960  0.2550 -0.1927 -0.2045
15146SOL    HW146016   2.861   8.866   6.049  0.5495 -0.6953 -0.0773
15146SOL    HW246017   2.919   8.866   5.909  1.2559 -1.7942  0.2041
15147SOL     OW46018   4.643   9.336   7.147 -0.0625  0.0064 -0.4271
15147SOL    HW146019   4.709   9.300   7.087  1.2214  1.3340  0.1265
15147SOL    HW246020   4.658   9.289   7.229  2.0537  2.1220  0.4903
15148SOL     OW46021   4.890   2.226   2.710  0.2399  0.5051  0.2402
15148SOL    HW146022   4.823   2.258   2.650  0.2634 -2.1237 -1.3032
15148SOL    HW246023   4.841   2.191   2.785 -0.2134 -1.5783 -0.9662
15149SOL     OW46024   6.975   6.893   2.784 -0.0068 -0.0512  0.0834
15149SOL    HW146025   6.936   6.956   2.723  1.9288  1.7995  0.5981
15149SOL    HW246026   6.967   6.935   2.870  1.6975 -0.2588  0.3864
15150SOL     OW46027   9.373   3.530   1.113 -0.6569  0.1450  0.2071
15150SOL    HW146028   9.431   3.465   1.073  1.1935  2.2573 -0.7446
15150SOL    HW246029   9.285   3.492   1.104  0.0190 -1.0137 -2.8348
15151SOL     OW46030   9.345   0.055   1.060 -0.0385  0.4081  0.0254
15151SOL    HW146031   9.381   0.051   0.971  1.6484  0.8793  0.6397
15151SOL    HW246032   9.354   0.147   1.085 -0.0338  0.1944  0.8455
15152SOL     OW46033   7.914   6.486   9.388  0.1542 -0.9428  0.2342
15152SOL    HW146034   7.824   6.458   9.369 -1.0413  3.1775 -1.2380
15152SOL    HW246035   7.962   6.468   9.306  0.4938 -2.2503  0.6935
15153SOL     OW46036   6.404   9.790   0.135 -0.2094  0.1934  0.0909
15153SOL    HW146037   6.387   9.781   0.229 -0.3864  0.8202  0.1204
15153SOL    HW246038   6.469   9.860   0.129  0.9292 -0.8608 -0.1600
15154SOL     OW46039   2.534   9.498   5.708  0.4617  0.4791  0.2378
15154SOL    HW146040   2.493   9.425   5.754 -2.1397  1.4492 -0.3148
15154SOL    HW246041   2.519   9.480   5.616  2.7369  0.1494 -0.1213
15155SOL     OW46042   9.267   4.430   5.108 -0.2952  0.0645 -0.5924
15155SOL    HW146043   9.306   4.359   5.160 -1.2723  0.5105  0.7965
15155SOL    HW246044   9.315   4.427   5.025 -0.8103 -2.7112 -0.8859
15156SOL     OW46045   6.922   3.360   8.109 -0.4318 -0.2722 -0.7030
15156SOL    HW146046   6.849   3.364   8.047 -2.1402  1.4962  1.2333
15156SOL    HW246047   6.960   3.448   8.106  1.1634 -0.9362 -1.0781
15157SOL     OW46048   1.263   1.137   4.744  0.4913 -0.2104 -0.2558
15157SOL    HW146049   1.245   1.214   4.691 -0.2125 -0.7019 -0.7459
15157SOL    HW246050   1.209   1.068   4.706 -0.7399 -0.3764  1.6146
15158SOL     OW46051   0.388   4.564   0.343  0.0016  0.4689  0.6906
15158SOL    HW146052   0.419   4.520   0.264 -1.8454 -0.8776  0.6262
15158SOL    HW246053   0.467   4.592   0.388  1.2225 -1.2159 -0.2856
15159SOL     OW46054   7.016   8.322   6.350  0.0151  0.5158  0.1814
15159SOL    HW146055   7.057   8.357   6.430 -2.0736  0.4812  1.3338
15159SOL    HW246056   7.033   8.389   6.284  1.3313  0.8018  0.7839
15160SOL     OW46057   3.845   3.790   6.124  0.5447  0.1119 -0.1483
15160SOL    HW146058   3.821   3.697   6.124 -0.7735  0.4409  0.5421
15160SOL    HW246059   3.813   3.823   6.040 -1.8808  0.6273  0.9060
15161SOL     OW46060   5.770   2.092   2.401  0.3243  0.3912 -0.2636
15161SOL    HW146061   5.717   2.111   2.323  0.9723  1.4292 -0.4665
15161SOL    HW246062   5.831   2.024   2.373 -0.2609 -0.1215 -0.3045
15162SOL     OW46063   0.433   9.552   2.424  0.3740 -0.4674  0.1779
15162SOL    HW146064   0.435   9.456   2.428 -0.6505 -0.5256 -0.2616
15162SOL    HW246065   0.521   9.579   2.449  0.4600 -1.4925  1.0723
15163SOL     OW46066   8.463   2.183   9.280  0.2552 -0.1456  0.0296
15163SOL    HW146067   8.368   2.183   9.281  0.2167 -0.6442 -1.2457
15163SOL    HW246068   8.489   2.146   9.364 -0.6617  0.5637  0.6275
15164SOL     OW46069   7.661   9.584   2.855 -0.1123  0.0256 -0.4088
15164SOL    HW146070   7.713   9.629   2.788  0.3820  0.8198  0.4987
15164SOL    HW246071   7.694   9.494   2.855  0.4057  0.2109 -0.7025
15165SOL     OW46072   3.016   2.887   0.818 -0.6741  0.7165  0.6361
15165SOL    HW146073   3.048   2.909   0.905  0.1829  1.1260  0.2283
15165SOL    HW246074   2.949   2.953   0.800  1.0240  2.3282 -0.0801
15166SOL     OW46075   7.539   7.566   9.127 -0.7042  0.2347 -0.0074
15166SOL    HW146076   7.588   7.507   9.069 -1.4449 -0.6417  0.2212
15166SOL    HW246077   7.467   7.597   9.073 -1.3392 -0.5062  0.3912
15167SOL     OW46078   5.947   3.943   2.071 -0.3358 -0.0253  0.5075
15167SOL    HW146079   5.945   4.016   2.008 -2.0438  0.0915  0.6694
15167SOL    HW246080   5.937   3.985   2.156  0.9203 -0.2846  0.8081
15168SOL     OW46081   6.829   7.912   4.155  0.1270 -0.7241  0.1850
15168SOL    HW146082   6.859   7.851   4.222  3.2711 -0.3620 -0.7125
15168SOL    HW246083   6.885   7.894   4.079 -0.0952  1.9970 -0.7406
15169SOL     OW46084   5.906   1.574   7.017  0.0286 -0.0698  0.2880
15169SOL    HW146085   5.939   1.534   7.097  0.4611 -1.8842 -0.7634
15169SOL    HW246086   5.814   1.546   7.012 -0.0960  0.3238  0.3151
15170SOL     OW46087   8.396   5.946   3.009  0.1698  0.2404 -0.1172
15170SOL    HW146088   8.316   5.924   2.962 -0.2632  0.1912  0.6204
15170SOL    HW246089   8.369   5.955   3.100  1.2628 -1.2072  0.3887
15171SOL     OW46090   7.718   8.178   4.810 -0.3841 -0.2350  0.5218
15171SOL    HW146091   7.714   8.244   4.741 -1.3733 -0.7195  0.0883
15171SOL    HW246092   7.795   8.201   4.861  1.7232 -1.1504 -2.0334
15172SOL     OW46093   9.919   0.266   2.978 -0.2824 -0.3944  0.0115
15172SOL    HW146094   9.912   0.233   2.888 -0.1232 -2.8215  0.8134
15172SOL    HW246095   9.835   0.244   3.018  0.1449 -0.5919  0.8188
15173SOL     OW46096   5.637   1.170   8.142  0.2669  0.0707 -0.4031
15173SOL    HW146097   5.686   1.209   8.215 -1.5894 -0.8303  1.4108
15173SOL    HW246098   5.677   1.084   8.129 -0.3912 -0.4059  0.6462
15174SOL     OW46099   6.659   3.496   5.940  0.1354  0.2890 -0.5298
15174SOL    HW146100   6.632   3.588   5.936 -0.1626  0.3049  1.0360
15174SOL    HW246101   6.588   3.448   5.898  0.2198  0.7438 -1.2149
15175SOL     OW46102   9.672   1.408   8.760 -0.3483 -0.5220  0.1287
15175SOL    HW146103   9.620   1.345   8.709 -1.8707  0.7207  0.0723
15175SOL    HW246104   9.755   1.414   8.712 -0.7529 -1.3364 -0.7207
15176SOL     OW46105   2.112   5.000   5.963  0.4454 -0.4211 -0.2872
15176SOL    HW146106   2.201   5.023   5.992 -0.2914 -0.5028  2.3060
15176SOL    HW246107   2.060   5.077   5.985 -0.4387 -1.0872 -0.0170
15177SOL     OW46108   9.368   4.248   3.494  0.2437 -0.6857 -0.1262
15177SOL    HW146109   9.401   4.165   3.460 -1.4860 -1.3703 -0.2842
15177SOL    HW246110   9.286   4.224   3.538  0.6933  0.6635  1.5606
15178SOL     OW46111   1.286   5.171   2.838 -0.2199 -0.8119  0.3469
15178SOL    HW146112   1.358   5.217   2.881 -0.5107  0.0780 -0.1053
15178SOL    HW246113   1.328   5.102   2.787  0.5196  0.9512 -1.5554
15179SOL     OW46114   4.251   5.087   1.045 -0.0326  0.0771 -0.5415
15179SOL    HW146115   4.294   5.148   0.984  1.7982 -0.6677 -0.0761
15179SOL    HW246116   4.163   5.122   1.056  0.4480  1.7281 -1.5362
15180SOL     OW46117   5.092   7.731   2.416 -0.6098  0.2030 -0.3414
15180SOL    HW146118   5.000   7.722   2.394 -0.5151  0.3682 -0.8122
15180SOL    HW246119   5.138   7.718   2.333 -0.1466 -0.9181  0.0660
15181SOL     OW46120   0.150   1.654   9.237  0.1161 -0.2594 -0.5239
15181SOL    HW146121   0.193   1.697   9.311 -1.4548  1.1939 -0.3849
15181SOL    HW246122   0.058   1.680   9.244  0.0840  1.0318 -3.6726
15182SOL     OW46123   9.387   4.707   8.720 -0.1465 -0.0759  1.0333
15182SOL    HW146124   9.452   4.714   8.791  1.2258 -0.9550 -0.0800
15182SOL    HW246125   9.409   4.779   8.661  1.2572 -1.6086 -0.4219
15183SOL     OW46126   2.695   5.203   7.356 -0.5565 -0.0459 -0.2044
15183SOL    HW146127   2.751   5.276   7.383  1.8464 -2.1531  0.8701
15183SOL    HW246128   2.723   5.182   7.268  0.2828 -0.9880  0.2679
15184SOL     OW46129   2.793   5.279   6.858 -0.2806  0.6431 -0.4846
15184SOL    HW146130   2.886   5.292   6.839  0.5546 -1.8398  1.2475
15184SOL    HW246131   2.760   5.229   6.784  0.4010 -0.4806 -0.0532
15185SOL     OW46132   9.351   8.949   8.902 -0.1160 -0.6960  0.3461
15185SOL    HW146133   9.349   9.044   8.892  0.9396 -0.8453 -1.9526
15185SOL    HW246134   9.403   8.934   8.980  0.6018  0.6019  0.1397
15186SOL     OW46135   4.796   9.219   2.408  0.1106 -0.6259 -0.0377
15186SOL    HW146136   4.819   9.163   2.483 -1.2946 -0.6155  0.4260
15186SOL    HW246137   4.735   9.167   2.358 -1.0702  0.4016  0.2930
15187SOL     OW46138   8.253   8.897   7.861 -0.5734 -0.6792  0.3491
15187SOL    HW146139   8.348   8.884   7.868 -0.5621 -0.3971  0.7854
15187SOL    HW246140   8.219   8.870   7.947 -0.8630 -0.5745  0.2683
15188SOL     OW46141   1.740   6.791   2.361  0.5786  0.1345 -0.0348
15188SOL    HW146142   1.747   6.772   2.454  1.0998  0.3367 -0.0292
15188SOL    HW246143   1.713   6.708   2.321  0.1814  0.0918  0.3117
15189SOL     OW46144   8.250   5.678   2.765  0.3297 -0.0175 -0.5522
15189SOL    HW146145   8.342   5.675   2.793  0.6170  0.6602 -1.3721
15189SOL    HW246146   8.206   5.615   2.821  0.6047  2.1324  2.3559
15190SOL     OW46147   2.909   1.669   6.982  0.3039  0.5715  0.5849
15190SOL    HW146148   2.979   1.651   6.919 -0.0993 -1.2256  0.5919
15190SOL    HW246149   2.953   1.671   7.067  0.2551 -1.5690  0.7015
15191SOL     OW46150   0.216   4.529   8.236  0.4019 -0.2070 -0.1333
15191SOL    HW146151   0.134   4.575   8.219  0.5543 -0.1863 -0.8783
15191SOL    HW246152   0.238   4.487   8.153  1.2932  0.0334 -0.0395
15192SOL     OW46153   9.470   8.670   9.686 -0.1918 -0.0849  0.3571
15192SOL    HW146154   9.379   8.661   9.714  0.0099 -0.7345  0.8325
15192SOL    HW246155   9.466   8.722   9.605 -1.0353 -0.6424  0.0319
15193SOL     OW46156   6.645   6.303   6.195 -0.1663  0.1740 -0.0253
15193SOL    HW146157   6.725   6.355   6.204  0.3087 -0.2055 -1.6215
15193SOL    HW246158   6.574   6.368   6.194  0.2310  0.6108  0.2371
15194SOL     OW46159   7.965   4.651   4.923  0.1944 -0.3381 -0.6135
15194SOL    HW146160   7.909   4.678   4.996  0.5393 -0.7706 -0.1822
15194SOL    HW246161   7.945   4.713   4.853 -1.2721 -0.8617 -0.6782
15195SOL     OW46162   3.196   7.870   2.879 -0.1647  0.4041 -0.1734
15195SOL    HW146163   3.250   7.942   2.845  2.2491 -0.6451  1.1790
15195SOL    HW246164   3.148   7.909   2.952 -0.8063  1.2001 -0.9895
15196SOL     OW46165   5.652   3.890   7.586 -0.0136  0.5412 -0.2421
15196SOL    HW146166   5.645   3.930   7.499  1.5786  0.4013 -0.4686
15196SOL    HW246167   5.616   3.955   7.645 -1.1911  0.6095 -0.9967
15197SOL     OW46168   7.489   7.960   3.206  0.0615 -0.3726 -0.1990
15197SOL    HW146169   7.573   8.006   3.214  0.7418 -1.6640  0.3905
15197SOL    HW246170   7.459   7.948   3.296  1.1221 -3.1758 -0.1156
15198SOL     OW46171   1.135   1.368   0.761 -0.2473  0.1179  0.4524
15198SOL    HW146172   1.135   1.336   0.851 -0.6048 -0.3758  0.2828
15198SOL    HW246173   1.227   1.366   0.735 -0.2331 -0.5596  0.5278
15199SOL     OW46174   2.590   6.839  -0.028  0.0776  0.6459 -0.1146
15199SOL    HW146175   2.502   6.876  -0.026 -1.0601 -1.8951  0.5516
15199SOL    HW246176   2.612   6.821   0.063  0.4682 -0.4992 -0.4118
15200SOL     OW46177   4.729   6.962   8.450 -0.4207  0.1310 -0.1413
15200SOL    HW146178   4.672   7.018   8.397 -1.5908  0.0997  1.0328
15200SOL    HW246179   4.816   6.976   8.414 -1.2531 -0.6307 -2.7169
15201SOL     OW46180   8.881   8.886   9.907  0.2673  0.2740 -0.3586
15201SOL    HW146181   8.805   8.945   9.911 -1.8023 -2.1429 -1.2687
15201SOL    HW246182   8.920   8.903   9.821 -0.5487  0.0806 -0.7783
15202SOL     OW46183   3.540   7.879   5.768  0.2586  0.0302  0.1548
15202SOL    HW146184   3.635   7.870   5.774  0.3768  1.5530  0.9899
15202SOL    HW246185   3.527   7.940   5.696 -0.0370  0.6040  0.6930
15203SOL     OW46186   2.792   1.444   5.739  0.4043 -0.3174  0.0103
15203SOL    HW146187   2.789   1.536   5.714 -1.3372 -0.5171 -0.6140
15203SOL    HW246188   2.776   1.444   5.833  2.1354  0.1005  0.3430
15204SOL     OW46189   1.999   7.337   9.400  0.2065  0.4781  0.0791
15204SOL    HW146190   2.013   7.284   9.478  0.8661 -0.5018 -0.6784
15204SOL    HW246191   1.906   7.362   9.404 -0.1713 -0.8873  0.3724
15205SOL     OW46192   6.865   0.293   7.302 -0.4574 -0.1409  0.2995
15205SOL    HW146193   6.941   0.280   7.358  0.5740 -0.0023 -1.0076
15205SOL    HW246194   6.858   0.388   7.292 -0.9235 -0.1450  0.5714
15206SOL     OW46195   5.736   3.647   5.834  0.4283  0.3651 -0.0583
15206SOL    HW146196   5.729   3.604   5.919 -0.9427  0.9009  0.1158
15206SOL    HW246197   5.646   3.670   5.811  0.7957  0.3418 -1.6000
15207SOL     OW46198   2.211   5.929   7.340 -0.3046 -0.9329  0.3042
15207SOL    HW146199   2.117   5.933   7.324  0.0151 -0.6298 -1.6735
15207SOL    HW246200   2.226   5.839   7.369 -1.1977 -0.9496  0.7602
15208SOL     OW46201   5.003   8.897   4.710  0.3254  0.2792 -0.2694
15208SOL    HW146202   4.957   8.858   4.636 -0.0677  1.3938 -0.6174
15208SOL    HW246203   4.981   8.840   4.784 -2.3306  1.2298 -0.2307
15209SOL     OW46204   4.286   3.812   7.747  0.4699 -0.1597  0.5244
15209SOL    HW146205   4.318   3.884   7.800  0.9288  0.3744 -0.4532
15209SOL    HW246206   4.364   3.775   7.707  0.1145 -0.4179  0.0584
15210SOL     OW46207   2.258   8.093   0.774 -0.1171 -0.2777 -0.2966
15210SOL    HW146208   2.190   8.152   0.806 -0.0955 -0.7578  0.6744
15210SOL    HW246209   2.338   8.144   0.779 -0.4287  0.3808 -1.7073
15211SOL     OW46210   3.732   6.142   9.776  0.4633  0.3459 -0.0156
15211SOL    HW146211   3.654   6.184   9.739  1.1875  0.6321 -1.2900
15211SOL    HW246212   3.760   6.081   9.708  0.2513 -1.1935  1.2222
15212SOL     OW46213   6.990   1.720   8.480 -0.2070  0.0911  0.0539
15212SOL    HW146214   6.946   1.735   8.564 -0.6297 -0.0957 -0.1290
15212SOL    HW246215   6.986   1.804   8.436 -1.4267 -0.1930 -0.4370
15213SOL     OW46216   3.410   0.632   1.783  0.3161 -0.3710  0.0294
15213SOL    HW146217   3.376   0.549   1.751  1.3305 -1.3375  1.3684
15213SOL    HW246218   3.339   0.668   1.836 -0.6020  0.2674 -1.5676
15214SOL     OW46219   8.330   9.174   7.766  0.0496 -0.1047 -0.1934
15214SOL    HW146220   8.272   9.100   7.750 -0.7856  0.2017  1.2141
15214SOL    HW246221   8.403   9.137   7.817 -1.0183  0.2227  1.6585
15215SOL     OW46222   0.768   5.992   0.024 -0.2656  0.2234 -0.3418
15215SOL    HW146223   0.803   5.904   0.010  1.1619  0.9424 -1.6790
15215SOL    HW246224   0.675   5.985   0.007 -0.8560 -1.6883  2.8965
15216SOL     OW46225   2.682   0.767   6.945 -0.0882 -0.0720 -0.5958
15216SOL    HW146226   2.603   0.783   6.996  0.8737  1.3635  0.5428
15216SOL    HW246227   2.753   0.772   7.010  1.0533  0.3486 -1.8433
15217SOL     OW46228   9.226   5.176   4.170 -0.5408  0.7719  0.4757
15217SOL    HW146229   9.210   5.270   4.168  1.8209  1.2671  1.2692
15217SOL    HW246230   9.258   5.155   4.082  0.5295  1.0761  0.7767
15218SOL     OW46231   8.310   2.392   6.762  0.3458  0.0239 -0.2825
15218SOL    HW146232   8.243   2.335   6.723 -0.7768  1.5583 -0.7179
15218SOL    HW246233   8.314   2.365   6.854 -0.2222 -0.6883 -0.4560
15219SOL     OW46234   6.379   1.181   8.734  0.3923  0.3783 -0.2812
15219SOL    HW146235   6.295   1.192   8.691  0.6837 -2.3480 -1.7743
15219SOL    HW246236   6.376   1.092   8.771  2.8396 -0.1286 -1.0666
15220SOL     OW46237   5.731   8.190   9.883  0.3982  0.2258 -0.0407
15220SOL    HW146238   5.647   8.180   9.927 -1.1692  1.0069 -2.6327
15220SOL    HW246239   5.767   8.272   9.918 -1.0100  1.0682 -0.5102
15221SOL     OW46240   2.449   5.580   1.092  0.2863 -0.1030 -0.5704
15221SOL    HW146241   2.535   5.550   1.122  0.3113  0.3965 -0.1274
15221SOL    HW246242   2.389   5.510   1.117  0.6752 -0.8321 -1.6180
15222SOL     OW46243   9.466   6.624   9.787 -0.5019 -0.5280 -0.3082
15222SOL    HW146244   9.523   6.600   9.860 -0.6577  0.7732  0.2859
15222SOL    HW246245   9.409   6.549   9.775 -0.8949 -0.5388  1.3493
15223SOL     OW46246   1.937   6.275   9.769 -0.0141  0.1169 -0.4669
15223SOL    HW146247   1.969   6.364   9.756  0.7768 -0.3376 -1.9325
15223SOL    HW246248   1.849   6.276   9.733  0.0488  0.2834 -0.6216
15224SOL     OW46249   3.660   1.526   9.858  0.2930 -0.1830 -0.1892
15224SOL    HW146250   3.710   1.595   9.815 -0.1541 -0.4357 -1.1410
15224SOL    HW246251   3.676   1.539   9.952  2.8623 -0.8213 -0.4891
15225SOL     OW46252   1.965   2.139   7.376  0.1845  0.8882  0.3674
15225SOL    HW146253   2.011   2.065   7.338 -1.7798 -0.9501  1.3001
15225SOL    HW246254   1.888   2.151   7.321  0.1517  1.8415  0.5955
15226SOL     OW46255   4.101   0.845   5.302 -0.8318  0.2654 -0.1162
15226SOL    HW146256   4.012   0.874   5.322 -1.0933 -0.3673 -0.3374
15226SOL    HW246257   4.156   0.921   5.321 -1.2424  0.1930  1.5038
15227SOL     OW46258   2.643   4.540   0.098 -0.2437 -0.2670 -0.1480
15227SOL    HW146259   2.647   4.531   0.193  0.1094  0.7932 -0.0434
15227SOL    HW246260   2.732   4.521   0.068  0.2028  1.4292 -0.0342
15228SOL     OW46261   7.057   9.482   7.360  0.2140  0.4738 -0.0433
15228SOL    HW146262   7.132   9.445   7.407 -0.3288 -0.5054  0.0862
15228SOL    HW246263   7.002   9.521   7.428 -0.2739 -0.4104  0.0850
15229SOL     OW46264   8.774   6.174   7.949  0.0488 -0.5483 -0.0522
15229SOL    HW146265   8.861   6.144   7.926 -0.1919  0.3448 -2.4276
15229SOL    HW246266   8.788   6.257   7.995  0.4622 -0.0772 -1.0011
15230SOL     OW46267   6.111   9.839   0.167  0.2269 -0.2498 -0.1376
15230SOL    HW146268   6.137   9.924   0.202  1.0854 -0.3762 -0.4619
15230SOL    HW246269   6.190   9.803   0.128 -0.2619 -0.9568 -0.5057
15231SOL     OW46270   9.678   9.373   4.399 -0.6080  0.5470  0.4485
15231SOL    HW146271   9.717   9.375   4.312 -0.8569 -1.2931  0.2678
15231SOL    HW246272   9.747   9.409   4.456  0.2982 -0.0436 -0.2425
15232SOL     OW46273   6.050   8.198   8.558  0.5633  0.3308  0.4034
15232SOL    HW146274   5.974   8.144   8.577 -0.5412  1.3754 -0.8380
15232SOL    HW246275   6.115   8.172   8.623 -0.3768 -1.5229  0.6605
15233SOL     OW46276   5.659   8.775   9.570  0.2241  0.4423 -0.1669
15233SOL    HW146277   5.668   8.848   9.509 -0.8383  1.9257  1.3453
15233SOL    HW246278   5.570   8.743   9.556  0.8251 -0.8714 -1.1119
15234SOL     OW46279   3.273   9.273   8.184  0.1005  0.0433  0.6815
15234SOL    HW146280   3.258   9.288   8.090 -1.4488  0.3756  0.9563
15234SOL    HW246281   3.346   9.330   8.206  1.7738 -1.4302 -0.7023
15235SOL     OW46282   2.849   6.098   4.678  0.3869 -0.5379  0.1909
15235SOL    HW146283   2.853   6.193   4.684 -0.0087 -0.5005 -0.0647
15235SOL    HW246284   2.782   6.073   4.741 -0.1467 -0.5667 -0.3731
15236SOL     OW46285   7.461   4.598   0.630  0.2373  0.3325 -0.1491
15236SOL    HW146286   7.466   4.643   0.714  0.5672 -1.5925  0.9326
15236SOL    HW246287   7.369   4.575   0.620  0.3517 -0.2672  0.1571
15237SOL     OW46288   4.699   1.210   4.978  0.2461 -0.0137 -0.0446
15237SOL    HW146289   4.623   1.240   4.927 -0.2900  0.5545  1.0535
15237SOL    HW246290   4.662   1.171   5.057  0.8355 -4.6771 -1.7533
15238SOL     OW46291   9.553   3.363   1.697 -0.1644 -0.2637  0.5449
15238SOL    HW146292   9.479   3.318   1.738  0.0255  0.0562  1.2458
15238SOL    HW246293   9.525   3.455   1.691  0.0405 -0.2041  0.4884
15239SOL     OW46294   8.465   2.276   3.795  0.6691 -0.1244 -0.5955
15239SOL    HW146295   8.514   2.234   3.865  0.0461  0.3988  0.1792
15239SOL    HW246296   8.384   2.305   3.837  0.8867  1.4386 -1.1973
15240SOL     OW46297   5.225   1.277   6.377 -0.0842 -0.3336  0.2205
15240SOL    HW146298   5.132   1.267   6.400 -0.1919 -0.0206 -0.0715
15240SOL    HW246299   5.224   1.309   6.287  0.2983  0.3448  0.4539
15241SOL     OW46300   3.528   8.094   0.146 -0.0052  0.1560  0.4527
15241SOL    HW146301   3.489   8.012   0.176 -0.0169  0.5152  1.4582
15241SOL    HW246302   3.613   8.097   0.190  0.5687  0.0438 -0.6316
15242SOL     OW46303   9.631   9.532   1.731 -0.6742 -0.5738 -0.0824
15242SOL    HW146304   9.662   9.613   1.690 -0.8072 -0.9972 -1.0634
15242SOL    HW246305   9.569   9.495   1.667 -1.3024 -0.9922  0.7506
15243SOL     OW46306   0.332   3.575   3.258 -0.1725  0.4906  0.3743
15243SOL    HW146307   0.389   3.505   3.290 -0.4361  1.0754  2.2676
15243SOL    HW246308   0.299   3.542   3.174  0.5465 -1.1710  0.6910
15244SOL     OW46309   2.688   1.210   9.383  0.1854 -0.2448 -0.7636
15244SOL    HW146310   2.717   1.131   9.429  1.3709  0.7993  0.3859
15244SOL    HW246311   2.692   1.279   9.449  0.2021  0.9826 -1.9895
15245SOL     OW46312   6.880   8.600   8.470 -0.5186 -0.3607 -0.5408
15245SOL    HW146313   6.823   8.588   8.394 -0.2757 -0.8676 -0.6451
15245SOL    HW246314   6.969   8.589   8.436 -0.4152 -0.8077 -0.1455
15246SOL     OW46315   6.115   4.392   3.008 -0.2324 -0.2221 -1.2756
15246SOL    HW146316   6.183   4.425   2.948  0.4754 -0.7437 -0.7820
15246SOL    HW246317   6.148   4.413   3.095 -0.3945 -1.0399 -1.0075
15247SOL     OW46318   4.801   5.004   0.723  0.1928  0.1324 -0.8904
15247SOL    HW146319   4.853   4.931   0.757 -1.9145 -0.3112  1.5824
15247SOL    HW246320   4.841   5.023   0.638  1.8183 -2.8225 -0.9155
15248SOL     OW46321   9.488   9.342   5.105  0.0302  0.4384 -0.3211
15248SOL    HW146322   9.531   9.364   5.022 -1.3354 -1.2549 -1.5461
15248SOL    HW246323   9.416   9.404   5.112 -1.1311 -0.7269 -1.5153
15249SOL     OW46324   0.820   3.822   4.592 -0.2458 -0.7108 -0.7169
15249SOL    HW146325   0.800   3.798   4.501 -0.5956  0.5988 -0.9986
15249SOL    HW246326   0.747   3.876   4.620  0.2101 -0.5026  0.1101
15250SOL     OW46327   1.332   5.002   9.325 -0.2088 -0.3684 -0.2208
15250SOL    HW146328   1.423   5.030   9.315  0.8766 -3.6728 -0.4881
15250SOL    HW246329   1.337   4.910   9.348 -3.5482 -0.9588 -1.2987
15251SOL     OW46330   7.681   5.728   9.501  0.4505 -0.0644 -0.4203
15251SOL    HW146331   7.708   5.664   9.435  1.6260 -0.9690  0.8696
15251SOL    HW246332   7.761   5.776   9.521 -0.1659  1.0364 -0.5191
15252SOL     OW46333   1.597   1.391   1.454 -0.3110 -0.0134  0.0374
15252SOL    HW146334   1.544   1.367   1.377 -1.9031  1.8827  0.4654
15252SOL    HW246335   1.569   1.330   1.522 -3.0337  1.7257  0.6251
15253SOL     OW46336   5.973   4.137   8.254  0.4155  0.1759 -0.0822
15253SOL    HW146337   5.917   4.059   8.257  1.1809 -0.3730  1.0756
15253SOL    HW246338   5.913   4.209   8.238 -0.1217 -0.7971 -2.9358
15254SOL     OW46339   1.567   9.440   1.164 -0.7763  0.2496 -0.3681
15254SOL    HW146340   1.493   9.482   1.120 -0.8613  0.9184  0.3858
15254SOL    HW246341   1.618   9.401   1.093  0.1446  2.9588 -1.3312
15255SOL     OW46342   7.011   0.519   5.961  0.2223  0.0120 -0.1464
15255SOL    HW146343   6.958   0.477   5.893  0.4203  0.0784 -0.3441
15255SOL    HW246344   6.955   0.588   5.996 -0.3668 -0.8582  0.6664
15256SOL     OW46345   9.559  -0.008   4.713  0.3624 -0.0249 -0.4355
15256SOL    HW146346   9.623   0.056   4.745 -0.1780  1.9917 -3.0095
15256SOL    HW246347   9.474   0.033   4.727 -0.2156 -1.3664  0.1982
15257SOL     OW46348   3.770   3.838   0.692 -0.2410  0.2069 -0.3122
15257SOL    HW146349   3.731   3.873   0.771  0.3034  2.2543 -0.8961
15257SOL    HW246350   3.826   3.908   0.659 -0.5794 -0.5211 -2.6138
15258SOL     OW46351   9.187   3.656   4.284 -0.2252  0.0868 -0.1527
15258SOL    HW146352   9.280   3.658   4.261 -0.2545 -0.6388 -0.3662
15258SOL    HW246353   9.185   3.665   4.379  0.0373  0.5061 -0.1844
15259SOL     OW46354   5.210   2.584   9.115  0.0298  0.5164  0.0896
15259SOL    HW146355   5.133   2.582   9.058 -2.1377  0.0887  2.7683
15259SOL    HW246356   5.217   2.675   9.143 -0.6147  0.2601  1.1521
15260SOL     OW46357   1.002   6.620   9.282 -0.2957  0.1231 -0.7902
15260SOL    HW146358   0.989   6.646   9.373 -0.8458 -1.0632 -0.5100
15260SOL    HW246359   1.095   6.634   9.267 -0.2364  0.5324 -0.1111
15261SOL     OW46360   5.079   4.796   6.402 -0.0639  0.1559 -0.2103
15261SOL    HW146361   5.030   4.840   6.472 -0.2485  1.5824 -1.1914
15261SOL    HW246362   5.021   4.726   6.372  0.4199 -1.1565  1.6953
15262SOL     OW46363   1.062   5.995   3.182  0.3736  0.0846 -0.3592
15262SOL    HW146364   0.992   5.977   3.244  0.5276 -0.9247 -0.4724
15262SOL    HW246365   1.143   5.983   3.231  0.4906 -0.3672 -0.6596
15263SOL     OW46366   9.210   5.848   0.294  0.2526  0.2245 -0.0853
15263SOL    HW146367   9.232   5.808   0.378  0.9892  0.4290 -0.1797
15263SOL    HW246368   9.142   5.912   0.315  0.4656  0.3077  0.3665
15264SOL     OW46369   5.991   7.187   9.137 -0.5317 -0.7273 -0.2033
15264SOL    HW146370   5.922   7.123   9.155 -0.4477 -0.0803  2.9957
15264SOL    HW246371   5.945   7.265   9.109 -0.8246 -1.2400 -1.2133
15265SOL     OW46372   5.872   8.852   5.913 -0.3736  0.0496 -0.3174
15265SOL    HW146373   5.857   8.942   5.940 -3.8933 -0.3287 -0.6254
15265SOL    HW246374   5.902   8.859   5.822 -4.6233  0.9764 -1.8466
15266SOL     OW46375   7.763   0.252   7.241 -0.5413 -0.1127  0.3690
15266SOL    HW146376   7.711   0.300   7.176 -0.3924 -2.1930 -1.3715
15266SOL    HW246377   7.849   0.243   7.201 -0.4298 -1.3724  0.8665
15267SOL     OW46378   9.942   3.378   5.956 -0.0094 -0.2705 -0.1982
15267SOL    HW146379   9.871   3.408   5.899 -0.7482  0.5316  1.0946
15267SOL    HW246380   9.919   3.410   6.043  2.1903  0.4680  0.1912
15268SOL     OW46381   5.911   5.528   9.277 -0.0285  0.0690 -0.5637
15268SOL    HW146382   5.835   5.508   9.223  1.0102 -1.3287 -1.5724
15268SOL    HW246383   5.925   5.449   9.329  0.1416  0.6955  0.3827
15269SOL     OW46384   8.610   3.377   3.074  0.0801 -0.2273 -0.1096
15269SOL    HW146385   8.588   3.448   3.013  1.6464  0.5201  0.1499
15269SOL    HW246386   8.615   3.299   3.019  0.0058  0.1739 -0.6972
15270SOL     OW46387   4.769   7.850   1.563 -0.4105 -0.3776  0.2905
15270SOL    HW146388   4.703   7.782   1.553 -1.2679  0.6225 -1.3999
15270SOL    HW246389   4.760   7.879   1.654 -0.9801 -1.5482  0.6264
15271SOL     OW46390   5.835   5.867   9.632 -0.2660  0.3770 -0.8499
15271SOL    HW146391   5.852   5.849   9.540 -1.2884 -0.6547 -0.8647
15271SOL    HW246392   5.884   5.801   9.680  0.3345  0.9657 -0.6414
15272SOL     OW46393   4.890   4.486   1.132  0.1884 -0.0386  0.0625
15272SOL    HW146394   4.851   4.426   1.195 -0.1678 -0.2376 -0.3433
15272SOL    HW246395   4.969   4.440   1.102  0.0579 -0.1921 -0.0500
15273SOL     OW46396   3.401   3.495   5.650 -0.3480  0.5360 -0.3095
15273SOL    HW146397   3.421   3.469   5.560 -0.6409 -1.3796  0.1520
15273SOL    HW246398   3.430   3.422   5.704  2.5724  2.8306  1.5325
15274SOL     OW46399   4.106   1.996   9.376 -0.0878  0.1309 -0.7136
15274SOL    HW146400   4.073   2.081   9.405 -0.1298 -0.3308  0.6763
15274SOL    HW246401   4.106   2.001   9.281 -1.5916  1.1290 -0.6959
15275SOL     OW46402   9.895   8.042   5.793 -0.7597  0.1841 -0.1631
15275SOL    HW146403   9.967   8.014   5.738  0.5608  1.0583  1.0537
15275SOL    HW246404   9.902   7.987   5.872 -2.5135 -0.9387 -0.7259
15276SOL     OW46405   2.167   9.868   3.356  0.3563  0.0183  0.5320
15276SOL    HW146406   2.096   9.814   3.320 -0.3706  2.5655 -2.3050
15276SOL    HW246407   2.247   9.829   3.320 -0.0042 -0.3193  0.0861
15277SOL     OW46408   8.352   8.753   3.753 -0.4009 -0.2203 -0.8240
15277SOL    HW146409   8.389   8.782   3.669 -1.0040  0.5982 -0.8181
15277SOL    HW246410   8.399   8.672   3.773 -0.5576 -0.6670 -2.1752
15278SOL     OW46411   1.256   6.621   4.917 -0.2098  0.6723 -0.0113
15278SOL    HW146412   1.165   6.644   4.938  0.2098  2.4708  0.0037
15278SOL    HW246413   1.262   6.632   4.823  0.3948  2.2890  0.1764
15279SOL     OW46414   6.785   2.174   5.610 -0.4224 -0.5819 -0.0524
15279SOL    HW146415   6.797   2.246   5.548 -0.8019  0.1505  0.7182
15279SOL    HW246416   6.856   2.184   5.673 -1.5975  0.2994  1.1742
15280SOL     OW46417   9.727   4.232   2.771  0.3561 -0.0513 -0.2351
15280SOL    HW146418   9.701   4.193   2.855  0.3374 -1.9398 -1.0831
15280SOL    HW246419   9.822   4.242   2.778  0.1791  1.3091  0.5938
15281SOL     OW46420   9.492   4.243   4.868  0.0365 -0.2490  0.3491
15281SOL    HW146421   9.471   4.208   4.781 -0.5901 -0.5466  0.6111
15281SOL    HW246422   9.526   4.168   4.917 -1.8067 -0.6779  1.0782
15282SOL     OW46423   4.835   1.451   2.212 -0.1353  0.0715 -0.1475
15282SOL    HW146424   4.845   1.357   2.196  0.4975  0.0779  0.1723
15282SOL    HW246425   4.747   1.459   2.248  0.1417 -0.5401  0.7336
15283SOL     OW46426   9.663   3.611   9.085 -0.4239 -0.5989 -0.5005
15283SOL    HW146427   9.667   3.625   8.990  2.4971 -0.5716 -0.4630
15283SOL    HW246428   9.607   3.534   9.095 -0.5320 -0.8060 -2.2695
15284SOL     OW46429   9.895   1.457   1.871  0.0270  0.5360  0.3099
15284SOL    HW146430   9.934   1.506   1.943  2.8947 -1.2390  0.1312
15284SOL    HW246431   9.923   1.504   1.792 -0.4771  0.7353  0.2459
15285SOL     OW46432   1.156   6.189   2.040  0.1889 -1.0085 -0.3032
15285SOL    HW146433   1.247   6.186   2.070  0.4173  0.4784 -0.7721
15285SOL    HW246434   1.129   6.279   2.055 -1.4126 -1.5802  0.3651
15286SOL     OW46435   5.309   0.116   7.322 -0.1366  0.6060  0.4285
15286SOL    HW146436   5.281   0.025   7.317 -1.3107  0.9440  0.6490
15286SOL    HW246437   5.401   0.114   7.296  0.3882 -0.9074  2.1218
15287SOL     OW46438   9.451   1.883   5.057  0.2937 -0.0066  0.3264
15287SOL    HW146439   9.379   1.822   5.069 -0.0008  0.5705  1.7486
15287SOL    HW246440   9.499   1.881   5.140  1.4853  0.1697 -0.3317
15288SOL     OW46441   6.819   9.867   8.739  0.7209 -0.8750  0.1290
15288SOL    HW146442   6.733   9.878   8.699  1.0841 -1.5038 -0.8529
15288SOL    HW246443   6.801   9.859   8.833 -0.1056  1.1061  0.1848
15289SOL     OW46444   4.602   2.355   9.032  0.4851 -0.6674 -0.3935
15289SOL    HW146445   4.517   2.362   9.075  0.2542 -0.0858 -0.9145
15289SOL    HW246446   4.586   2.385   8.942  1.6207  1.3378  0.0058
15290SOL     OW46447   5.173   0.638   2.131 -0.2575 -0.0612 -0.3194
15290SOL    HW146448   5.215   0.561   2.169  2.0043  1.6463  0.8924
15290SOL    HW246449   5.089   0.644   2.176 -1.9078 -3.3325 -2.5006
15291SOL     OW46450   5.657   1.324   1.565  0.3143  0.3658  0.4673
15291SOL    HW146451   5.614   1.365   1.490 -0.1685 -0.3576  0.3412
15291SOL    HW246452   5.676   1.235   1.536 -0.8344 -0.2610  1.5554
15292SOL     OW46453   7.823   9.821   3.349  0.4187 -0.0981  0.4869
15292SOL    HW146454   7.772   9.830   3.268  0.6142 -1.7224  0.1516
15292SOL    HW246455   7.898   9.767   3.324  1.2296  0.5491  1.4541
15293SOL     OW46456   3.711   1.083   5.507 -0.0733 -0.6074 -0.0261
15293SOL    HW146457   3.757   1.167   5.515  0.3663 -1.0291  2.5718
15293SOL    HW246458   3.753   1.041   5.432  3.4082 -0.6641  1.7436
15294SOL     OW46459   1.094   9.464   4.645  0.2705 -0.4174 -0.4260
15294SOL    HW146460   1.112   9.489   4.554  0.3515  0.3552 -0.2092
15294SOL    HW246461   1.123   9.539   4.697  2.5237 -1.7759  0.4435
15295SOL     OW46462   8.186   3.205   9.904 -0.1568 -0.5918  0.3979
15295SOL    HW146463   8.190   3.268   9.832 -2.0557  1.6473  2.0809
15295SOL    HW246464   8.097   3.171   9.900 -0.8488  0.7726  2.5236
15296SOL     OW46465   0.224   4.770   5.960  0.5385 -0.8278  0.1643
15296SOL    HW146466   0.275   4.754   5.881  1.2012 -1.0097  0.6146
15296SOL    HW246467   0.134   4.745   5.937  0.1200  1.7562 -1.3921
15297SOL     OW46468   9.575   6.071   6.528 -0.1660  0.0899 -0.1035
15297SOL    HW146469   9.610   6.027   6.605  1.0449  1.7420  0.3490
15297SOL    HW246470   9.520   6.141   6.563  0.3924  0.8552 -0.7114
15298SOL     OW46471   4.411   7.453   3.667 -0.2189 -0.1302 -0.0955
15298SOL    HW146472   4.345   7.523   3.666  1.1230  1.1598 -0.5578
15298SOL    HW246473   4.371   7.382   3.615 -1.3510  0.4954 -0.1219
15299SOL     OW46474   3.473   9.018   7.319  0.5249  0.2519  0.5917
15299SOL    HW146475   3.538   8.951   7.298 -0.0025 -0.3569  0.8651
15299SOL    HW246476   3.436   8.990   7.403  0.4449  1.0022  0.8130
15300SOL     OW46477   3.029   7.018   5.384 -0.5599  0.6415 -0.4104
15300SOL    HW146478   3.040   7.088   5.320  2.3577 -0.3817 -1.1812
15300SOL    HW246479   3.066   7.052   5.465 -0.2513  0.4258 -0.4589
15301SOL     OW46480   3.082   2.257   7.899 -0.5481 -0.5310 -0.7112
15301SOL    HW146481   3.165   2.302   7.918 -0.2872 -1.1622 -0.2898
15301SOL    HW246482   3.077   2.188   7.966 -1.2639 -0.6988 -0.9281
15302SOL     OW46483   9.242   1.495   4.718 -0.1343  0.6909 -0.3170
15302SOL    HW146484   9.328   1.508   4.677  0.0132  0.7158 -0.0043
15302SOL    HW246485   9.222   1.402   4.703  0.1584  0.5722  0.0077
15303SOL     OW46486   7.847   7.086   9.808 -0.3791  0.2354  0.3798
15303SOL    HW146487   7.759   7.125   9.807  0.1448  1.4588  0.6232
15303SOL    HW246488   7.847   7.028   9.885 -0.7148  0.8582  0.8577
15304SOL     OW46489   9.434   3.634   5.188 -0.3782  0.1872  0.7716
15304SOL    HW146490   9.489   3.684   5.247 -0.9479 -1.2818  2.6522
15304SOL    HW246491   9.366   3.597   5.244 -1.1732 -0.9774 -0.8705
15305SOL     OW46492   9.895   2.134   6.887 -0.2269  0.1884  0.2375
15305SOL    HW146493   9.949   2.213   6.895  1.3806 -0.4593 -2.6854
15305SOL    HW246494   9.917   2.081   6.963 -0.2267  1.8900  1.4752
15306SOL     OW46495   0.912   9.888   9.156 -0.2465 -0.3640  0.1471
15306SOL    HW146496   0.960   9.970   9.150  1.0053 -1.1023 -0.3011
15306SOL    HW246497   0.967   9.824   9.110 -1.4569 -1.3373 -0.0157
15307SOL     OW46498   2.872   0.167   0.325  0.1987  0.0433  0.4011
15307SOL    HW146499   2.948   0.141   0.273 -0.3119 -0.4004 -0.1426
15307SOL    HW246500   2.799   0.120   0.284 -0.1117 -0.9037  1.9605
15308SOL     OW46501   5.113   4.291   5.970 -0.1996 -0.3550 -0.3451
15308SOL    HW146502   5.019   4.305   5.978  0.0491  0.7772  0.7723
15308SOL    HW246503   5.143   4.361   5.913 -0.0419 -0.8227 -0.8498
15309SOL     OW46504   1.036   5.130   6.745  0.5764 -0.0279 -0.0917
15309SOL    HW146505   0.984   5.065   6.698 -0.0167  0.5330 -0.2235
15309SOL    HW246506   1.080   5.179   6.676 -0.2361  0.7488 -0.0656
15310SOL     OW46507   2.572   1.787   7.203 -0.0317  0.1235 -0.4319
15310SOL    HW146508   2.566   1.770   7.297 -0.3936 -0.5203 -0.5726
15310SOL    HW246509   2.608   1.876   7.198  0.9923 -0.2227  0.3049
15311SOL     OW46510   6.210   1.243   2.771  0.1868  0.1977  0.3089
15311SOL    HW146511   6.255   1.216   2.691 -1.0480  0.7884 -0.6162
15311SOL    HW246512   6.279   1.248   2.837  0.9598 -2.0550 -0.2416
15312SOL     OW46513   6.103   2.085   9.616 -0.3070  0.1603  0.2795
15312SOL    HW146514   6.038   2.136   9.664  1.8113  2.1659  1.1765
15312SOL    HW246515   6.114   2.131   9.533 -2.6257 -2.2788 -1.5706
15313SOL     OW46516   3.480   3.791   6.870  0.1460 -0.1170 -0.7153
15313SOL    HW146517   3.475   3.737   6.949 -1.6801  1.0806  0.0456
15313SOL    HW246518   3.543   3.859   6.893 -0.4348  0.2704 -0.2516
15314SOL     OW46519   1.996   4.619   0.681  0.0123  0.0836 -0.0965
15314SOL    HW146520   2.030   4.573   0.604  2.2000 -0.1789  0.9581
15314SOL    HW246521   1.963   4.702   0.646  3.0893  1.0084 -1.1100
15315SOL     OW46522   8.560   6.477   8.942 -0.1755 -0.3086 -0.7653
15315SOL    HW146523   8.616   6.435   8.878 -0.0911  0.8931 -1.5272
15315SOL    HW246524   8.577   6.571   8.930 -1.6060  0.0328 -0.3448
15316SOL     OW46525   5.434   7.984   2.281 -0.0185 -0.9361  0.4456
15316SOL    HW146526   5.502   8.000   2.347 -1.0495  0.7377  1.1485
15316SOL    HW246527   5.425   7.889   2.279  0.8367 -1.0777  1.8992
15317SOL     OW46528   0.240   8.088   4.754  0.2928  0.2047 -0.1046
15317SOL    HW146529   0.312   8.054   4.702  0.2636  0.0946 -0.0746
15317SOL    HW246530   0.167   8.029   4.735  0.0666  0.6113 -0.5250
15318SOL     OW46531   5.168   5.791   2.119  0.3916 -0.3466 -0.2589
15318SOL    HW146532   5.192   5.756   2.205 -1.7810  0.8161  0.9064
15318SOL    HW246533   5.080   5.756   2.103  0.0483  0.8946 -1.1713
15319SOL     OW46534   8.492   8.188   5.788 -0.1875 -0.5161  0.1728
15319SOL    HW146535   8.539   8.123   5.840  0.7567  0.2137  0.2450
15319SOL    HW246536   8.400   8.173   5.810 -0.0731 -2.2691 -0.3239
15320SOL     OW46537   9.356   2.674   1.125 -0.3274 -0.2266 -0.1419
15320SOL    HW146538   9.442   2.649   1.093 -0.2315  0.5469 -0.5098
15320SOL    HW246539   9.299   2.600   1.103 -0.0437 -0.1575 -1.1181
15321SOL     OW46540   6.600   4.483   8.632  1.0232 -0.0305  0.0360
15321SOL    HW146541   6.583   4.453   8.543 -1.8366  0.4116  0.3271
15321SOL    HW246542   6.640   4.569   8.622  0.0929  0.3098 -0.8369
15322SOL     OW46543   4.254   7.557   0.321  0.1129 -0.1188  0.0244
15322SOL    HW146544   4.165   7.591   0.328  0.5440  1.0484  0.0351
15322SOL    HW246545   4.303   7.625   0.276  0.7698 -1.2175 -0.9796
15323SOL     OW46546   9.704   0.835   0.992 -0.2761  0.5440  0.4974
15323SOL    HW146547   9.760   0.867   0.922  0.2400  0.2310  0.7632
15323SOL    HW246548   9.703   0.906   1.057  1.9592 -0.4281  1.7196
15324SOL     OW46549   9.055   8.784   4.959 -0.0445  0.2904 -0.9199
15324SOL    HW146550   8.961   8.785   4.943 -0.4973  1.1801  1.3687
15324SOL    HW246551   9.090   8.850   4.899 -0.9157  0.1937 -1.5552
15325SOL     OW46552   4.676   3.091   3.081  0.0962  0.2242  0.4681
15325SOL    HW146553   4.724   3.067   3.160  0.9419  0.9253  0.1772
15325SOL    HW246554   4.597   3.135   3.113 -1.2873 -2.4112  1.0075
15326SOL     OW46555   7.209   5.583   5.274  0.0624 -0.0843 -0.4668
15326SOL    HW146556   7.173   5.660   5.229  0.5740 -0.2736 -1.2240
15326SOL    HW246557   7.172   5.508   5.227 -0.1922 -0.3034  0.0740
15327SOL     OW46558   0.117   2.053   4.896  0.0575  0.1236  0.2832
15327SOL    HW146559   0.031   2.025   4.927 -0.7537  1.5241 -0.5778
15327SOL    HW246560   0.131   2.004   4.814  0.9905 -1.5453  1.3776
15328SOL     OW46561   1.486   6.801   4.678 -0.3879  0.7222  0.1416
15328SOL    HW146562   1.503   6.794   4.772 -0.7237 -1.7755  0.0758
15328SOL    HW246563   1.569   6.778   4.637 -0.4419  1.0962 -0.1811
15329SOL     OW46564   1.730   8.815   9.275  0.4177  0.1252  0.3206
15329SOL    HW146565   1.709   8.722   9.284 -0.6031  0.4873  2.5387
15329SOL    HW246566   1.826   8.818   9.271  0.4387 -1.0436 -0.3972
15330SOL     OW46567   8.917   1.118   5.140  0.0590 -0.1051 -0.2439
15330SOL    HW146568   8.921   1.027   5.110  1.8905  0.6144 -2.5631
15330SOL    HW246569   8.853   1.159   5.081  0.6583  0.4915 -0.4890
15331SOL     OW46570   0.113   9.813   1.277 -0.5989 -0.1508  0.3226
15331SOL    HW146571   0.170   9.868   1.331  0.9180 -0.4572 -0.8998
15331SOL    HW246572   0.036   9.868   1.261  0.8973  1.7193 -0.9205
15332SOL     OW46573   8.673   9.233   8.115  0.5031  0.2251  0.2147
15332SOL    HW146574   8.620   9.242   8.194 -0.5772 -0.3749 -0.4037
15332SOL    HW246575   8.689   9.139   8.107  0.5068  0.2667 -0.3284
15333SOL     OW46576   0.387   6.639   2.052  0.4968 -0.1601 -0.4210
15333SOL    HW146577   0.335   6.714   2.023  0.3043 -0.1175  0.0231
15333SOL    HW246578   0.330   6.592   2.112 -0.3239 -2.0656 -2.5523
15334SOL     OW46579   3.139   5.991   5.883  0.1320  0.0697 -0.7238
15334SOL    HW146580   3.086   6.066   5.906  0.4685 -0.2971  1.4811
15334SOL    HW246581   3.078   5.918   5.879  0.1780  0.0011 -0.2028
15335SOL     OW46582   6.038   3.013   5.305  0.0252 -0.0167  0.0482
15335SOL    HW146583   6.038   2.959   5.226 -1.1572  0.1841 -0.1217
15335SOL    HW246584   6.020   2.952   5.376 -3.6087  0.3033 -0.3723
15336SOL     OW46585   1.874   3.199   8.719  0.3438 -0.2208  0.1816
15336SOL    HW146586   1.793   3.150   8.736  0.6036 -0.9793 -0.6444
15336SOL    HW246587   1.942   3.150   8.765  0.7307 -1.1400 -1.2791
15337SOL     OW46588   0.444   9.124   6.226 -0.6917  0.6112  0.3914
15337SOL    HW146589   0.466   9.155   6.138 -1.0473  0.9483  0.4240
15337SOL    HW246590   0.529   9.117   6.271 -0.2491 -1.5373 -0.6109
15338SOL     OW46591   7.871   3.905   9.233 -0.1528 -0.1101 -0.0907
15338SOL    HW146592   7.847   3.997   9.236  0.0691 -0.0382 -0.5110
15338SOL    HW246593   7.958   3.901   9.272 -0.1698 -0.1472 -0.0549
15339SOL     OW46594   9.173   1.265   5.016 -0.4934 -0.3028  0.4446
15339SOL    HW146595   9.130   1.345   5.047 -0.6247  0.4719 -1.6184
15339SOL    HW246596   9.113   1.195   5.040 -1.6789  0.5027 -0.1204
15340SOL     OW46597   7.608   4.961   4.942 -0.0597 -0.2638 -0.0510
15340SOL    HW146598   7.609   4.935   4.850  0.8798  0.6720 -0.3190
15340SOL    HW246599   7.520   4.939   4.972 -0.2658 -0.9086 -1.0667
15341SOL     OW46600   7.560   8.703   9.568  0.2537  0.1528 -0.2399
15341SOL    HW146601   7.583   8.787   9.609 -1.0081 -0.7783  2.6010
15341SOL    HW246602   7.465   8.698   9.578  0.0728 -0.8061 -2.1086
15342SOL     OW46603   2.562   2.304   6.127 -0.8150  0.0532 -0.0285
15342SOL    HW146604   2.474   2.268   6.138 -1.3602  1.0487 -0.9092
15342SOL    HW246605   2.606   2.285   6.210 -2.3530  0.8436  1.0300
15343SOL     OW46606   2.373   1.169   7.598 -0.1272  0.0783  0.2777
15343SOL    HW146607   2.429   1.246   7.612 -0.5147  0.3923  0.1310
15343SOL    HW246608   2.433   1.095   7.601  0.3296  0.4289 -0.1017
15344SOL     OW46609   5.880   6.167   9.647  0.4985 -0.1126  0.3528
15344SOL    HW146610   5.874   6.077   9.617 -1.6760 -0.1360  0.7128
15344SOL    HW246611   5.849   6.165   9.737  1.8573  0.7922  0.8796
15345SOL     OW46612   7.897   5.271   8.396  0.4376  0.4218 -0.3468
15345SOL    HW146613   7.844   5.193   8.381 -0.9103  1.5905 -2.0024
15345SOL    HW246614   7.969   5.265   8.332 -1.6145  2.1349 -3.0540
15346SOL     OW46615   5.433   2.149   6.625 -0.0005  0.0580 -0.3143
15346SOL    HW146616   5.383   2.203   6.564 -0.1768 -0.0920 -0.3024
15346SOL    HW246617   5.394   2.166   6.711 -1.5226 -1.7482 -0.5855
15347SOL     OW46618   7.311   4.575   7.782 -0.2584 -0.0877 -0.6044
15347SOL    HW146619   7.253   4.634   7.734 -0.6578  0.1044  0.0996
15347SOL    HW246620   7.298   4.490   7.741 -0.7911  0.0241 -0.6744
15348SOL     OW46621   6.052   4.668   0.243  0.2299 -0.0111 -0.3937
15348SOL    HW146622   6.114   4.679   0.171 -0.8517 -1.3581 -1.5940
15348SOL    HW246623   6.049   4.574   0.258  0.4965  0.2442  1.5231
15349SOL     OW46624   1.008   4.017   6.016 -0.0966  0.6497 -0.1262
15349SOL    HW146625   0.927   3.967   6.014  0.9158 -1.1398  0.6965
15349SOL    HW246626   1.015   4.049   6.106  1.3885 -1.6021  0.6618
15350SOL     OW46627   1.487   9.270   6.829 -0.3405 -0.0971 -0.4249
15350SOL    HW146628   1.406   9.253   6.781 -0.0855 -0.7926 -0.6119
15350SOL    HW246629   1.457   9.293   6.917 -0.7067 -1.6215 -0.1289
15351SOL     OW46630   5.931   8.428   5.031  0.5259 -0.9229  0.1459
15351SOL    HW146631   6.006   8.487   5.022 -1.0195  1.7381  2.8285
15351SOL    HW246632   5.863   8.467   4.977 -0.6170  0.0466  2.1940
15352SOL     OW46633   0.517   0.856   6.647  0.0821  0.3097 -0.0597
15352SOL    HW146634   0.485   0.791   6.585  1.1702  0.7300 -1.1116
15352SOL    HW246635   0.589   0.812   6.693  0.5635  0.6247 -0.4988
15353SOL     OW46636   7.647   0.258   3.013 -0.5637  0.4652 -0.3253
15353SOL    HW146637   7.575   0.310   3.048  0.2249  1.5475 -0.2812
15353SOL    HW246638   7.607   0.208   2.942 -1.5059  0.5178  0.1454
15354SOL     OW46639   7.498   2.425   4.336 -0.4685 -0.0725 -0.0565
15354SOL    HW146640   7.594   2.427   4.334 -0.3532 -0.3883  2.0310
15354SOL    HW246641   7.476   2.453   4.425 -2.2092 -2.4238  0.3423
15355SOL     OW46642   5.557   9.938   9.034  0.0631 -0.0644 -0.4022
15355SOL    HW146643   5.478   9.993   9.038  1.6313  2.4413 -1.4301
15355SOL    HW246644   5.566   9.916   8.941  0.8487  0.1323 -0.3815
15356SOL     OW46645   6.078   3.569   0.283 -0.0414 -0.4844 -0.2419
15356SOL    HW146646   6.138   3.539   0.214 -0.0349 -0.7736 -0.1150
15356SOL    HW246647   6.071   3.494   0.342  0.9140  0.1554  0.7242
15357SOL     OW46648   9.270   6.011   8.930 -0.0589 -0.0261  0.2934
15357SOL    HW146649   9.198   6.040   8.986 -0.9927 -0.9387 -0.3903
15357SOL    HW246650   9.344   6.066   8.956 -0.0342 -1.3062  3.3449
15358SOL     OW46651   8.220   8.343   1.417  0.0592  0.6017 -0.6134
15358SOL    HW146652   8.157   8.344   1.345 -1.9166  0.0194  1.0220
15358SOL    HW246653   8.234   8.435   1.438 -3.6318  0.8124  1.7116
15359SOL     OW46654   4.689   5.911   2.212 -0.6531 -0.1315 -0.2136
15359SOL    HW146655   4.650   5.867   2.136 -1.4554 -0.2473  0.2445
15359SOL    HW246656   4.771   5.948   2.180 -0.9368 -0.2592 -1.1089
15360SOL     OW46657   2.574   6.030   8.088  0.2023 -0.3762  0.3604
15360SOL    HW146658   2.494   6.061   8.129  0.9058  0.2815  1.2720
15360SOL    HW246659   2.551   5.945   8.051 -0.4055 -1.1240  2.3516
15361SOL     OW46660   6.522   3.369   8.544 -0.4475  0.3033 -0.4107
15361SOL    HW146661   6.545   3.455   8.579  1.2467 -0.6688  0.9790
15361SOL    HW246662   6.441   3.345   8.589 -0.3742  0.7193 -0.0571
15362SOL     OW46663   0.192   3.656   2.906 -0.3513  0.5277 -0.4186
15362SOL    HW146664   0.251   3.730   2.890  0.8228 -0.3019 -0.0394
15362SOL    HW246665   0.248   3.587   2.941 -1.5102 -0.3875 -0.2894
15363SOL     OW46666   4.846   3.304   5.761  0.5236 -0.6492 -0.3561
15363SOL    HW146667   4.823   3.211   5.755 -2.2411 -0.1222  0.4895
15363SOL    HW246668   4.770   3.349   5.723  1.7488  1.2853 -0.6213
15364SOL     OW46669   8.516   1.622   5.962 -0.0508  0.3617 -0.5826
15364SOL    HW146670   8.584   1.564   5.928 -1.0277 -2.0969  1.3514
15364SOL    HW246671   8.564   1.699   5.992  1.8515 -0.9886  0.0608
15365SOL     OW46672   8.758   7.903   2.739 -0.2984  0.1440 -0.4576
15365SOL    HW146673   8.706   7.963   2.686 -0.5409  0.3055 -0.0380
15365SOL    HW246674   8.696   7.835   2.766 -0.0629 -0.2033 -0.7922
15366SOL     OW46675   3.094   8.834   0.143  0.7213 -0.2417 -0.4377
15366SOL    HW146676   3.158   8.773   0.180  2.3362  1.1988 -0.7393
15366SOL    HW246677   3.014   8.782   0.135  2.1105 -2.4504 -1.0439
15367SOL     OW46678   5.151   7.058   5.375  0.6147 -0.0938 -0.6789
15367SOL    HW146679   5.093   7.125   5.413  1.1081 -0.5709  1.0214
15367SOL    HW246680   5.103   6.976   5.386  1.0968 -0.3356 -0.3592
15368SOL     OW46681   6.539   6.171   7.141 -0.6188  0.0663  0.1636
15368SOL    HW146682   6.594   6.155   7.218  1.0292  1.4524 -0.6742
15368SOL    HW246683   6.595   6.152   7.066 -2.3990 -1.9069 -0.7877
15369SOL     OW46684   1.110   4.618   5.605  0.1751  0.4395 -0.1365
15369SOL    HW146685   1.168   4.575   5.668  0.2520  1.5475  0.5914
15369SOL    HW246686   1.169   4.663   5.544  0.1030  0.8161  0.0635
15370SOL     OW46687   8.498   1.582   7.262 -0.3268 -0.5295 -0.1087
15370SOL    HW146688   8.432   1.649   7.247 -0.8523 -0.4520  2.1188
15370SOL    HW246689   8.565   1.626   7.315 -0.0411 -1.3996  0.2796
15371SOL     OW46690   6.781   0.739   7.702  0.3389  0.4144 -0.5193
15371SOL    HW146691   6.742   0.817   7.663 -0.7670 -0.4503 -1.2419
15371SOL    HW246692   6.734   0.727   7.785 -1.9165 -1.2671 -1.9051
15372SOL     OW46693   3.458   2.276   9.040 -0.1539  0.8587 -0.6528
15372SOL    HW146694   3.512   2.354   9.046 -0.2168  0.8213  0.8489
15372SOL    HW246695   3.518   2.206   9.013  0.9848  0.5013  2.3382
15373SOL     OW46696   6.310   2.941   4.946  0.1897 -0.1918 -0.4665
15373SOL    HW146697   6.272   2.893   5.019 -0.2201  1.3501  0.3938
15373SOL    HW246698   6.398   2.905   4.936  0.3156 -0.3010  0.9296
15374SOL     OW46699   1.107   2.670   0.301  0.1201  0.0339  0.1816
15374SOL    HW146700   1.114   2.595   0.360 -1.6388  1.2077  2.0205
15374SOL    HW246701   1.046   2.641   0.233  0.2460 -0.5228  0.2984
15375SOL     OW46702   5.637   1.941   4.963  0.3008  0.3397  0.4750
15375SOL    HW146703   5.632   1.854   4.924  1.8315  1.2702 -2.0574
15375SOL    HW246704   5.553   1.982   4.940 -0.0246 -0.1297  0.8110
15376SOL     OW46705   2.362   8.185   1.262  0.2475  0.0003 -0.7169
15376SOL    HW146706   2.309   8.236   1.202  0.4661  1.0532 -0.0424
15376SOL    HW246707   2.299   8.141   1.320  0.0660 -0.3671 -1.1867
15377SOL     OW46708   9.055   5.090   9.157 -0.6942  0.5875  0.2896
15377SOL    HW146709   9.099   5.022   9.106 -0.2096  0.6855  0.5750
15377SOL    HW246710   9.002   5.138   9.092 -1.5349 -0.4383  0.1859
15378SOL     OW46711   4.753   5.838   2.623 -0.0759 -0.0437 -0.2739
15378SOL    HW146712   4.719   5.845   2.534  1.7149 -1.0343 -1.0865
15378SOL    HW246713   4.723   5.752   2.654 -2.7494  1.2552  1.0708
15379SOL     OW46714   4.641   9.228   8.604 -0.3245 -0.3077  0.5011
15379SOL    HW146715   4.732   9.250   8.621 -0.2954 -0.0962  0.0950
15379SOL    HW246716   4.593   9.308   8.623 -0.3632 -0.2623  0.2225
15380SOL     OW46717   9.935   4.590   6.021  0.7687  0.3472  0.2392
15380SOL    HW146718   9.978   4.603   5.937  1.4260  2.6693  0.8506
15380SOL    HW246719   9.842   4.584   5.999  1.0085 -0.0616 -0.7281
15381SOL     OW46720   3.089   9.021   7.854 -0.1183 -0.1449  0.2463
15381SOL    HW146721   3.041   8.939   7.871  0.2525 -0.4741 -0.2870
15381SOL    HW246722   3.155   8.997   7.789 -1.0652  0.9517 -1.1679
15382SOL     OW46723   2.237   1.699   8.477  0.0724 -0.2727  0.1502
15382SOL    HW146724   2.197   1.785   8.461 -0.1473 -0.2294  0.8710
15382SOL    HW246725   2.164   1.645   8.507  0.4297 -0.3734  0.8586
15383SOL     OW46726   4.720   4.091   6.659 -0.3060 -0.0577  0.1138
15383SOL    HW146727   4.771   4.047   6.590  0.1774 -0.9120  0.9854
15383SOL    HW246728   4.700   4.177   6.622  0.4702 -0.2627 -0.8573
15384SOL     OW46729   9.364   3.173   7.975  0.2471  0.0263 -0.5457
15384SOL    HW146730   9.294   3.115   7.943 -0.7370  1.4888 -1.1356
15384SOL    HW246731   9.321   3.227   8.041  0.6398  1.3357 -1.3264
15385SOL     OW46732   0.698   4.924   3.366  0.3401  0.1587 -0.5830
15385SOL    HW146733   0.716   4.873   3.287  0.7759 -0.6284 -0.0001
15385SOL    HW246734   0.622   4.977   3.344 -0.4146 -1.0859 -1.0789
15386SOL     OW46735   6.142   8.631   5.294 -0.1981  0.0996  0.2478
15386SOL    HW146736   6.063   8.685   5.296 -0.5643 -0.4251 -0.0826
15386SOL    HW246737   6.146   8.596   5.205 -2.1224 -3.5671  1.4115
15387SOL     OW46738   2.579   2.792   7.946 -0.1766 -0.4479  0.0236
15387SOL    HW146739   2.674   2.788   7.962 -0.0334  0.1897 -0.6238
15387SOL    HW246740   2.571   2.841   7.864 -1.1762  1.7719  1.3622
15388SOL     OW46741   6.434   5.761   3.175  0.3267  0.1863  0.0091
15388SOL    HW146742   6.444   5.675   3.218  0.0534 -0.9787 -2.1311
15388SOL    HW246743   6.348   5.757   3.132  0.3524  1.5120 -0.2084
15389SOL     OW46744   2.770   6.224   7.600  0.0860 -0.0230  0.8024
15389SOL    HW146745   2.847   6.179   7.565 -0.3199  0.1297 -0.3181
15389SOL    HW246746   2.794   6.317   7.596  0.1105 -0.0156  1.1175
15390SOL     OW46747   3.640   1.777   1.637 -0.0557  0.5957  0.3737
15390SOL    HW146748   3.606   1.690   1.657  1.4399  0.0518  0.7696
15390SOL    HW246749   3.622   1.828   1.716  0.8486  0.0490  0.9499
15391SOL     OW46750   1.544   8.711   9.654  0.2378  0.2719 -0.0900
15391SOL    HW146751   1.528   8.673   9.567 -0.1595  0.7109 -0.2140
15391SOL    HW246752   1.539   8.636   9.714 -1.8537  0.2871 -0.1669
15392SOL     OW46753   2.647   1.286   7.352  0.6418  0.0562  0.9518
15392SOL    HW146754   2.635   1.249   7.439  1.3835  0.5709  1.2867
15392SOL    HW246755   2.711   1.228   7.310  1.3863  0.6191  1.2804
15393SOL     OW46756   0.148   7.291   0.274  0.2171 -0.8890 -0.7374
15393SOL    HW146757   0.139   7.201   0.306  0.2484 -0.3382  0.9363
15393SOL    HW246758   0.058   7.319   0.257  0.2191 -1.2780 -1.4467
15394SOL     OW46759   4.257   8.190   5.462  0.4179 -0.0656  0.0178
15394SOL    HW146760   4.178   8.206   5.515 -0.0382 -1.5421 -0.1656
15394SOL    HW246761   4.316   8.261   5.486 -1.2017  1.4958 -0.3330
15395SOL     OW46762   3.110   7.000   3.281  0.0469 -0.5238 -0.5290
15395SOL    HW146763   3.197   7.038   3.289  0.7010 -2.0973  0.4682
15395SOL    HW246764   3.116   6.940   3.207 -0.5430  0.1703 -1.1617
15396SOL     OW46765   7.244   9.227   5.879 -0.1958  0.7506  0.3284
15396SOL    HW146766   7.174   9.171   5.844  0.2613 -0.3083  1.0569
15396SOL    HW246767   7.258   9.293   5.811 -2.4948  1.5505  0.5201
15397SOL     OW46768   1.212   6.362   6.749 -0.9184 -0.4870  0.3167
15397SOL    HW146769   1.235   6.421   6.822 -0.9027  0.9706 -0.8243
15397SOL    HW246770   1.225   6.415   6.671 -3.3449 -1.2055 -0.6456
15398SOL     OW46771   6.682   3.143   3.079  0.3998  0.0613 -0.0267
15398SOL    HW146772   6.649   3.228   3.109 -1.6434 -0.3645 -0.9290
15398SOL    HW246773   6.646   3.132   2.991  0.2776 -1.9271  0.2234
15399SOL     OW46774   9.888   7.917   2.303  0.1182  0.1028 -0.5393
15399SOL    HW146775   9.916   8.000   2.265  1.7312 -0.5304 -0.8259
15399SOL    HW246776   9.961   7.890   2.359 -0.7991 -0.6399  0.3375
15400SOL     OW46777   2.585   3.178   6.175 -0.8267 -0.5433  0.2980
15400SOL    HW146778   2.536   3.250   6.214 -1.0518 -0.6772  0.2615
15400SOL    HW246779   2.674   3.188   6.211 -0.7144  0.0796 -0.1358
15401SOL     OW46780   4.385   7.996   2.609 -0.4972  0.2780 -0.0418
15401SOL    HW146781   4.375   7.992   2.704  2.2075  2.8328  0.4931
15401SOL    HW246782   4.356   8.084   2.584  3.0946  1.4430 -0.7463
15402SOL     OW46783   9.300   7.541   0.376 -0.7952 -0.0519  0.4046
15402SOL    HW146784   9.237   7.514   0.310  0.6047 -4.1358  0.4782
15402SOL    HW246785   9.256   7.613   0.422 -3.5880  0.0827 -2.1271
15403SOL     OW46786   7.377   6.353   8.646  0.6499  0.0637  0.4875
15403SOL    HW146787   7.392   6.446   8.625  0.5415 -0.0295 -0.0063
15403SOL    HW246788   7.354   6.354   8.739 -0.6862  0.6798  0.1742
15404SOL     OW46789   5.428   6.969   6.828 -0.4550  0.2293 -0.1430
15404SOL    HW146790   5.366   6.998   6.760  1.4005  0.9211 -1.6400
15404SOL    HW246791   5.451   7.050   6.874 -0.8242 -0.0668  0.5757
15405SOL     OW46792   6.635   5.459   4.993 -0.0925  0.0390  0.9023
15405SOL    HW146793   6.574   5.519   5.036 -0.6484  0.0036  0.1702
15405SOL    HW246794   6.721   5.499   5.006 -0.1302 -0.3655  2.7295
15406SOL     OW46795   1.195   2.336   9.617 -0.5555 -0.8257 -0.4030
15406SOL    HW146796   1.200   2.274   9.690 -1.0462  0.3100  0.6421
15406SOL    HW246797   1.196   2.422   9.659 -0.1703 -0.1231 -1.7950
15407SOL     OW46798   5.156   7.367   6.741  0.2433  1.0940  0.0714
15407SOL    HW146799   5.167   7.332   6.829  1.5486  1.7658  0.1896
15407SOL    HW246800   5.138   7.460   6.754 -0.8038  0.9714 -0.3419
15408SOL     OW46801   0.457   5.611   6.993 -0.3880  0.1036  0.5976
15408SOL    HW146802   0.521   5.550   7.029  0.1289  0.7557  0.8086
15408SOL    HW246803   0.373   5.577   7.021 -0.0981 -0.4182  0.8537
15409SOL     OW46804   3.104   8.100   7.999 -0.0743 -0.2027  0.6787
15409SOL    HW146805   3.047   8.029   8.027  0.7503 -1.4270 -0.6111
15409SOL    HW246806   3.180   8.095   8.057 -0.2270 -0.0747  0.8886
15410SOL     OW46807   8.213   0.133   8.969  0.3273  0.0876  0.2987
15410SOL    HW146808   8.121   0.120   8.993  0.1500  1.2298  0.2944
15410SOL    HW246809   8.219   0.226   8.948  1.5205  0.0548  0.4418
15411SOL     OW46810   6.714   4.057   9.223 -0.4470  0.1758 -0.4647
15411SOL    HW146811   6.789   4.109   9.251 -1.6779  0.6018  2.4293
15411SOL    HW246812   6.752   3.974   9.195  1.1479  0.3134  1.0721
15412SOL     OW46813   6.587   3.009   2.814  0.4201 -0.0479 -0.1235
15412SOL    HW146814   6.589   2.914   2.805 -0.3415  0.0597 -1.8220
15412SOL    HW246815   6.510   3.027   2.868 -0.3036 -0.3474 -1.0287
15413SOL     OW46816   5.613   2.695   9.679 -0.7368  0.1507 -0.3766
15413SOL    HW146817   5.550   2.687   9.608 -1.2706  2.9024 -0.3543
15413SOL    HW246818   5.695   2.719   9.636 -0.8272  0.8712 -0.1749
15414SOL     OW46819   4.713   4.919   5.285 -0.0773 -0.4024  0.2380
15414SOL    HW146820   4.784   4.943   5.344 -0.5811  0.1760  0.6248
15414SOL    HW246821   4.679   4.836   5.321  0.6056 -0.8615 -0.1483
15415SOL     OW46822   0.908   8.201   7.101 -0.3877  0.4996  0.1292
15415SOL    HW146823   0.977   8.137   7.079 -1.0975 -0.5346  0.8637
15415SOL    HW246824   0.949   8.286   7.083  0.7894 -0.1223 -0.2755
15416SOL     OW46825   6.331   6.319   6.423 -0.4505 -0.1141 -0.1839
15416SOL    HW146826   6.314   6.226   6.431  2.4344 -1.1084 -3.3050
15416SOL    HW246827   6.312   6.340   6.332  2.7814  1.2697 -0.6974
15417SOL     OW46828   0.264   1.832   7.240 -0.0471  0.5852  0.1174
15417SOL    HW146829   0.229   1.897   7.301  0.0924  1.1171 -0.3619
15417SOL    HW246830   0.358   1.828   7.259 -0.5239 -2.0223  2.5161
15418SOL     OW46831   2.268   4.235   6.335 -0.1671 -0.3144 -0.5172
15418SOL    HW146832   2.255   4.276   6.249 -1.9296 -0.6902 -0.4748
15418SOL    HW246833   2.305   4.305   6.389  2.3988 -0.4791 -1.9133
15419SOL     OW46834   5.533   1.594   3.406 -0.1973  0.0265  0.4454
15419SOL    HW146835   5.493   1.506   3.408 -2.3831  0.9586  1.3657
15419SOL    HW246836   5.572   1.604   3.492  0.4672 -0.2070  0.1748
15420SOL     OW46837   6.731   0.443   2.569 -0.0010  0.1729 -0.2192
15420SOL    HW146838   6.724   0.525   2.618 -1.0997  0.5865 -1.0131
15420SOL    HW246839   6.696   0.376   2.628  1.8102  0.0904  0.8026
15421SOL     OW46840   1.102   1.081   5.752 -0.1804  0.2352 -0.0247
15421SOL    HW146841   1.016   1.089   5.794 -0.2301 -2.2788  0.4960
15421SOL    HW246842   1.090   1.118   5.665 -1.7284  0.1092  0.1102
15422SOL     OW46843   6.659   5.414   2.522 -0.1716 -0.4113 -0.1272
15422SOL    HW146844   6.580   5.412   2.469 -0.2976  0.3534  0.0098
15422SOL    HW246845   6.687   5.506   2.519  1.2879 -0.8509 -1.0069
15423SOL     OW46846   9.268   2.383   6.548 -0.5321 -0.0820  0.4704
15423SOL    HW146847   9.223   2.323   6.489 -1.6285  1.6027 -0.4945
15423SOL    HW246848   9.348   2.407   6.502 -2.1004  2.4037 -1.1323
15424SOL     OW46849   4.431   8.406   6.937 -0.3667 -0.4544 -0.3891
15424SOL    HW146850   4.384   8.354   7.002 -0.7821  1.1665  0.6521
15424SOL    HW246851   4.496   8.345   6.900 -1.8707 -2.1425 -0.3854
15425SOL     OW46852   8.070   6.125   7.267  0.5258  0.0384  0.4796
15425SOL    HW146853   8.072   6.216   7.238  2.7584  0.5122  1.8804
15425SOL    HW246854   8.042   6.076   7.190  0.1803  1.8073 -0.5799
15426SOL     OW46855   9.749   5.508   6.446 -0.5548 -0.2869  0.2530
15426SOL    HW146856   9.752   5.601   6.424  2.3078 -0.2397  0.4906
15426SOL    HW246857   9.714   5.466   6.367 -0.4728  0.8462 -0.4045
15427SOL     OW46858   6.169   7.625   8.064  0.4180 -0.1131  0.2770
15427SOL    HW146859   6.254   7.637   8.022  0.5913 -0.5504  0.4909
15427SOL    HW246860   6.147   7.711   8.099  0.1909  0.2990 -0.8452
15428SOL     OW46861   1.043   1.969   1.400  0.1212 -0.1815  0.2108
15428SOL    HW146862   1.114   1.906   1.392  0.6530  0.4879 -0.4674
15428SOL    HW246863   1.076   2.035   1.461  0.8012  1.0451 -1.4080
15429SOL     OW46864   1.509   0.496   2.730 -0.5318 -0.3949 -0.5122
15429SOL    HW146865   1.549   0.558   2.669 -0.5611 -1.2296 -1.3902
15429SOL    HW246866   1.434   0.544   2.766  0.4480  0.7008  0.1457
15430SOL     OW46867   0.339   4.931   7.435 -0.5860  0.0277 -0.5674
15430SOL    HW146868   0.352   4.909   7.527  0.8015 -0.5477 -0.8731
15430SOL    HW246869   0.245   4.918   7.419 -0.6796 -0.6931  0.5423
15431SOL     OW46870   6.798   1.028   1.195  0.3703 -0.0197 -0.2812
15431SOL    HW146871   6.879   0.991   1.160  0.8002 -0.2015  0.8592
15431SOL    HW246872   6.825   1.104   1.246 -0.0772 -0.4579  0.6601
15432SOL     OW46873   6.941   6.139   6.645  0.0953  0.2243  0.2714
15432SOL    HW146874   7.017   6.131   6.587  1.1953  1.2555  1.5192
15432SOL    HW246875   6.907   6.050   6.652  1.3173 -0.2994 -0.1456
15433SOL     OW46876   3.596   4.852   0.906 -0.4662  0.0108 -0.1036
15433SOL    HW146877   3.564   4.815   0.823 -0.0115  1.1007 -0.7831
15433SOL    HW246878   3.531   4.918   0.929  0.1617  0.7401 -0.3760
15434SOL     OW46879   6.676   8.992   7.974 -0.0689  0.3585  0.1165
15434SOL    HW146880   6.589   9.025   7.952  0.1034 -0.0938 -1.3244
15434SOL    HW246881   6.729   9.010   7.896  0.4155 -1.9391 -0.1446
15435SOL     OW46882   8.094   2.574   2.791 -0.1641  0.1066 -0.4980
15435SOL    HW146883   8.068   2.657   2.750 -1.0208 -0.6281 -1.4982
15435SOL    HW246884   8.189   2.571   2.783 -0.2113  0.5788 -1.2693
15436SOL     OW46885   3.032   7.376   5.729  0.2174  0.2913  0.3267
15436SOL    HW146886   3.081   7.371   5.647 -0.1298 -2.9543  0.1534
15436SOL    HW246887   2.951   7.420   5.706  0.6684  0.5949 -0.7600
15437SOL     OW46888   1.678   4.623   3.152 -0.0174  0.1313 -0.6381
15437SOL    HW146889   1.663   4.717   3.148  0.2879  0.1514 -2.3828
15437SOL    HW246890   1.703   4.606   3.243 -0.6050  1.6359 -0.1661
15438SOL     OW46891   8.083   8.805   8.988  0.3727 -0.3838  0.0624
15438SOL    HW146892   8.033   8.886   8.984 -0.3848 -0.8247  0.2957
15438SOL    HW246893   8.022   8.738   8.956  0.8078 -0.9375  0.3733
15439SOL     OW46894   3.871   0.127   1.826  0.0301  0.7348  0.1318
15439SOL    HW146895   3.813   0.180   1.882  0.8539  0.6348  1.1179
15439SOL    HW246896   3.937   0.189   1.795  0.5615  0.4568  0.6782
15440SOL     OW46897   1.554   0.304   4.555 -0.1246 -0.0525  0.4687
15440SOL    HW146898   1.547   0.396   4.527  0.2681 -0.0607  0.3320
15440SOL    HW246899   1.594   0.260   4.480 -1.7753 -0.6506 -0.0990
15441SOL     OW46900   6.462   3.365   5.194  0.4584  0.5873  0.1870
15441SOL    HW146901   6.500   3.416   5.122  1.0185 -1.4030 -0.9918
15441SOL    HW246902   6.434   3.283   5.154 -1.5966  0.4139  1.7769
15442SOL     OW46903   4.199   1.364   8.595 -0.4106 -0.3040  0.0096
15442SOL    HW146904   4.204   1.280   8.550 -0.4551 -0.3105  0.0163
15442SOL    HW246905   4.165   1.425   8.529  0.9366  0.0229 -0.4161
15443SOL     OW46906   0.031   6.705   6.669  0.6132 -0.2698 -0.0375
15443SOL    HW146907   0.020   6.649   6.746  0.5183 -1.0008 -0.5684
15443SOL    HW246908   0.064   6.645   6.601  2.3585  0.6994 -0.0927
15444SOL     OW46909   9.425   9.171   1.890 -0.1444 -0.0661 -0.0268
15444SOL    HW146910   9.352   9.231   1.909  0.4126  0.9577 -1.0137
15444SOL    HW246911   9.430   9.115   1.968 -1.7048  0.1081  0.2471
15445SOL     OW46912   5.976   0.649   7.074 -0.0188  0.1527  0.0135
15445SOL    HW146913   6.067   0.667   7.050 -0.1169  0.1790 -0.3610
15445SOL    HW246914   5.945   0.589   7.006 -0.6377  1.0956 -0.5719
15446SOL     OW46915   2.072   0.116   5.508  0.3673 -0.2104 -0.1167
15446SOL    HW146916   2.090   0.147   5.597 -0.4414  0.5697 -0.2049
15446SOL    HW246917   2.013   0.183   5.471  1.9223  0.3078 -1.7904
15447SOL     OW46918   8.717   0.397   1.914 -0.8850 -0.4730 -0.1111
15447SOL    HW146919   8.773   0.375   1.840  0.5223 -0.2505  0.8437
15447SOL    HW246920   8.628   0.395   1.879 -0.2416 -0.2346 -1.8207
15448SOL     OW46921   3.677   7.034   5.445  0.4920 -0.6057  0.3544
15448SOL    HW146922   3.630   7.099   5.392  0.1453  0.5878  2.0350
15448SOL    HW246923   3.660   6.951   5.401 -1.0178  0.1359 -0.5675
15449SOL     OW46924   8.378   3.057   8.453  0.5414  0.2020  0.0707
15449SOL    HW146925   8.461   3.028   8.491  1.0871  1.8923  0.2334
15449SOL    HW246926   8.347   3.124   8.513  0.2858  1.3227 -1.2766
15450SOL     OW46927   3.712   6.653   2.872  0.0144  0.1414  0.2809
15450SOL    HW146928   3.714   6.713   2.948 -1.3766  0.7182 -0.1027
15450SOL    HW246929   3.619   6.633   2.860  0.3814 -1.4482 -0.1370
15451SOL     OW46930   1.076   1.312   9.710 -0.0667 -0.1119  0.2774
15451SOL    HW146931   0.993   1.354   9.685  0.8845  0.5915 -1.9650
15451SOL    HW246932   1.059   1.274   9.796 -2.0507  1.8779  0.8468
15452SOL     OW46933   0.061   0.709   5.161 -0.1847  0.4932  0.3350
15452SOL    HW146934  -0.025   0.671   5.145 -0.5203  0.4626  2.0340
15452SOL    HW246935   0.075   0.767   5.086 -0.4465 -1.5398 -1.3698
15453SOL     OW46936   7.879   8.953   5.038  0.0525 -0.0930 -0.1465
15453SOL    HW146937   7.949   8.896   5.070  0.7357  0.5756 -0.4163
15453SOL    HW246938   7.809   8.893   5.013  0.0908 -0.7093  1.1632
15454SOL     OW46939   8.081   4.007   6.028  0.1132 -0.3807  0.5396
15454SOL    HW146940   8.132   3.926   6.023  0.4634 -0.1780  0.7626
15454SOL    HW246941   8.082   4.042   5.940 -0.2924 -0.7684  0.3737
15455SOL     OW46942   5.631   3.028   4.908 -0.0324 -0.5321 -0.9029
15455SOL    HW146943   5.605   3.099   4.850 -1.1029  0.3003  0.5241
15455SOL    HW246944   5.716   2.999   4.874  0.9231  2.0662 -1.0133
15456SOL     OW46945   5.583   5.408   7.612  0.2109 -0.5673  0.1454
15456SOL    HW146946   5.668   5.403   7.656 -0.2453 -2.1065  0.9459
15456SOL    HW246947   5.545   5.321   7.624 -2.0006  0.4203  0.8850
15457SOL     OW46948   3.971   5.253   8.193 -0.2121 -0.0451  0.0546
15457SOL    HW146949   3.882   5.224   8.213 -0.2519 -0.1812 -0.3102
15457SOL    HW246950   4.000   5.195   8.123 -0.9178  1.7789 -1.8816
15458SOL     OW46951   0.307   3.362   8.780 -0.3800 -0.4729 -0.2343
15458SOL    HW146952   0.344   3.420   8.847  2.5748 -1.6976 -0.6627
15458SOL    HW246953   0.270   3.422   8.715  1.6525  0.9474 -0.1638
15459SOL     OW46954   0.691   2.921   6.853 -0.2598  0.2659  0.2356
15459SOL    HW146955   0.601   2.920   6.822 -0.6292 -0.3853  1.2593
15459SOL    HW246956   0.708   3.012   6.877 -0.4484  0.4919 -0.4755
15460SOL     OW46957   1.838   9.391   6.478 -0.6187 -0.3467 -0.0571
15460SOL    HW146958   1.748   9.365   6.493  0.0740 -2.2022  1.2167
15460SOL    HW246959   1.841   9.483   6.505 -1.7627 -0.7269  1.5054
15461SOL     OW46960   8.368   3.007   0.019 -0.0738  0.1207  0.0541
15461SOL    HW146961   8.458   3.039   0.013 -0.0149 -0.0426  0.0667
15461SOL    HW246962   8.314   3.085   0.004  0.0582 -0.1395 -2.2596
15462SOL     OW46963   8.919   0.258   4.014  0.0157 -0.0204 -0.3723
15462SOL    HW146964   8.862   0.181   4.021 -0.9443  0.8487  2.8937
15462SOL    HW246965   8.867   0.322   3.966  0.0601 -0.7085 -1.3747
15463SOL     OW46966   5.766   9.737   5.186  0.2161  0.2853 -0.2539
15463SOL    HW146967   5.761   9.702   5.275 -0.7580  2.5854  0.6686
15463SOL    HW246968   5.854   9.775   5.181  0.6209 -0.6672 -0.6397
15464SOL     OW46969   4.201   5.558   2.990  0.2327  0.4579 -0.5344
15464SOL    HW146970   4.109   5.581   3.006  0.4067  0.8225 -0.0096
15464SOL    HW246971   4.232   5.525   3.075  0.5946  0.3772 -0.6987
15465SOL     OW46972   9.820   6.961   1.423  0.3473 -0.0136  0.5294
15465SOL    HW146973   9.756   6.990   1.488 -1.8879 -0.1220 -1.4722
15465SOL    HW246974   9.788   6.875   1.394  1.3444 -0.0349 -0.5864
15466SOL     OW46975   8.658   3.880   5.924  0.3470 -0.0532 -0.6383
15466SOL    HW146976   8.597   3.833   5.980  2.1705  0.5545  2.0728
15466SOL    HW246977   8.604   3.917   5.855 -1.8793 -1.7920  0.0495
15467SOL     OW46978   2.214   0.894   7.635  0.1543 -0.2726 -0.1807
15467SOL    HW146979   2.309   0.909   7.641  0.2904 -0.0619 -2.1028
15467SOL    HW246980   2.206   0.806   7.599 -0.4979 -1.5165  2.7494
15468SOL     OW46981   9.315   1.897   6.736  0.4780 -0.4631 -0.5807
15468SOL    HW146982   9.271   1.937   6.661  2.3246  2.4921 -0.2168
15468SOL    HW246983   9.248   1.895   6.804 -0.8396 -1.9855 -1.8112
15469SOL     OW46984   1.853   2.356   9.433  0.6835 -0.0955 -0.0117
15469SOL    HW146985   1.829   2.333   9.343 -3.4037 -3.0119  1.5208
15469SOL    HW246986   1.790   2.425   9.458  1.3176  0.2048  0.8168
15470SOL     OW46987   7.048   4.786   2.441  0.1237  0.0792 -0.2733
15470SOL    HW146988   7.121   4.839   2.473 -0.7219  0.9945  0.1839
15470SOL    HW246989   7.078   4.754   2.356  1.2333  0.0635  0.1075
15471SOL     OW46990   0.458   4.145   7.141  0.2863 -0.0882 -0.3106
15471SOL    HW146991   0.452   4.180   7.052  0.4874  2.0088  0.4239
15471SOL    HW246992   0.367   4.132   7.168  0.2068 -0.2567 -0.6606
15472SOL     OW46993   9.803   7.827   1.977 -0.0618 -0.3693 -0.6934
15472SOL    HW146994   9.883   7.868   2.011 -0.0416  0.4141 -1.6385
15472SOL    HW246995   9.833   7.744   1.940 -0.0286 -1.0721  0.8044
15473SOL     OW46996   9.411   1.077   2.877  0.0956 -0.0502  0.2859
15473SOL    HW146997   9.433   0.989   2.904 -0.5702  0.1005  1.3869
15473SOL    HW246998   9.493   1.115   2.846  0.3034 -1.1787 -0.5902
15474SOL     OW46999   5.493   5.326   8.913 -0.3946  0.0142 -0.3398
15474SOL    HW147000   5.481   5.409   8.868  2.1882  1.0798  0.7057
15474SOL    HW247001   5.566   5.283   8.867 -0.8450 -1.0735 -0.0765
15475SOL     OW47002   0.923   8.151   8.790  0.1332  0.2815  0.0994
15475SOL    HW147003   0.934   8.164   8.884  1.8124 -0.0081 -0.0321
15475SOL    HW247004   0.873   8.228   8.760 -0.2415  0.4680  1.1756
15476SOL     OW47005   3.519   6.178   4.091 -1.0609 -0.2937  0.0293
15476SOL    HW147006   3.487   6.250   4.036  0.4372  0.2083 -0.2356
15476SOL    HW247007   3.596   6.145   4.045 -0.6180 -0.8191  1.1088
15477SOL     OW47008   4.434   7.382   0.780  0.1887  0.4797  0.4342
15477SOL    HW147009   4.530   7.382   0.775  0.1637 -0.0366 -0.2306
15477SOL    HW247010   4.408   7.463   0.736  0.2424 -0.6772 -1.8704
15478SOL     OW47011   4.283   3.518   2.495  0.1946 -0.9984 -0.1508
15478SOL    HW147012   4.311   3.538   2.406  0.6306  1.1340  0.4088
15478SOL    HW247013   4.361   3.486   2.539  0.0315 -1.8391 -0.4647
15479SOL     OW47014   4.236   0.393   3.890 -0.5486 -0.1306 -0.6671
15479SOL    HW147015   4.322   0.427   3.917 -0.1663 -2.3184  1.2822
15479SOL    HW247016   4.175   0.428   3.955 -0.9608  0.5401 -1.4065
15480SOL     OW47017   8.250   7.605   4.988 -0.2094  0.2676  0.0785
15480SOL    HW147018   8.212   7.676   4.935  0.7092  0.3165 -0.5323
15480SOL    HW247019   8.220   7.525   4.945  0.8510  0.3074 -0.7767
15481SOL     OW47020   5.332   4.955   1.126  0.3469 -0.4364  0.5099
15481SOL    HW147021   5.398   5.023   1.113 -0.6500  0.4449 -0.2185
15481SOL    HW247022   5.264   4.997   1.179 -0.6146 -0.6059 -0.5327
15482SOL     OW47023   6.085   6.930   5.297  0.0859  0.0544 -0.0072
15482SOL    HW147024   6.081   7.019   5.260 -3.0144 -0.5206 -1.3634
15482SOL    HW247025   6.152   6.886   5.245 -1.9922  0.1912 -3.1214
15483SOL     OW47026   4.261   1.958   8.021 -0.6333 -0.0667 -0.7106
15483SOL    HW147027   4.212   1.961   8.103  1.6192 -0.8131  0.7613
15483SOL    HW247028   4.267   1.865   8.000  0.0191  0.0231 -0.9438
15484SOL     OW47029   2.198   6.904   7.083 -0.6865 -0.0663  0.7924
15484SOL    HW147030   2.252   6.983   7.082 -1.9513  0.8376  1.2543
15484SOL    HW247031   2.194   6.879   7.176  0.1246 -0.9849  0.5932
15485SOL     OW47032   3.513   8.923   8.721  0.3571  0.4339 -0.7157
15485SOL    HW147033   3.556   8.847   8.761  1.3522  1.2238 -0.2180
15485SOL    HW247034   3.488   8.893   8.634  2.8056  0.1698 -1.4165
15486SOL     OW47035   7.272   7.381   2.260  0.0475  0.2193 -0.0039
15486SOL    HW147036   7.360   7.376   2.221  0.0620 -0.3719  0.0965
15486SOL    HW247037   7.280   7.335   2.344 -1.0148 -2.4076 -1.2188
15487SOL     OW47038   6.411   3.967   2.460 -0.0645 -0.1951 -0.4894
15487SOL    HW147039   6.431   4.033   2.526  1.1941 -0.5097 -0.5145
15487SOL    HW247040   6.478   3.980   2.393 -0.3609 -0.8978 -0.9365
15488SOL     OW47041   7.963   5.893   7.523 -0.2759 -0.0769  0.3178
15488SOL    HW147042   8.027   5.950   7.565 -0.4027  0.1349  0.2257
15488SOL    HW247043   8.016   5.831   7.473 -0.1480  0.2586  0.0338
15489SOL     OW47044   5.872   1.480   7.529  0.2182  0.3992  1.0945
15489SOL    HW147045   5.787   1.489   7.573 -0.5338 -1.0326  0.0227
15489SOL    HW247046   5.929   1.444   7.596 -0.0376  1.2486  1.7916
15490SOL     OW47047   4.959   9.533   6.633 -0.3244  0.2759  0.7330
15490SOL    HW147048   4.901   9.494   6.567 -1.7124  1.6065  1.1198
15490SOL    HW247049   4.981   9.619   6.597  2.7892 -0.7617 -0.1699
15491SOL     OW47050   0.477   0.311   2.956  0.2559  0.0117 -0.1062
15491SOL    HW147051   0.459   0.371   3.028  0.4522  1.0377 -0.8926
15491SOL    HW247052   0.408   0.329   2.892  1.5440  0.9685 -1.2897
15492SOL     OW47053   5.339   1.531   7.024  0.2609 -0.0200  0.3179
15492SOL    HW147054   5.277   1.595   7.059 -0.4841 -0.8749  0.5900
15492SOL    HW247055   5.415   1.583   6.999 -0.1225  0.9050  1.0194
15493SOL     OW47056   3.200   0.130   7.134 -0.3420  0.2470  0.1313
15493SOL    HW147057   3.119   0.137   7.084 -0.5381  0.1981  0.4421
15493SOL    HW247058   3.227   0.039   7.123  0.8304  0.7624 -1.7630
15494SOL     OW47059   7.652   4.500   7.167 -0.0751  0.3088 -0.2956
15494SOL    HW147060   7.603   4.518   7.087 -1.4939 -0.3008  0.4006
15494SOL    HW247061   7.650   4.404   7.176  2.2879  0.1405 -0.8517
15495SOL     OW47062   3.027   4.274   8.849  0.0160  0.1014 -0.1998
15495SOL    HW147063   2.978   4.331   8.908 -2.5153 -1.1263 -0.9930
15495SOL    HW247064   2.997   4.298   8.761  1.1850 -0.4005 -0.7613
15496SOL     OW47065   6.514   0.566   3.840  0.1656 -0.3056  0.2862
15496SOL    HW147066   6.430   0.575   3.885 -1.2200 -0.5467 -2.1141
15496SOL    HW247067   6.517   0.639   3.779  0.9663 -1.2088 -0.7812
15497SOL     OW47068   9.250   5.201   1.661 -0.1495 -0.4884 -0.6000
15497SOL    HW147069   9.281   5.248   1.584 -0.1482  0.7299  0.1043
15497SOL    HW247070   9.251   5.109   1.636  0.6909 -0.1897 -1.7480
15498SOL     OW47071   0.376   4.858   7.041 -0.1109  0.3322  0.1396
15498SOL    HW147072   0.431   4.790   7.080 -0.2691  0.9213  1.4530
15498SOL    HW247073   0.301   4.866   7.100 -0.3448  1.3022 -0.2551
15499SOL     OW47074   2.491   6.116   6.589 -0.0353  0.0730  0.2221
15499SOL    HW147075   2.451   6.096   6.504 -1.2745 -0.8750  0.9817
15499SOL    HW247076   2.504   6.030   6.630  3.8066  0.2292 -0.3559
15500SOL     OW47077   1.416   1.565   5.016  0.6585  0.1716 -0.3801
15500SOL    HW147078   1.481   1.502   5.046  0.1229  0.1387  0.7466
15500SOL    HW247079   1.462   1.617   4.949  1.2068 -1.1770 -1.0927
15501SOL     OW47080   3.367   5.408   2.019 -0.5718  0.2309 -0.5145
15501SOL    HW147081   3.366   5.375   2.109  0.6210 -0.2083 -0.6391
15501SOL    HW247082   3.302   5.356   1.973 -0.2335 -0.4756 -0.2075
15502SOL     OW47083   2.873   9.869   7.642 -0.3051  0.3067 -0.5695
15502SOL    HW147084   2.889   9.844   7.733 -0.5451  2.5464  0.1575
15502SOL    HW247085   2.925   9.807   7.591 -1.4540 -2.0518  0.9626
15503SOL     OW47086   3.733   2.900   4.924  0.4058 -0.1794  0.0906
15503SOL    HW147087   3.664   2.933   4.983  1.7481  1.1087  1.0177
15503SOL    HW247088   3.798   2.862   4.982  1.0584 -0.2470 -0.6667
15504SOL     OW47089   1.511   7.191   2.522  0.0028  0.7090  0.6761
15504SOL    HW147090   1.439   7.240   2.481 -0.4489  0.4432  1.1452
15504SOL    HW247091   1.468   7.134   2.586  0.2615 -1.9868 -1.3841
15505SOL     OW47092   5.274   2.711   0.108  0.1347  0.3357 -0.5486
15505SOL    HW147093   5.347   2.773   0.100  0.5840 -0.3614 -2.3127
15505SOL    HW247094   5.212   2.755   0.167  1.4965  1.4032  0.1452
15506SOL     OW47095   6.939   4.631   7.147 -0.4400  0.0841  0.4224
15506SOL    HW147096   6.910   4.626   7.056 -0.4642  0.0657  0.4308
15506SOL    HW247097   6.997   4.707   7.150  0.5775 -0.6503  0.1113
15507SOL     OW47098   9.313   1.224   1.111  0.4914 -0.2217 -0.3060
15507SOL    HW147099   9.332   1.141   1.069  0.1440 -0.2218 -0.4697
15507SOL    HW247100   9.249   1.266   1.053  1.4084  0.6003 -0.7615
15508SOL     OW47101   3.265   0.654   8.886 -0.2028 -0.2773 -0.0261
15508SOL    HW147102   3.175   0.669   8.858 -0.4459  0.9924  1.3202
15508SOL    HW247103   3.317   0.714   8.834 -0.5251  1.2624  1.3542
15509SOL     OW47104   0.071   8.497   7.621  0.3064  0.0745 -0.7108
15509SOL    HW147105   0.079   8.519   7.528  0.6351  1.9817 -0.2637
15509SOL    HW247106  -0.022   8.510   7.641  0.2319 -0.3536 -0.7552
15510SOL     OW47107   5.062   9.171   7.032 -0.2371  0.5122  0.5088
15510SOL    HW147108   5.057   9.134   7.120 -1.3941  0.8039  0.5816
15510SOL    HW247109   5.122   9.245   7.039  1.6398 -0.9358  0.4968
15511SOL     OW47110   7.407   6.345   4.263 -0.3364 -0.1278 -0.3641
15511SOL    HW147111   7.390   6.417   4.324  0.7215  0.5797 -0.8717
15511SOL    HW247112   7.445   6.276   4.317 -2.5043 -0.8269  0.3538
15512SOL     OW47113   1.558   7.171   5.789  0.2405 -0.2247  0.1845
15512SOL    HW147114   1.522   7.083   5.791  0.5004 -0.3193  1.6994
15512SOL    HW247115   1.624   7.172   5.858  0.2046  1.1789  0.2336
15513SOL     OW47116   9.458   6.470   4.413 -0.2955 -0.0175  0.0321
15513SOL    HW147117   9.370   6.489   4.381 -1.1568 -2.4165  0.7633
15513SOL    HW247118   9.479   6.384   4.376  0.7164 -0.5991  1.8590
15514SOL     OW47119   6.766   3.453   8.750  0.1110  0.1051 -0.0804
15514SOL    HW147120   6.822   3.378   8.775 -1.6761 -1.2655 -0.0122
15514SOL    HW247121   6.690   3.446   8.807 -1.7393 -0.1424 -2.4095
15515SOL     OW47122   5.022   5.644   4.890 -0.5901 -0.2680 -0.2942
15515SOL    HW147123   4.984   5.730   4.871  0.7902  0.7308  1.1907
15515SOL    HW247124   5.032   5.602   4.804 -2.7002  0.4008 -0.9240
15516SOL     OW47125   5.065   6.297   2.409  0.3308 -0.2072  0.7589
15516SOL    HW147126   4.980   6.306   2.365  0.3335  2.6947  1.1578
15516SOL    HW247127   5.107   6.223   2.364 -1.8269 -0.8358 -0.3800
15517SOL     OW47128   1.478   6.013   1.163  0.3130 -0.1183 -0.1316
15517SOL    HW147129   1.526   6.025   1.081 -0.5172  2.1504 -0.3571
15517SOL    HW247130   1.470   6.102   1.199 -1.8308 -0.6966  0.9625
15518SOL     OW47131   6.250   4.698   9.207 -0.5546  0.4368  0.9122
15518SOL    HW147132   6.343   4.679   9.196 -0.0887  1.6796  2.3111
15518SOL    HW247133   6.214   4.696   9.118  1.0091  0.9137  0.2383
15519SOL     OW47134   0.270   5.878   1.330 -0.1038  0.1355  0.2530
15519SOL    HW147135   0.302   5.919   1.250 -0.0938  1.2312  0.7933
15519SOL    HW247136   0.175   5.881   1.322 -0.1388 -1.9053 -0.7497
15520SOL     OW47137   9.747   0.025   2.605 -0.3479 -0.4344 -0.4560
15520SOL    HW147138   9.765   0.048   2.514 -2.0074 -0.5885 -0.8535
15520SOL    HW247139   9.653   0.038   2.615 -0.2997 -1.0420  1.0640
15521SOL     OW47140   4.717   3.435   3.375  0.7330  0.4421  0.8088
15521SOL    HW147141   4.798   3.404   3.334 -0.0010  1.1737 -1.2932
15521SOL    HW247142   4.743   3.514   3.421  1.2579  0.5841  0.2801
15522SOL     OW47143   9.729   2.044   2.234  0.3667 -0.0954 -0.3240
15522SOL    HW147144   9.735   2.034   2.139 -1.2925  2.5641 -0.8282
15522SOL    HW247145   9.780   1.971   2.269  3.1600  0.1927 -3.2599
15523SOL     OW47146   2.142   0.497   1.474 -0.2909  0.2753 -0.5287
15523SOL    HW147147   2.217   0.555   1.464 -0.1645 -0.1256 -2.3302
15523SOL    HW247148   2.120   0.470   1.385 -1.7244 -0.7051  0.0683
15524SOL     OW47149   6.657   1.194   7.460 -0.4469  0.0640  0.4373
15524SOL    HW147150   6.667   1.258   7.530 -0.7171  1.0278 -0.3758
15524SOL    HW247151   6.740   1.146   7.459 -0.9460 -0.9515  2.3283
15525SOL     OW47152   3.830   6.783   3.700 -0.2096 -0.3717 -0.0903
15525SOL    HW147153   3.857   6.794   3.609 -0.9581 -1.6198 -0.4839
15525SOL    HW247154   3.905   6.743   3.743 -0.2321 -0.7507 -0.4022
15526SOL     OW47155   7.703   9.112   9.886 -0.1591  0.2235 -0.2724
15526SOL    HW147156   7.785   9.098   9.933  0.3528 -0.8551 -1.4287
15526SOL    HW247157   7.635   9.083   9.947  0.5351 -1.8696 -0.4384
15527SOL     OW47158   4.179   5.155   0.386  0.3224 -0.4467 -0.2933
15527SOL    HW147159   4.130   5.223   0.340  0.8191  0.3474  0.3138
15527SOL    HW247160   4.163   5.174   0.479  1.9917  0.0092 -0.0769
15528SOL     OW47161   6.321   1.245   2.066 -0.0517 -0.0463  0.1252
15528SOL    HW147162   6.371   1.186   2.123 -1.9098 -1.3713  0.4765
15528SOL    HW247163   6.376   1.257   1.989  0.3558 -2.3625 -0.0005
15529SOL     OW47164   1.316   0.147   4.684  0.3426 -0.2967 -0.2003
15529SOL    HW147165   1.310   0.052   4.692  2.3937 -0.3379  2.1550
15529SOL    HW247166   1.402   0.163   4.646  0.3204  0.6256  0.1046
15530SOL     OW47167   7.664   2.693   9.198 -0.5318 -0.0184  0.0424
15530SOL    HW147168   7.644   2.774   9.244  1.9597  1.0140 -0.5345
15530SOL    HW247169   7.619   2.625   9.248 -0.5331  1.4109  2.1175
15531SOL     OW47170   6.121   7.204   5.315 -0.0671 -0.3310 -0.0503
15531SOL    HW147171   6.045   7.193   5.372  0.2066  3.7587  1.4462
15531SOL    HW247172   6.194   7.171   5.366 -0.2822  0.0714  0.5277
15532SOL     OW47173   7.682   7.745   9.260 -0.2157 -0.3360 -0.3784
15532SOL    HW147174   7.624   7.676   9.226 -0.2938 -0.4081 -0.1063
15532SOL    HW247175   7.740   7.766   9.187 -0.5043 -0.3533 -0.6131
15533SOL     OW47176   8.848   5.827   9.366  0.0713 -0.1294 -0.4842
15533SOL    HW147177   8.846   5.903   9.425  0.3331 -1.0068  0.6975
15533SOL    HW247178   8.822   5.754   9.421  0.6545 -1.0392 -1.3894
15534SOL     OW47179   6.058   8.402   6.268  0.0379  0.3409 -0.3221
15534SOL    HW147180   6.137   8.388   6.320 -1.0978 -0.8645  1.1669
15534SOL    HW247181   6.036   8.315   6.233  0.7041  1.0864 -2.8185
15535SOL     OW47182   3.236   1.019   9.760  0.6241  0.3002 -0.5846
15535SOL    HW147183   3.190   0.965   9.697  1.2316  0.6734 -1.3617
15535SOL    HW247184   3.316   0.970   9.780  0.4200  0.1671 -0.0700
15536SOL     OW47185   6.721   6.282   9.122  0.1689  0.5277  0.2304
15536SOL    HW147186   6.658   6.340   9.080 -0.7407 -1.5546 -1.4668
15536SOL    HW247187   6.775   6.340   9.176 -2.0684  2.6124  0.4002
15537SOL     OW47188   6.719   6.674   9.363 -0.0510 -0.1693  0.2171
15537SOL    HW147189   6.796   6.723   9.390 -0.7601  0.8222  0.4918
15537SOL    HW247190   6.653   6.694   9.429  0.0481 -2.6847  1.2077
15538SOL     OW47191   0.993   3.046   5.917  0.1790  0.0058 -0.0440
15538SOL    HW147192   1.078   3.039   5.874  0.1854 -1.2319  0.1470
15538SOL    HW247193   1.012   3.045   6.010  0.0231  0.8116  0.0048
15539SOL     OW47194   9.579   1.305   4.359  0.4757  0.1747 -0.6978
15539SOL    HW147195   9.590   1.390   4.316  0.4426  0.8748  0.6366
15539SOL    HW247196   9.507   1.319   4.420 -0.5960 -1.2716 -1.5600
15540SOL     OW47197   8.816   3.639   7.236  0.0353  0.0890  0.2976
15540SOL    HW147198   8.742   3.656   7.296 -0.8311 -1.1223 -0.3931
15540SOL    HW247199   8.864   3.567   7.277  2.0926  2.1482  1.7917
15541SOL     OW47200   7.347   2.117   6.441  0.2350 -0.0301 -0.6218
15541SOL    HW147201   7.350   2.021   6.449  0.7887 -0.1318 -1.8817
15541SOL    HW247202   7.419   2.147   6.496  0.6386 -0.3925 -0.9441
15542SOL     OW47203   8.756   3.270   0.701  0.0159 -0.3964  0.0692
15542SOL    HW147204   8.786   3.342   0.645  1.0550 -2.6520 -2.5190
15542SOL    HW247205   8.676   3.239   0.659  0.4408 -1.7220  0.1942
15543SOL     OW47206   4.052   8.242   6.037 -0.0165  0.6040 -0.1889
15543SOL    HW147207   4.015   8.187   5.968  0.6193 -0.0441 -0.0372
15543SOL    HW247208   3.995   8.319   6.041 -0.9426 -0.0578 -0.3928
15544SOL     OW47209   7.192   1.019   5.887  0.0696 -0.6658 -0.3544
15544SOL    HW147210   7.285   0.999   5.874  0.3649 -0.2932  1.0509
15544SOL    HW247211   7.171   1.082   5.818  1.5705  1.3079  0.9111
15545SOL     OW47212   2.766   6.612   9.612 -0.6725  0.4024 -0.0345
15545SOL    HW147213   2.795   6.656   9.532  0.3985 -0.4086 -0.1063
15545SOL    HW247214   2.808   6.660   9.683 -2.2185  1.6010  0.1384
15546SOL     OW47215   2.704   3.216   9.218  0.2667  0.1686 -0.2786
15546SOL    HW147216   2.669   3.226   9.129  1.5159  0.8234 -0.7289
15546SOL    HW247217   2.646   3.268   9.273  0.1478  0.7125 -0.9047
15547SOL     OW47218   1.261   1.799   1.378  0.1199  0.3910  0.0044
15547SOL    HW147219   1.308   1.804   1.461  0.5175  1.6705 -0.2669
15547SOL    HW247220   1.318   1.845   1.316  0.4862 -1.7146 -1.3191
15548SOL     OW47221   6.132   3.706   2.273  0.3496 -0.6553  0.1629
15548SOL    HW147222   6.045   3.722   2.238  0.5002  0.6379  0.3514
15548SOL    HW247223   6.136   3.758   2.353  1.0304 -1.2988  0.5619
15549SOL     OW47224   2.991   3.754   4.785 -0.4570  0.0254  0.3927
15549SOL    HW147225   3.076   3.798   4.790 -0.1937 -0.4380  0.0495
15549SOL    HW247226   3.005   3.680   4.726 -1.4491  0.7316 -0.7673
15550SOL     OW47227   6.536   8.306   6.898 -0.0448  0.4647  0.0836
15550SOL    HW147228   6.452   8.292   6.942 -0.3976  0.1389 -0.6660
15550SOL    HW247229   6.524   8.267   6.811  0.6499  1.0342 -0.2785
15551SOL     OW47230   2.684   2.446   4.082 -0.9385  0.0928  0.4547
15551SOL    HW147231   2.608   2.485   4.038 -1.2063 -0.5877  0.3045
15551SOL    HW247232   2.668   2.460   4.175 -0.7308  0.8871  0.3743
15552SOL     OW47233   0.796   6.050   6.268 -0.2593 -0.2737 -0.1345
15552SOL    HW147234   0.872   6.101   6.296  0.1527 -1.5629  1.2194
15552SOL    HW247235   0.812   6.033   6.175  0.8306 -0.0594 -0.0042
15553SOL     OW47236   0.396   2.736   3.240 -0.3743 -0.4237  0.5658
15553SOL    HW147237   0.319   2.783   3.273 -1.3053  0.3465 -2.4209
15553SOL    HW247238   0.432   2.795   3.173 -0.5946 -3.1671 -2.1633
15554SOL     OW47239   8.503   7.964   2.521 -0.2402 -0.6611 -0.0815
15554SOL    HW147240   8.463   7.922   2.445 -1.5387  0.6874 -0.1837
15554SOL    HW247241   8.435   7.964   2.588 -0.2788  1.1721 -0.0730
15555SOL     OW47242   8.489   7.473   4.740  0.6895 -0.4172 -0.1896
15555SOL    HW147243   8.505   7.416   4.815 -1.2424 -2.2028 -1.0249
15555SOL    HW247244   8.395   7.466   4.724  0.2665  3.3861 -0.1413
15556SOL     OW47245   3.063   9.807   5.981  0.6518 -0.2317 -0.2340
15556SOL    HW147246   3.105   9.878   5.932 -0.6897 -0.2686 -1.4909
15556SOL    HW247247   3.133   9.744   5.996  2.0311  1.5586  1.4268
15557SOL     OW47248   4.663   0.358   9.930  1.0909 -0.0440  0.5702
15557SOL    HW147249   4.583   0.356   9.878  0.4966 -2.5221  1.4045
15557SOL    HW247250   4.710   0.279   9.903  1.6243 -0.4230  2.4315
15558SOL     OW47251   0.370   0.290   2.267 -0.7201 -0.7467 -0.3375
15558SOL    HW147252   0.349   0.380   2.295 -1.4883 -0.8897 -0.4330
15558SOL    HW247253   0.440   0.263   2.326 -1.2800 -0.4907  0.4728
15559SOL     OW47254   8.157   4.401   8.052 -0.1109 -0.1966  0.3968
15559SOL    HW147255   8.194   4.458   8.119 -0.5183  0.3004  0.2024
15559SOL    HW247256   8.114   4.331   8.101 -0.7634  0.3845  0.6648
15560SOL     OW47257   7.064   6.871   8.595  0.3099  0.2231 -0.0932
15560SOL    HW147258   7.066   6.823   8.512 -0.7921  0.1027 -0.0582
15560SOL    HW247259   6.976   6.909   8.599  0.5787  0.7820  0.7089
15561SOL     OW47260   2.148   5.131   7.343 -0.1621  0.3365  0.1853
15561SOL    HW147261   2.232   5.168   7.369  1.2623 -1.0638 -2.1213
15561SOL    HW247262   2.168   5.075   7.268 -3.0324 -0.7441  0.0979
15562SOL     OW47263   4.531   0.896   1.649  0.1778 -0.0606 -0.2058
15562SOL    HW147264   4.457   0.956   1.645  1.5597  1.7929  0.7022
15562SOL    HW247265   4.528   0.848   1.566 -2.3137 -0.4590  0.0308
15563SOL     OW47266   5.440   7.935   9.082  0.2638 -0.2904 -0.4672
15563SOL    HW147267   5.486   7.892   9.154  0.6661 -0.9713 -1.1154
15563SOL    HW247268   5.503   7.934   9.010 -0.1997  0.2108 -0.8857
15564SOL     OW47269   9.423   2.251   7.504  0.0811 -0.4179 -0.3427
15564SOL    HW147270   9.473   2.181   7.544 -0.2435  0.2831  1.3701
15564SOL    HW247271   9.392   2.215   7.421 -0.0920 -2.2878  0.4995
15565SOL     OW47272   0.561   2.235   7.340  0.7765  0.5399 -0.0549
15565SOL    HW147273   0.547   2.328   7.319 -0.3743  0.2528 -0.6011
15565SOL    HW247274   0.553   2.231   7.435 -0.5641  0.7915 -0.1388
15566SOL     OW47275   1.126   5.402   5.842  0.1024  0.2122  0.4571
15566SOL    HW147276   1.142   5.373   5.752 -1.8258 -0.6759  0.3479
15566SOL    HW247277   1.167   5.488   5.847  1.1623 -0.1794 -0.9373
15567SOL     OW47278   2.697   9.306   6.378 -0.1262  0.3430  0.2795
15567SOL    HW147279   2.760   9.351   6.321 -0.5207  0.5358 -0.0055
15567SOL    HW247280   2.745   9.229   6.410  0.0785  0.1956 -0.3625
15568SOL     OW47281   7.161   2.365   3.932 -0.4542 -0.0930  0.7087
15568SOL    HW147282   7.158   2.314   4.012 -0.3319 -0.7384  0.3088
15568SOL    HW247283   7.138   2.303   3.862 -1.7963  0.7397  0.3633
15569SOL     OW47284   3.530   1.458   7.764 -0.0490 -0.0709 -0.1307
15569SOL    HW147285   3.571   1.403   7.698 -0.5292 -0.7380  0.1056
15569SOL    HW247286   3.485   1.527   7.714 -0.6406 -0.7278 -0.5250
15570SOL     OW47287   6.324   8.317   2.412  0.1750  0.8189 -0.2596
15570SOL    HW147288   6.354   8.346   2.498 -0.7498 -0.1359  0.4108
15570SOL    HW247289   6.394   8.259   2.381  1.2769  2.4221 -0.9072
15571SOL     OW47290   0.364   2.860   5.625  1.0129 -0.3864  0.2383
15571SOL    HW147291   0.429   2.864   5.695  0.3273 -1.7944  1.0071
15571SOL    HW247292   0.285   2.898   5.664  1.0448  0.2392 -0.2943
15572SOL     OW47293   3.796   1.130   6.860 -0.5654 -0.1484  0.1264
15572SOL    HW147294   3.793   1.040   6.827 -2.0583 -0.2672  0.4948
15572SOL    HW247295   3.818   1.121   6.953 -0.0796 -0.0888  0.0162
15573SOL     OW47296   9.212   8.896   6.505  0.3851 -0.0258  0.0489
15573SOL    HW147297   9.244   8.861   6.422  1.6122  1.0223  0.0510
15573SOL    HW247298   9.237   8.830   6.570  3.0446  0.9097  0.1089
15574SOL     OW47299   9.501   7.604   1.548  0.5896  0.1779  0.8905
15574SOL    HW147300   9.583   7.557   1.530 -0.3520 -0.9734 -0.6468
15574SOL    HW247301   9.496   7.670   1.480  0.1100  0.0816  0.8330
15575SOL     OW47302   6.181   7.770   4.929  0.4575 -0.0826  0.4513
15575SOL    HW147303   6.211   7.684   4.959 -0.4973 -0.7803 -0.4975
15575SOL    HW247304   6.086   7.766   4.939  0.4135  0.9033  0.4576
15576SOL     OW47305   3.858   2.901   9.138 -0.4490 -0.8927 -0.4484
15576SOL    HW147306   3.823   2.972   9.191 -1.0379 -2.2546  1.0698
15576SOL    HW247307   3.933   2.939   9.092  0.7622  0.1231  2.1706
15577SOL     OW47308   4.797   7.957   7.995  0.2215 -0.1428  0.0698
15577SOL    HW147309   4.887   7.931   8.011 -0.3850 -1.2659  2.1058
15577SOL    HW247310   4.755   7.951   8.081 -1.7379  0.5969 -0.7674
15578SOL     OW47311   2.160   3.183   8.238  0.1381 -0.2229 -0.2052
15578SOL    HW147312   2.155   3.146   8.326  0.2631 -0.1652 -0.1730
15578SOL    HW247313   2.143   3.277   8.250  0.4034 -0.1737 -0.2089
15579SOL     OW47314   7.538   2.997   5.243 -0.0776  0.3356  0.0894
15579SOL    HW147315   7.566   3.004   5.152 -0.7358 -0.0163 -0.1497
15579SOL    HW247316   7.453   3.041   5.245 -0.5355 -0.5345  0.3029
15580SOL     OW47317   3.357   8.362   5.679  0.1844 -0.4563 -0.4066
15580SOL    HW147318   3.386   8.335   5.592 -1.9171 -0.3303 -1.2276
15580SOL    HW247319   3.263   8.341   5.679 -0.2546  1.3087  1.1187
15581SOL     OW47320   2.500   8.468   7.239  0.0453  0.9636 -0.8596
15581SOL    HW147321   2.416   8.428   7.216 -0.7209  1.9081  0.1591
15581SOL    HW247322   2.487   8.562   7.225  0.3235  1.3193  0.9356
15582SOL     OW47323   4.545   4.543   1.248 -0.6769  0.5073  1.0140
15582SOL    HW147324   4.613   4.581   1.191 -1.0975 -0.6034 -0.2845
15582SOL    HW247325   4.564   4.577   1.335  0.0932  2.1538  0.2394
15583SOL     OW47326   3.983   3.538   2.352  0.9007  0.4014  0.0492
15583SOL    HW147327   3.895   3.570   2.367  0.0449 -1.7012 -0.1589
15583SOL    HW247328   4.005   3.489   2.431  2.1860  1.4336  0.3855
15584SOL     OW47329   6.414   9.862   1.885  0.3292  0.2108  0.5536
15584SOL    HW147330   6.374   9.866   1.798  1.2257  1.9873  0.1642
15584SOL    HW247331   6.507   9.843   1.867  0.3832 -0.1055  1.1629
15585SOL     OW47332   3.998   8.097   0.082  0.3017  0.2752  0.2394
15585SOL    HW147333   3.979   8.016   0.036 -1.0842  0.7076  0.0146
15585SOL    HW247334   4.002   8.163   0.013 -0.7893  0.7587  0.6187
15586SOL     OW47335   4.540   7.618   9.477 -0.1603 -0.1365  0.0234
15586SOL    HW147336   4.621   7.588   9.516  0.2694  1.5812  0.5478
15586SOL    HW247337   4.473   7.600   9.543  0.0630 -0.0463  0.2731
15587SOL     OW47338   5.344   8.079   5.107 -0.5780  0.1852  0.3584
15587SOL    HW147339   5.386   8.083   5.193 -0.5117  1.4946  0.2878
15587SOL    HW247340   5.265   8.028   5.121 -0.4067  0.1230  1.1345
15588SOL     OW47341   9.429   7.364   5.076 -0.1916 -0.1326  0.4484
15588SOL    HW147342   9.453   7.445   5.031 -0.8547  0.8875  1.8539
15588SOL    HW247343   9.511   7.314   5.081  0.2124  0.4156 -0.4993
15589SOL     OW47344   5.965   1.757   6.550 -0.1342 -0.0385 -0.2403
15589SOL    HW147345   6.053   1.719   6.559  0.1134  0.6181  0.1966
15589SOL    HW247346   5.906   1.687   6.576  0.3140 -0.1281  0.5668
15590SOL     OW47347   9.392   7.818   6.498  0.0387  0.0075  0.3009
15590SOL    HW147348   9.306   7.777   6.494 -1.1979  2.4584 -3.0900
15590SOL    HW247349   9.439   7.783   6.423 -0.2842  2.8858 -1.4032
15591SOL     OW47350   7.878   5.008   2.032  0.1688 -0.2190 -0.0308
15591SOL    HW147351   7.859   5.038   1.943  0.5910  0.6405  0.1655
15591SOL    HW247352   7.974   5.014   2.039  0.1546 -0.5055  0.4080
15592SOL     OW47353   1.963   5.150   7.658  0.2175  0.0105  0.1127
15592SOL    HW147354   1.975   5.056   7.668  0.3891  0.0226  0.0224
15592SOL    HW247355   1.943   5.162   7.565 -1.5750 -0.1249  0.4402
15593SOL     OW47356   1.448   2.916   5.457  0.0125  0.0796  0.2816
15593SOL    HW147357   1.443   2.841   5.398 -0.2229 -0.1735  0.6163
15593SOL    HW247358   1.528   2.900   5.508 -1.3068 -1.2703  2.0860
15594SOL     OW47359   0.852   8.812   8.874  0.5262 -0.1717  0.0557
15594SOL    HW147360   0.857   8.716   8.881  0.7963 -0.1247  0.6189
15594SOL    HW247361   0.894   8.843   8.955  0.3119  0.4191 -0.0603
15595SOL     OW47362   3.193   2.127   2.710 -0.2137 -0.1732 -0.0804
15595SOL    HW147363   3.134   2.052   2.714 -1.0536  0.5272  1.5511
15595SOL    HW247364   3.164   2.175   2.632 -1.8016  0.1285  0.6463
15596SOL     OW47365   1.702   5.874   9.318  0.2942  0.0727  0.3125
15596SOL    HW147366   1.791   5.840   9.316 -0.1189 -1.0417 -0.8655
15596SOL    HW247367   1.682   5.895   9.227 -0.6333  0.3398  0.5619
15597SOL     OW47368   6.682   3.801   8.027  0.6368 -0.1561 -0.1108
15597SOL    HW147369   6.724   3.850   8.098  0.7901 -0.4694  0.0192
15597SOL    HW247370   6.597   3.776   8.063  1.3553 -1.7273  0.5879
15598SOL     OW47371   6.525   7.516   6.588  0.4679  0.1355 -0.6164
15598SOL    HW147372   6.467   7.455   6.634  3.1343 -0.7272  1.8741
15598SOL    HW247373   6.466   7.582   6.552 -2.0815 -0.9503  1.2789
15599SOL     OW47374   9.105   9.838   3.781  0.1165 -0.3698  0.3982
15599SOL    HW147375   9.080   9.869   3.693  1.0017 -0.2001  0.1990
15599SOL    HW247376   9.166   9.904   3.813  0.2727 -0.7523  0.8955
15600SOL     OW47377   2.027   9.942   9.771 -0.6297  0.1937  0.3238
15600SOL    HW147378   2.087   9.926   9.698 -1.5200  1.1984 -0.6612
15600SOL    HW247379   1.941   9.916   9.737 -1.3518  2.3831  0.3147
15601SOL     OW47380   2.033   8.162   0.109  0.4086  0.3629 -0.1960
15601SOL    HW147381   2.047   8.249   0.147  1.3771  0.6384 -1.1383
15601SOL    HW247382   2.017   8.105   0.184 -0.7371  1.4257  0.4125
15602SOL     OW47383   3.907   0.957   2.114  0.3331  0.0245 -0.1481
15602SOL    HW147384   3.949   1.021   2.055 -0.7519 -0.2517 -1.2587
15602SOL    HW247385   3.896   1.004   2.196 -0.1165  1.1698 -0.8363
15603SOL     OW47386   4.429   9.782   4.860 -0.5195  0.4655 -0.2763
15603SOL    HW147387   4.512   9.785   4.908 -0.9499 -0.6373  0.5951
15603SOL    HW247388   4.362   9.792   4.928 -1.1647 -1.5824 -0.5231
15604SOL     OW47389   9.658   8.561   0.771 -0.0622  0.1242  0.2459
15604SOL    HW147390   9.646   8.651   0.741 -0.4595  0.0471  0.1721
15604SOL    HW247391   9.631   8.507   0.696 -2.4959 -0.0994  1.1960
15605SOL     OW47392   9.644   8.018   2.634 -0.5321  0.0563 -0.1386
15605SOL    HW147393   9.605   8.084   2.691 -2.0485  0.2809 -1.3571
15605SOL    HW247394   9.634   8.054   2.546 -0.3575 -1.3057 -0.7333
15606SOL     OW47395   9.370   2.414   7.713 -0.7100 -0.5236  0.0208
15606SOL    HW147396   9.396   2.343   7.654  0.7143 -0.3049  0.3596
15606SOL    HW247397   9.375   2.493   7.658  0.8000 -0.2941  0.4312
15607SOL     OW47398   3.823   4.982   3.176  0.2638 -0.2389  0.6990
15607SOL    HW147399   3.851   4.906   3.226  1.5988  0.2323  0.6981
15607SOL    HW247400   3.796   5.046   3.242  0.9746 -0.0238  0.7933
15608SOL     OW47401   1.934   4.614   1.862  0.1082 -0.0953  0.6477
15608SOL    HW147402   1.927   4.684   1.926  1.4167  0.0536  0.6520
15608SOL    HW247403   2.013   4.634   1.812  0.6505 -1.6808  0.7919
15609SOL     OW47404   0.389   3.015   4.863 -0.1552  0.1238 -0.5049
15609SOL    HW147405   0.380   3.109   4.852  0.6803  0.2036 -0.5710
15609SOL    HW247406   0.308   2.988   4.906 -0.6310  0.7851 -0.9701
15610SOL     OW47407   5.399   1.422   8.603 -0.3503 -0.5488 -0.2556
15610SOL    HW147408   5.386   1.348   8.543 -0.1858  0.1838 -1.2175
15610SOL    HW247409   5.318   1.472   8.597 -0.4790 -0.6719  0.4281
15611SOL     OW47410   0.910   7.125   7.216 -0.0070  0.1664  0.1827
15611SOL    HW147411   0.924   7.219   7.228  2.0687  0.0165 -0.5744
15611SOL    HW247412   0.984   7.097   7.161  0.4182 -2.2087  1.8186
15612SOL     OW47413   4.304   9.892   5.557  0.2384 -0.6388 -0.7152
15612SOL    HW147414   4.223   9.943   5.558 -0.0670 -1.1198  0.5604
15612SOL    HW247415   4.293   9.828   5.627  2.2279  0.0680  0.3110
15613SOL     OW47416   6.146   2.708   8.061  0.4172  0.1276 -0.2424
15613SOL    HW147417   6.188   2.629   8.096 -1.7088 -0.5234  1.0672
15613SOL    HW247418   6.168   2.777   8.123 -0.1544 -0.1473  0.2812
15614SOL     OW47419   5.314   7.829   6.243 -0.4625  0.3493 -0.0758
15614SOL    HW147420   5.399   7.863   6.271 -0.3451 -0.3400  0.4153
15614SOL    HW247421   5.299   7.752   6.298 -2.0424  1.2444  0.8146
15615SOL     OW47422   6.221   3.038   0.458  0.4708  0.9114  0.3189
15615SOL    HW147423   6.154   2.988   0.411  0.0678  0.9652  0.8176
15615SOL    HW247424   6.231   3.119   0.408  0.8468  0.4961 -0.2795
15616SOL     OW47425   8.559   8.342   6.380  0.4878  0.0255 -0.0868
15616SOL    HW147426   8.625   8.389   6.329 -0.0586  0.5610 -0.3174
15616SOL    HW247427   8.503   8.301   6.314  1.8029 -2.2066  0.1017
15617SOL     OW47428   0.607   6.905   6.762 -0.0615 -0.1661  0.3485
15617SOL    HW147429   0.513   6.894   6.753 -0.3226  1.9346 -0.0364
15617SOL    HW247430   0.639   6.917   6.672  0.2539  1.0605  0.5999
15618SOL     OW47431   9.194   9.715   7.673 -0.0034  0.1656  0.4202
15618SOL    HW147432   9.215   9.634   7.719 -1.4897 -0.1091  0.6792
15618SOL    HW247433   9.125   9.690   7.611  0.2219  1.0338 -0.2015
15619SOL     OW47434   9.438   1.055   6.306  0.3669 -0.0603  0.1111
15619SOL    HW147435   9.359   1.022   6.350 -0.3222 -0.3575 -1.2727
15619SOL    HW247436   9.461   1.134   6.354  0.5012 -1.1215  1.8751
15620SOL     OW47437   8.456   1.703   5.180 -0.0916  0.1844 -0.0157
15620SOL    HW147438   8.541   1.737   5.153 -0.0499 -0.2351 -0.4156
15620SOL    HW247439   8.396   1.732   5.111 -0.5727  1.7721  0.9941
15621SOL     OW47440   9.313   5.783   8.110  0.1769  0.3036  0.4544
15621SOL    HW147441   9.242   5.752   8.055  1.0379  0.5954 -0.8752
15621SOL    HW247442   9.378   5.713   8.108  1.1266  1.1861 -0.6653
15622SOL     OW47443   1.687   7.687   7.484 -0.2384 -0.5573  0.8400
15622SOL    HW147444   1.620   7.750   7.457  0.4847  0.4367  1.3181
15622SOL    HW247445   1.668   7.670   7.576 -1.4669 -2.3873  0.3060
15623SOL     OW47446   0.714   1.676   5.775 -0.4955 -0.2490 -0.0293
15623SOL    HW147447   0.806   1.652   5.782  0.0375  1.4493 -0.5384
15623SOL    HW247448   0.709   1.762   5.818 -1.9533 -0.5717  0.4821
15624SOL     OW47449   7.532   3.625   6.508 -0.3073 -0.0421  0.2511
15624SOL    HW147450   7.544   3.716   6.481  0.1436 -0.2844 -0.3878
15624SOL    HW247451   7.514   3.579   6.426 -4.0605  0.0117  0.8690
15625SOL     OW47452   1.005   8.802   0.140 -0.3223 -0.3418 -0.4434
15625SOL    HW147453   1.085   8.809   0.089 -0.6284  3.3252 -0.6607
15625SOL    HW247454   1.033   8.807   0.231 -0.2301  0.1527 -0.4964
15626SOL     OW47455   8.610   5.741   9.037 -0.0888  0.7779  0.1953
15626SOL    HW147456   8.683   5.720   8.979  0.9209 -0.3444  1.7841
15626SOL    HW247457   8.533   5.708   8.991  0.6957 -0.1671 -0.4873
15627SOL     OW47458   0.826   6.312   3.330 -0.6996  0.4967  0.1235
15627SOL    HW147459   0.798   6.355   3.410  0.5055 -0.3246  1.0200
15627SOL    HW247460   0.918   6.337   3.319 -0.5076 -0.3570 -0.3398
15628SOL     OW47461   8.274   2.746   7.236  0.3365  0.0137 -0.1203
15628SOL    HW147462   8.361   2.744   7.194  1.0817  0.3900  1.3437
15628SOL    HW247463   8.281   2.682   7.307 -0.4219  0.4069  0.3146
15629SOL     OW47464   9.948   4.791   0.606 -0.4722  0.0357  0.1216
15629SOL    HW147465  10.006   4.809   0.679  0.2530 -0.2947 -0.3630
15629SOL    HW247466   9.931   4.697   0.611 -0.1211 -0.0547 -0.3453
15630SOL     OW47467   0.344   7.500   9.490 -0.1343  0.4368  0.1575
15630SOL    HW147468   0.406   7.565   9.456  0.6487 -0.7891 -0.8417
15630SOL    HW247469   0.294   7.473   9.413 -2.0430  1.4707  0.9508
15631SOL     OW47470   7.841   8.038  10.007 -0.2515  0.5344  0.0632
15631SOL    HW147471   7.809   7.976   9.942  1.0243 -0.2951  0.1775
15631SOL    HW247472   7.839   8.123   9.963 -0.3747  0.1421 -0.7023
15632SOL     OW47473   8.458  -0.001   7.359  0.0813  0.1690 -0.5897
15632SOL    HW147474   8.371   0.038   7.348 -0.1029  0.0013  0.2073
15632SOL    HW247475   8.519   0.071   7.343 -0.2568  0.8924  1.1347
15633SOL     OW47476   6.080   9.176   8.079  0.3805 -0.1254 -0.1169
15633SOL    HW147477   6.077   9.221   8.164  3.4047 -0.0604  0.0441
15633SOL    HW247478   6.044   9.240   8.017 -0.4356  0.4090  0.8789
15634SOL     OW47479   2.603   4.138   7.134 -0.5028  0.4354  0.0540
15634SOL    HW147480   2.692   4.163   7.157 -0.2604 -0.2633 -0.0855
15634SOL    HW247481   2.581   4.067   7.196 -1.0506  0.7619  0.2455
15635SOL     OW47482   3.686   5.558   0.400  0.2756 -0.5307 -0.3063
15635SOL    HW147483   3.706   5.538   0.492  2.3632 -1.1478 -0.8314
15635SOL    HW247484   3.674   5.472   0.359 -0.2946 -0.2753 -0.6863
15636SOL     OW47485   8.807   3.111   2.487  0.0351  0.2154 -0.2426
15636SOL    HW147486   8.717   3.114   2.453  0.0245  1.2148 -0.1394
15636SOL    HW247487   8.821   3.018   2.507 -0.8974  0.0130 -0.4599
15637SOL     OW47488   5.490   9.106   0.687  0.5561 -0.1470  0.2367
15637SOL    HW147489   5.437   9.163   0.632  1.3981 -0.8201 -1.3527
15637SOL    HW247490   5.494   9.150   0.772 -0.3894  1.1739 -0.3818
15638SOL     OW47491   2.997   2.314   8.673  0.3672  0.2374 -0.2985
15638SOL    HW147492   2.907   2.341   8.691 -0.8227 -1.8820 -2.3832
15638SOL    HW247493   3.031   2.286   8.758 -0.5944  1.9192  0.6874
15639SOL     OW47494   7.925   6.027   3.190 -0.1446 -0.5061  0.1840
15639SOL    HW147495   7.897   6.103   3.241  1.1978 -0.7251  1.2921
15639SOL    HW247496   7.965   6.064   3.111 -0.2240 -0.0983  0.3309
15640SOL     OW47497   4.403   5.495   8.918  0.3613  0.1560  0.2143
15640SOL    HW147498   4.355   5.495   9.000  1.4190 -2.1271  0.9219
15640SOL    HW247499   4.337   5.473   8.852 -0.5651  2.3475  0.3414
15641SOL     OW47500   6.372   3.674   1.313  0.1409  0.4364  0.3231
15641SOL    HW147501   6.293   3.696   1.363  0.4912  0.2764  0.9655
15641SOL    HW247502   6.443   3.677   1.378  0.6210  0.3009 -0.1861
15642SOL     OW47503   9.664   0.575   2.391 -0.0333 -0.5783 -0.5626
15642SOL    HW147504   9.668   0.480   2.382 -0.1382 -0.5909 -0.4794
15642SOL    HW247505   9.616   0.604   2.313  0.3526 -0.5564 -0.7969
15643SOL     OW47506   5.090   2.673   9.890  0.6174  0.3533 -0.2258
15643SOL    HW147507   5.110   2.756   9.846 -1.6427  2.5968  2.5660
15643SOL    HW247508   5.154   2.668   9.962  0.9461 -0.5193 -0.5732
15644SOL     OW47509   5.272   8.767   3.217  0.0062 -0.6124 -0.1816
15644SOL    HW147510   5.293   8.789   3.127  0.9664 -1.9283 -0.3014
15644SOL    HW247511   5.334   8.818   3.269 -1.1837  0.9034 -0.1813
15645SOL     OW47512   1.934   2.842   4.716 -0.1644 -0.5940 -1.1827
15645SOL    HW147513   1.987   2.921   4.725 -1.6298  0.1841  3.2525
15645SOL    HW247514   1.845   2.874   4.700 -1.0471 -1.0281  2.1161
15646SOL     OW47515   0.034   5.372   7.020  0.2755  0.2568  0.0458
15646SOL    HW147516   0.045   5.334   6.933 -0.7141 -0.0739  0.0533
15646SOL    HW247517  -0.059   5.395   7.025  0.4886  1.0390  0.7127
15647SOL     OW47518   2.844   7.508   6.019 -0.5016 -0.5468  0.2544
15647SOL    HW147519   2.796   7.426   6.025  0.5819 -1.1956  0.4334
15647SOL    HW247520   2.934   7.484   6.041 -0.0163  0.5449 -0.4663
15648SOL     OW47521   9.261   7.596   4.711  0.0362  0.0098 -0.7705
15648SOL    HW147522   9.197   7.643   4.658  1.2881  1.8247 -0.7463
15648SOL    HW247523   9.346   7.629   4.681  0.9109 -1.2659  0.1944
15649SOL     OW47524   2.034   3.023   8.874 -0.3692 -0.9131 -0.0230
15649SOL    HW147525   2.014   2.931   8.888  0.4206 -1.1575 -0.4326
15649SOL    HW247526   2.107   3.023   8.812 -0.6199 -0.0036 -0.3400
15650SOL     OW47527   5.963   2.949   7.566  0.1126  0.0821  0.4983
15650SOL    HW147528   5.915   2.921   7.644 -1.5428 -2.1555 -1.1803
15650SOL    HW247529   5.907   3.018   7.528  0.6681  0.8180  0.9872
15651SOL     OW47530   7.900   8.807   0.186  0.1997 -0.3387 -0.4105
15651SOL    HW147531   7.962   8.793   0.114  0.8432  0.0968  0.0533
15651SOL    HW247532   7.825   8.751   0.164 -0.3131  0.9721 -2.2460
15652SOL     OW47533   3.389   8.759   0.409  0.3279  0.2562 -0.4248
15652SOL    HW147534   3.376   8.706   0.330  0.5012  0.9495 -0.9349
15652SOL    HW247535   3.484   8.759   0.423  0.2230 -0.6076  0.3150
15653SOL     OW47536   6.593   2.072   3.283 -0.0240 -0.2307 -1.0628
15653SOL    HW147537   6.531   2.130   3.327 -0.3429 -1.9133  0.8963
15653SOL    HW247538   6.539   2.020   3.223  0.1406  0.9124 -2.2312
15654SOL     OW47539   1.766   6.744   4.627  0.8376 -0.1674 -0.3175
15654SOL    HW147540   1.770   6.838   4.648 -2.9971  0.9258 -3.4685
15654SOL    HW247541   1.802   6.738   4.539  0.3608 -1.5890 -0.4279
15655SOL     OW47542   8.909   8.026   0.195  0.4842  0.0805 -0.0975
15655SOL    HW147543   8.939   8.073   0.273 -2.3504  1.5347  0.2666
15655SOL    HW247544   8.813   8.030   0.200  0.1763 -1.4880 -2.6814
15656SOL     OW47545   6.005   7.903   0.001 -0.3153 -0.2729 -0.0710
15656SOL    HW147546   5.963   7.895   0.086  0.4791  0.8350  0.4530
15656SOL    HW247547   6.084   7.849   0.007  0.1887  0.4705  0.2195
15657SOL     OW47548   9.163   5.651   3.023 -0.4656  0.3603  0.5803
15657SOL    HW147549   9.174   5.637   3.117 -1.2921 -1.1887  0.4908
15657SOL    HW247550   9.249   5.679   2.993 -0.1316  0.6607  1.7552
15658SOL     OW47551   2.938   7.610   3.969 -0.0408  0.0852 -0.0194
15658SOL    HW147552   2.914   7.593   3.878 -0.6367  1.8544 -0.2168
15658SOL    HW247553   3.018   7.662   3.963 -1.3449  2.2156  0.3641
15659SOL     OW47554   2.559   2.428   9.607  0.1250  0.2181 -0.0684
15659SOL    HW147555   2.505   2.434   9.686 -0.7724 -1.4358 -0.4958
15659SOL    HW247556   2.550   2.514   9.565 -1.5198  0.2747  0.3158
15660SOL     OW47557   4.655   7.960   4.459  0.2220 -0.1916  0.3262
15660SOL    HW147558   4.643   7.870   4.492 -1.9953 -0.8701 -2.0673
15660SOL    HW247559   4.750   7.968   4.450  0.6046 -1.6153  2.2475
15661SOL     OW47560   3.237   4.177   6.014  0.2882  0.4495 -0.4467
15661SOL    HW147561   3.177   4.135   6.075 -0.2452 -0.7547 -1.7325
15661SOL    HW247562   3.201   4.157   5.927  1.6430  1.1163 -1.2038
15662SOL     OW47563   3.339   3.986   7.287 -0.0552 -0.2667 -0.3849
15662SOL    HW147564   3.333   4.011   7.379  4.0129  0.7068 -0.1903
15662SOL    HW247565   3.352   4.069   7.240  1.6485 -0.9665 -1.2712
15663SOL     OW47566   6.483   3.006   7.766 -0.1876 -0.3655 -0.1280
15663SOL    HW147567   6.441   3.057   7.696  0.2607 -0.8728 -0.7748
15663SOL    HW247568   6.550   3.065   7.801  0.1864 -0.4208 -0.7325
15664SOL     OW47569   4.634   0.356   6.649  0.2054 -0.2692  0.0765
15664SOL    HW147570   4.717   0.372   6.605 -0.8265 -0.7526 -2.2273
15664SOL    HW247571   4.571   0.346   6.578 -1.4695 -1.9520  1.6624
15665SOL     OW47572   8.507   8.512   2.334  0.2512  0.1215  0.3665
15665SOL    HW147573   8.598   8.497   2.310 -0.0252  0.0278 -0.6593
15665SOL    HW247574   8.457   8.488   2.257 -0.5287  1.9572  0.2376
15666SOL     OW47575   0.967   0.479   8.675  0.0183 -0.3350  0.1140
15666SOL    HW147576   0.911   0.409   8.708  2.0010 -0.8079  2.8352
15666SOL    HW247577   0.965   0.546   8.743  1.2222  0.4852 -0.6079
15667SOL     OW47578   2.408   5.268   5.315  0.1290 -0.3127  0.0645
15667SOL    HW147579   2.397   5.205   5.386  2.1247 -0.9763 -0.1606
15667SOL    HW247580   2.418   5.353   5.359 -1.3038 -0.2958  0.4180
15668SOL     OW47581   9.814   5.372   3.162  0.1668 -0.4453 -0.0911
15668SOL    HW147582   9.783   5.334   3.081  0.0450  1.0593 -0.7944
15668SOL    HW247583   9.908   5.352   3.165 -0.1171 -1.7950  0.1736
15669SOL     OW47584   5.347   2.433   8.929 -0.3565  0.0880 -0.1037
15669SOL    HW147585   5.289   2.421   8.853  0.4247 -0.9775 -0.5598
15669SOL    HW247586   5.292   2.476   8.994 -1.4781 -0.3089 -0.7498
15670SOL     OW47587   3.480   4.398   8.996  0.2965 -0.4177 -0.3596
15670SOL    HW147588   3.493   4.484   9.037 -0.0944 -0.9887  1.0326
15670SOL    HW247589   3.456   4.340   9.069 -2.2258 -1.0963 -1.6178
15671SOL     OW47590   2.477   0.044   4.872  0.3101  0.1484 -0.1888
15671SOL    HW147591   2.570   0.030   4.855  0.4325 -0.0423  0.5824
15671SOL    HW247592   2.438   0.058   4.786  1.1525  0.8503 -0.4614
15672SOL     OW47593   0.144   8.212   7.162 -1.0336 -0.2808  0.1578
15672SOL    HW147594   0.187   8.289   7.199  0.9553 -1.1581 -0.1565
15672SOL    HW247595   0.207   8.141   7.175 -1.7497 -1.3409 -1.7062
15673SOL     OW47596   4.148   0.005   6.807  0.3330  0.3800  0.0383
15673SOL    HW147597   4.161   0.095   6.838  1.0773  0.2609  0.0780
15673SOL    HW247598   4.213  -0.047   6.855  0.8317  0.0334 -0.9785
15674SOL     OW47599   2.602   3.821   1.060 -0.0420 -0.4734  0.2413
15674SOL    HW147600   2.512   3.854   1.056  1.4898  4.4532 -0.4293
15674SOL    HW247601   2.626   3.829   1.153  0.5551  1.4140 -0.0220
15675SOL     OW47602   4.906   2.479   1.912 -0.4335  0.0748  0.1700
15675SOL    HW147603   4.870   2.449   1.828 -1.1080  0.8626  0.1647
15675SOL    HW247604   4.986   2.427   1.924 -0.8905 -0.8087 -0.4431
15676SOL     OW47605   4.691   5.399   3.145  0.2384 -0.4053  0.0709
15676SOL    HW147606   4.733   5.482   3.120 -1.5059  0.0252 -1.7346
15676SOL    HW247607   4.606   5.425   3.181 -1.0642 -1.3662 -2.0643
15677SOL     OW47608   5.839   2.830   9.017  0.3460  0.2023  0.3887
15677SOL    HW147609   5.887   2.910   9.038  0.8713  0.2909 -1.0704
15677SOL    HW247610   5.886   2.761   9.063  1.0649  0.4648  0.0482
15678SOL     OW47611   7.720   6.792   9.649  0.4600  0.3318 -0.2504
15678SOL    HW147612   7.683   6.881   9.655 -3.1070 -1.0107  0.4342
15678SOL    HW247613   7.717   6.772   9.556 -3.4357 -0.6209 -0.1123
15679SOL     OW47614   0.312   5.262   5.320 -0.3673  0.4585  0.8308
15679SOL    HW147615   0.236   5.318   5.300 -1.3763 -0.3515  2.2403
15679SOL    HW247616   0.281   5.173   5.304 -0.1684  0.0168  2.6765
15680SOL     OW47617   8.428   9.595   1.639  0.0606 -0.3441  0.3354
15680SOL    HW147618   8.460   9.544   1.714  4.4717  1.0017 -0.3278
15680SOL    HW247619   8.386   9.671   1.679  0.1411 -0.8470  1.4148
15681SOL     OW47620   7.398   0.297   8.922  0.1826 -0.0340 -0.3383
15681SOL    HW147621   7.414   0.218   8.974 -1.7012 -0.2914 -0.0830
15681SOL    HW247622   7.415   0.369   8.982 -0.7381 -0.3124  0.2806
15682SOL     OW47623   5.513   8.105   4.895  0.2594  0.0054 -0.6494
15682SOL    HW147624   5.529   8.199   4.898  3.2557 -0.4525  0.3988
15682SOL    HW247625   5.490   8.082   4.985  1.2451 -0.4998 -0.5192
15683SOL     OW47626   1.145   7.041   6.887  0.0740  0.3240  0.1330
15683SOL    HW147627   1.168   7.093   6.810 -0.4244  0.1959 -0.1099
15683SOL    HW247628   1.062   6.999   6.863  0.3368 -0.3727  0.4236
15684SOL     OW47629   7.291   5.036   5.372  0.2813  0.0593 -0.1574
15684SOL    HW147630   7.238   4.970   5.417  0.0808 -0.5340 -1.2353
15684SOL    HW247631   7.352   4.985   5.318  0.1129  0.7462 -1.0137
15685SOL     OW47632   5.967   5.054   5.105  0.0359  0.1336  0.5529
15685SOL    HW147633   6.014   5.119   5.053  0.7222  0.1622  1.1890
15685SOL    HW247634   6.028   4.981   5.112 -0.4493 -0.2807  0.4643
15686SOL     OW47635   3.276   6.009   0.927  0.2931  0.0393  0.2025
15686SOL    HW147636   3.181   6.025   0.932  0.5140  0.9537  1.9089
15686SOL    HW247637   3.295   5.952   1.001  1.1040 -0.1116 -0.1106
15687SOL     OW47638   9.180   6.577   6.444 -0.0163 -0.2107 -0.1875
15687SOL    HW147639   9.131   6.502   6.479 -0.8416  0.4331  0.0628
15687SOL    HW247640   9.117   6.623   6.388  0.4115  0.4199 -0.1585
15688SOL     OW47641   0.093   4.397   3.040 -0.2159 -0.2701 -0.1662
15688SOL    HW147642   0.161   4.460   3.015 -0.4736  0.0418 -0.0775
15688SOL    HW247643   0.048   4.438   3.113 -1.6869  0.3328 -1.3708
15689SOL     OW47644   1.083   5.102   4.580  0.3533  0.4920 -0.2495
15689SOL    HW147645   1.057   5.064   4.663 -1.9215  0.9134 -0.7020
15689SOL    HW247646   1.012   5.080   4.519 -0.8025  4.6267 -0.7391
15690SOL     OW47647   1.222   4.483   2.386 -0.4747  1.0815 -0.4283
15690SOL    HW147648   1.159   4.436   2.332 -0.6174  0.6692  0.0928
15690SOL    HW247649   1.275   4.532   2.323 -1.2172  1.3208 -0.8842
15691SOL     OW47650   9.642   3.942   5.201 -0.3409  0.7347  0.0853
15691SOL    HW147651   9.576   3.954   5.133  0.7037  1.4981 -0.8184
15691SOL    HW247652   9.647   4.027   5.245  0.9934  1.1297 -0.7614
15692SOL     OW47653   4.200   7.917   0.372 -0.3582  0.6577  1.2011
15692SOL    HW147654   4.266   7.893   0.437  0.6329  0.9278  0.3359
15692SOL    HW247655   4.137   7.846   0.374  2.1018 -1.8066 -0.7790
15693SOL     OW47656   6.546   7.940   7.143 -0.0136 -0.3651  0.2033
15693SOL    HW147657   6.583   8.019   7.103  0.1821 -0.7245 -0.3426
15693SOL    HW247658   6.472   7.917   7.086 -2.2623  1.3298  2.2397
15694SOL     OW47659   0.993   6.141   0.064 -0.0570 -0.0691  0.0345
15694SOL    HW147660   0.902   6.114   0.057  0.0496 -1.3162  2.4516
15694SOL    HW247661   1.036   6.102  -0.012 -0.7967 -3.0699  1.0211
15695SOL     OW47662   2.944   6.947   4.071  0.2901  0.1647 -0.3736
15695SOL    HW147663   3.012   6.915   4.011 -0.8602 -0.4774 -1.3732
15695SOL    HW247664   2.880   6.877   4.076 -0.9733  1.2551 -0.5146
15696SOL     OW47665   5.130   4.675   6.982  0.4450 -0.4717  0.0017
15696SOL    HW147666   5.058   4.738   6.971  0.3394 -0.2964  1.4417
15696SOL    HW247667   5.138   4.633   6.897  0.1835  1.1327 -0.8677
15697SOL     OW47668   6.458   8.776   5.706  0.6243  0.2975  0.3054
15697SOL    HW147669   6.545   8.804   5.735  0.1813  1.3697  0.6508
15697SOL    HW247670   6.418   8.737   5.783  0.9470 -0.6386  0.0256
15698SOL     OW47671   7.776   7.460   1.263 -0.4788 -0.1320  0.0188
15698SOL    HW147672   7.714   7.529   1.288  0.1784  0.1180  0.9734
15698SOL    HW247673   7.778   7.400   1.337 -0.8222 -1.0445 -0.6841
15699SOL     OW47674   1.766   1.776   9.855  0.0633  0.3096  0.3173
15699SOL    HW147675   1.798   1.760   9.767 -0.9363 -0.2986  0.0477
15699SOL    HW247676   1.747   1.870   9.857  1.5667  0.6394  0.4116
15700SOL     OW47677   9.178   0.503   5.583 -0.0700  0.5733  0.4850
15700SOL    HW147678   9.219   0.532   5.664 -0.7494  0.5161  0.8584
15700SOL    HW247679   9.086   0.529   5.591 -0.1408  0.6071 -0.2877
15701SOL     OW47680   4.059   5.684   0.760  0.6193 -0.3407  0.1330
15701SOL    HW147681   4.028   5.772   0.739  0.6970 -0.4417 -0.4129
15701SOL    HW247682   3.990   5.647   0.816  0.0548 -0.3319 -0.5427
15702SOL     OW47683   7.002   0.494   1.405 -0.2528  0.0867  0.0303
15702SOL    HW147684   6.951   0.572   1.427 -1.7964  0.0051 -2.8515
15702SOL    HW247685   7.076   0.527   1.354 -0.7112 -0.2868 -0.8856
15703SOL     OW47686   6.858   2.438   6.543  0.0820 -0.2691 -0.7550
15703SOL    HW147687   6.888   2.520   6.503  0.1190 -0.6902 -1.6147
15703SOL    HW247688   6.937   2.400   6.581 -0.1835  0.7859  0.9630
15704SOL     OW47689   8.723   9.329   3.145  0.3057 -0.3369  0.3533
15704SOL    HW147690   8.736   9.419   3.175 -1.4258 -0.2566  0.9387
15704SOL    HW247691   8.644   9.300   3.189 -1.7936 -0.6205 -3.2162
15705SOL     OW47692   3.110   3.869   2.026 -0.3731 -0.3740 -0.3905
15705SOL    HW147693   3.194   3.855   2.071 -0.3101 -2.4613 -1.0760
15705SOL    HW247694   3.051   3.805   2.066 -2.2661  2.2804  1.4043
15706SOL     OW47695   5.997   5.564   9.880 -0.6822  0.6014  0.0602
15706SOL    HW147696   5.946   5.634   9.921  0.9597  1.6159  0.4502
15706SOL    HW247697   6.071   5.551   9.938 -0.6698 -1.1052 -0.3001
15707SOL     OW47698   8.988   0.501   1.885 -0.2804  0.1157 -0.1107
15707SOL    HW147699   8.908   0.551   1.902 -0.0316  0.6988 -0.6171
15707SOL    HW247700   9.011   0.464   1.970  0.2350  1.9167  0.5966
15708SOL     OW47701   0.189   5.728   7.976 -0.2353 -0.1959  0.5089
15708SOL    HW147702   0.220   5.682   7.898 -1.6172 -0.4893  0.0955
15708SOL    HW247703   0.224   5.678   8.050  1.0892  0.0901  0.0854
15709SOL     OW47704   1.136  10.011   3.020 -0.4031 -0.1343 -0.3803
15709SOL    HW147705   1.115   9.924   3.053 -0.5018 -0.5006 -1.3613
15709SOL    HW247706   1.127  10.003   2.925  0.0099  0.8335 -0.5138
15710SOL     OW47707   8.708   6.352   2.451  0.4644  0.5448  0.7772
15710SOL    HW147708   8.615   6.376   2.449  0.3234  0.0764  1.3682
15710SOL    HW247709   8.746   6.410   2.518  0.6726  0.9752  0.2923
15711SOL     OW47710   9.663   5.840   7.697 -0.6266  0.2344 -0.1516
15711SOL    HW147711   9.584   5.862   7.747  0.9675  0.7084  2.3742
15711SOL    HW247712   9.646   5.753   7.662 -1.5304 -0.5483  2.0634
15712SOL     OW47713   0.077   4.931   7.420  0.1594  0.0203  1.4311
15712SOL    HW147714   0.041   5.007   7.467  0.9685  1.2806  0.1048
15712SOL    HW247715   0.000   4.882   7.391 -0.5677  1.9726 -0.2438
15713SOL     OW47716   6.824   5.127   6.822 -0.3849 -0.8017  0.0766
15713SOL    HW147717   6.740   5.118   6.777 -0.9977 -0.1728  1.0643
15713SOL    HW247718   6.889   5.116   6.753 -1.2948  0.1033 -0.9677
15714SOL     OW47719   1.846   8.577   1.480  0.0323 -0.2226  0.0388
15714SOL    HW147720   1.796   8.539   1.552 -0.7299 -0.2790 -0.5076
15714SOL    HW247721   1.932   8.595   1.518 -0.3224 -0.3397  0.9354
15715SOL     OW47722   7.024   7.502   6.900  0.2051 -0.1569 -0.1874
15715SOL    HW147723   7.019   7.428   6.838  0.7282 -2.6432  2.5301
15715SOL    HW247724   6.933   7.524   6.918  0.0027 -1.1131  0.0196
15716SOL     OW47725   2.415   0.781   5.257 -0.0322 -0.8891  0.5039
15716SOL    HW147726   2.488   0.842   5.267  0.6754 -1.7049  0.4876
15716SOL    HW247727   2.381   0.799   5.169  1.8621 -2.2554 -0.6032
15717SOL     OW47728   8.724   0.993   8.072  0.4945 -0.3042 -0.0410
15717SOL    HW147729   8.740   0.976   7.979  0.8713  0.5142 -0.1338
15717SOL    HW247730   8.658   1.063   8.072  0.9845  0.1607  0.3009
15718SOL     OW47731   1.838   3.333   5.694 -0.2107  0.3203 -0.1891
15718SOL    HW147732   1.813   3.388   5.768 -1.1441 -1.0938  0.6025
15718SOL    HW247733   1.807   3.245   5.718  2.6637 -0.9164 -0.6382
15719SOL     OW47734   2.837   7.240   4.782 -0.5998 -0.2370  0.0612
15719SOL    HW147735   2.913   7.206   4.828 -3.1405 -1.9065  3.5183
15719SOL    HW247736   2.818   7.176   4.714 -0.2642 -1.1014  0.7678
15720SOL     OW47737   8.915   2.549   7.390  0.0103 -0.6727  0.4121
15720SOL    HW147738   8.960   2.571   7.308 -2.7237  0.4290 -0.8961
15720SOL    HW247739   8.829   2.516   7.363 -0.7009 -1.0481  2.8383
15721SOL     OW47740   5.103   3.744   6.656 -0.4475  0.7476  0.2872
15721SOL    HW147741   5.186   3.735   6.609 -0.9843  0.0084 -0.5391
15721SOL    HW247742   5.129   3.765   6.746  0.6661 -0.1569  0.2005
15722SOL     OW47743   0.578   5.014   4.833  0.0419 -0.4230 -0.0557
15722SOL    HW147744   0.527   5.084   4.873  0.8314 -0.8301  1.7397
15722SOL    HW247745   0.542   4.933   4.869  0.4241 -0.8388 -0.5787
15723SOL     OW47746   1.830   5.545   4.908  0.0801  0.3708 -0.4026
15723SOL    HW147747   1.802   5.635   4.927 -0.4832 -0.0083  0.6872
15723SOL    HW247748   1.775   5.517   4.834 -0.8545  0.4174  0.2476
15724SOL     OW47749   6.820   9.761   2.404  0.4646  0.0945  0.1873
15724SOL    HW147750   6.897   9.712   2.375 -0.3046 -1.0678  0.0314
15724SOL    HW247751   6.851   9.813   2.478  1.2418 -0.8828  0.5660
15725SOL     OW47752   3.733   7.430   2.994  0.3198  0.4660 -0.0479
15725SOL    HW147753   3.665   7.433   3.061  0.4762 -0.6048  0.1793
15725SOL    HW247754   3.697   7.480   2.920 -0.6226  0.0880  0.1431
15726SOL     OW47755   6.668   3.329   8.317 -0.3775 -0.3814 -0.0915
15726SOL    HW147756   6.625   3.325   8.403 -0.4540  1.2536 -0.0282
15726SOL    HW247757   6.762   3.323   8.337 -0.3455  0.8631  0.2088
15727SOL     OW47758   4.738   5.661   1.947  0.2342  0.3408 -0.3103
15727SOL    HW147759   4.696   5.747   1.952  0.0497  0.2635 -0.4968
15727SOL    HW247760   4.697   5.619   1.871  1.9660  0.9778 -1.6779
15728SOL     OW47761   4.090   1.548   7.565 -0.2670 -0.1838  0.0928
15728SOL    HW147762   4.146   1.623   7.584 -0.1814 -0.8435  2.8605
15728SOL    HW247763   4.001   1.579   7.582 -0.4547 -0.0704 -1.0507
15729SOL     OW47764   1.926   5.425   3.859  0.6704 -0.0677  0.7099
15729SOL    HW147765   1.851   5.371   3.834  1.0764  0.1655 -1.1805
15729SOL    HW247766   1.992   5.362   3.888 -0.2634 -0.2645  2.5207
15730SOL     OW47767   3.377   3.183   1.489  0.1922 -0.6333  0.3268
15730SOL    HW147768   3.334   3.267   1.505  0.8590 -0.2299  0.0908
15730SOL    HW247769   3.333   3.148   1.412  0.8887  0.2240 -0.4948
15731SOL     OW47770   1.223   7.624   9.312 -0.3266 -0.1698 -0.4321
15731SOL    HW147771   1.261   7.651   9.228  2.2429  0.2911  0.7815
15731SOL    HW247772   1.217   7.706   9.362  4.8324 -1.0009  2.2404
15732SOL     OW47773   6.837   7.006   2.569  0.4447  0.6195  0.1726
15732SOL    HW147774   6.866   6.931   2.518  1.7904 -0.6475  2.6333
15732SOL    HW247775   6.756   7.034   2.526  1.1844 -0.6753 -2.2483
15733SOL     OW47776   4.135   0.786   5.043  0.3379 -0.5236  0.2481
15733SOL    HW147777   4.178   0.870   5.025  1.8776 -1.0134  1.4445
15733SOL    HW247778   4.063   0.808   5.102  0.6044 -0.0192  0.3883
15734SOL     OW47779   3.151   9.112   8.663  0.3166 -0.0686 -0.0222
15734SOL    HW147780   3.193   9.157   8.590 -2.6783 -0.6165 -2.3143
15734SOL    HW247781   3.183   9.022   8.657  0.4746  0.0093 -0.3731
15735SOL     OW47782   9.948   5.824   4.621 -0.0523 -0.0928 -0.5256
15735SOL    HW147783   9.909   5.911   4.627  0.9430  0.2453  2.1435
15735SOL    HW247784  10.042   5.840   4.613  0.0152 -0.9530 -1.8408
15736SOL     OW47785   6.075   3.397   1.952 -0.2744 -0.1181 -0.1236
15736SOL    HW147786   6.105   3.360   2.036 -0.5575 -1.9714 -0.8010
15736SOL    HW247787   5.989   3.433   1.972  0.5550  1.4715  0.8585
15737SOL     OW47788   1.204   5.528   6.274 -0.1831  0.6105 -0.4086
15737SOL    HW147789   1.137   5.595   6.283  1.8562  2.6101  0.8714
15737SOL    HW247790   1.278   5.573   6.233  1.5279 -0.5915  1.1689
15738SOL     OW47791   9.193   4.159   9.963  0.9443 -0.1179  0.0961
15738SOL    HW147792   9.266   4.169   9.903  1.0727  1.3895  0.4687
15738SOL    HW247793   9.216   4.084  10.017  1.1667 -1.0391 -1.2291
15739SOL     OW47794   1.533   4.980   2.439  0.7409  0.1047  0.4543
15739SOL    HW147795   1.452   5.016   2.401  2.4671  1.1664 -2.5893
15739SOL    HW247796   1.573   5.055   2.484  0.8795  0.0557  0.4113
15740SOL     OW47797   4.686   1.636   3.470  0.0871 -0.6522  0.0667
15740SOL    HW147798   4.688   1.722   3.512 -1.4873 -0.4045 -0.3037
15740SOL    HW247799   4.706   1.654   3.378 -1.0389 -0.5454 -0.1732
15741SOL     OW47800   5.548   8.322   0.664  0.5958 -0.3851  0.5693
15741SOL    HW147801   5.589   8.305   0.580  0.8089  0.7997  0.4269
15741SOL    HW247802   5.521   8.414   0.661  0.5339 -0.3397  1.7578
15742SOL     OW47803   2.025   9.905   8.439  1.0370 -0.1896 -0.6341
15742SOL    HW147804   2.116   9.929   8.420  1.0392  0.7236  0.4428
15742SOL    HW247805   1.976   9.937   8.363  1.6444 -0.9248 -1.3426
15743SOL     OW47806   5.274   8.367   5.884 -0.6590 -0.3580 -0.7426
15743SOL    HW147807   5.218   8.293   5.906  1.3221 -1.8062 -0.3210
15743SOL    HW247808   5.358   8.328   5.860  0.9353  1.7716  0.9402
15744SOL     OW47809   1.201   1.337   7.554  0.0940  0.2109  0.4323
15744SOL    HW147810   1.150   1.262   7.525 -1.4166  0.7398  1.5702
15744SOL    HW247811   1.232   1.378   7.473 -1.3868 -0.0884 -0.3194
15745SOL     OW47812   1.717   9.614   8.966  0.1198  0.2484  0.0384
15745SOL    HW147813   1.744   9.523   8.948 -0.2197  0.0349  0.5880
15745SOL    HW247814   1.798   9.663   8.973  0.3324 -0.1639  0.5034
15746SOL     OW47815   8.809   3.057   0.123  0.1093  0.5991 -0.1209
15746SOL    HW147816   8.793   3.098   0.038 -2.1197 -3.6195 -2.0841
15746SOL    HW247817   8.722   3.034   0.155  1.0628 -0.3005  2.0260
15747SOL     OW47818   1.849   7.239   4.201  0.2466  0.4582  0.0578
15747SOL    HW147819   1.812   7.320   4.236 -2.1649 -1.4282  2.2123
15747SOL    HW247820   1.834   7.245   4.106 -1.3871  1.8544  0.3556
15748SOL     OW47821   8.527   1.751   0.921  0.0852  0.0012 -0.1545
15748SOL    HW147822   8.556   1.783   1.006 -0.7931 -2.8411  1.3685
15748SOL    HW247823   8.565   1.663   0.914 -1.8371 -0.7997 -1.5406
15749SOL     OW47824   1.491   6.745   0.729  0.3967  0.0843  0.1952
15749SOL    HW147825   1.421   6.792   0.774  0.6253  1.1822 -0.5483
15749SOL    HW247826   1.513   6.802   0.655  1.3292 -0.7687 -0.1937
15750SOL     OW47827   8.787   7.202   8.944  0.0292 -0.3636 -0.4025
15750SOL    HW147828   8.728   7.190   8.869  0.3715 -1.7540 -0.4771
15750SOL    HW247829   8.875   7.193   8.907  0.2472  0.4061 -0.0749
15751SOL     OW47830   3.050   9.128   3.439  0.5153  0.0126 -0.0219
15751SOL    HW147831   3.010   9.045   3.412 -0.4708  0.7202 -0.8008
15751SOL    HW247832   2.991   9.195   3.404  0.7477  1.0276  1.4691
15752SOL     OW47833   0.132   0.901   4.967  0.1114  0.4192 -1.0442
15752SOL    HW147834   0.075   0.939   4.901 -0.9243  0.7060 -0.0134
15752SOL    HW247835   0.178   0.830   4.922 -2.8810 -1.4808 -1.3480
15753SOL     OW47836   7.808   3.733   0.352 -0.2520  0.3999  0.2137
15753SOL    HW147837   7.839   3.664   0.410 -0.8195  0.6109  0.7784
15753SOL    HW247838   7.748   3.689   0.292  0.7372  0.0808 -0.5750
15754SOL     OW47839   8.495   3.062   8.883 -0.0079  0.3734  0.4750
15754SOL    HW147840   8.462   3.144   8.919 -0.8299  1.0446 -1.6231
15754SOL    HW247841   8.576   3.087   8.838  0.2596 -0.1656  0.6516
15755SOL     OW47842   9.667   4.086   7.085 -0.3093 -1.2521  0.3796
15755SOL    HW147843   9.716   4.105   7.005 -0.6715 -1.7702  0.0334
15755SOL    HW247844   9.576   4.080   7.057 -0.5525 -0.5397  0.9815
15756SOL     OW47845   1.252   6.561   1.714  0.2843 -0.3276  0.2278
15756SOL    HW147846   1.253   6.576   1.809 -0.3641 -0.3460  0.2411
15756SOL    HW247847   1.339   6.526   1.695 -0.1729 -2.0750  1.1161
15757SOL     OW47848   0.754   4.792   0.682  0.3153 -0.6455  0.2032
15757SOL    HW147849   0.788   4.874   0.718 -1.0900 -0.1716  0.4974
15757SOL    HW247850   0.754   4.731   0.757 -0.9789 -0.1635  0.6246
15758SOL     OW47851   4.715   2.650   4.210 -0.2777 -0.0910  0.5345
15758SOL    HW147852   4.687   2.741   4.210 -1.6702 -0.4853  0.9647
15758SOL    HW247853   4.633   2.600   4.218  0.4083 -1.3871 -0.1720
15759SOL     OW47854   7.564   8.220   0.677  0.0920  0.7374 -0.4726
15759SOL    HW147855   7.635   8.163   0.706  0.3598  0.1911 -2.0611
15759SOL    HW247856   7.571   8.297   0.733 -0.0078 -0.5822  1.4203
15760SOL     OW47857   8.103   4.644   0.936 -0.2763  0.2933 -0.1092
15760SOL    HW147858   8.071   4.669   0.849 -2.3482  1.3133  0.8734
15760SOL    HW247859   8.146   4.723   0.970 -0.3602  0.2210  0.1726
15761SOL     OW47860   6.946   0.884   4.786 -0.0614  0.5993  0.0013
15761SOL    HW147861   6.898   0.886   4.703 -0.7794 -0.9598  0.3511
15761SOL    HW247862   6.902   0.950   4.840 -1.1821 -0.0932 -0.0319
15762SOL     OW47863   4.846   8.295   1.890  0.6114  0.6594 -0.8123
15762SOL    HW147864   4.889   8.353   1.953 -0.2259 -0.8735  1.3043
15762SOL    HW247865   4.903   8.217   1.887 -0.4118 -0.1329 -0.3031
15763SOL     OW47866   6.700   9.494   0.419  0.0172 -0.2668  0.2542
15763SOL    HW147867   6.707   9.528   0.330  1.9431 -0.3894  0.3068
15763SOL    HW247868   6.629   9.431   0.416 -0.7943  0.6723 -0.8766
15764SOL     OW47869   3.211   1.930   5.633  0.5002  0.3792 -0.3316
15764SOL    HW147870   3.224   1.868   5.562 -0.2807  0.4832 -0.5698
15764SOL    HW247871   3.165   1.881   5.701  0.7534  0.4313 -0.1185
15765SOL     OW47872   6.496   2.603   5.290 -0.0602 -0.9724  0.4096
15765SOL    HW147873   6.469   2.512   5.275 -1.5030 -0.5052  0.0449
15765SOL    HW247874   6.418   2.655   5.271  0.3088  0.2443  2.0165
15766SOL     OW47875   7.429   4.746   7.442  0.5157  0.1966  0.8777
15766SOL    HW147876   7.503   4.708   7.489  1.6372  0.3953 -0.6330
15766SOL    HW247877   7.469   4.803   7.376 -0.9351 -0.4350 -0.6363
15767SOL     OW47878   9.058   6.786   6.054 -0.0482  0.1849 -0.0534
15767SOL    HW147879   9.036   6.711   5.998 -2.6730  0.7540  0.1186
15767SOL    HW247880   9.113   6.842   5.998  0.7192 -1.1333 -0.6696
15768SOL     OW47881   2.230   8.668   2.919  0.0904  0.1023 -0.0825
15768SOL    HW147882   2.216   8.589   2.972  0.9298 -0.6471 -0.9423
15768SOL    HW247883   2.142   8.696   2.894 -0.3547  0.6671  1.9382
15769SOL     OW47884   7.339   4.946   6.252  0.5648 -0.1939  0.1091
15769SOL    HW147885   7.384   5.025   6.284  0.3663 -0.3972  0.9165
15769SOL    HW247886   7.346   4.951   6.157 -0.3014  1.2965  0.1035
15770SOL     OW47887   3.261   3.299   1.239  0.1881  0.3706 -0.1906
15770SOL    HW147888   3.350   3.329   1.226  0.0218  0.3064 -1.5952
15770SOL    HW247889   3.235   3.262   1.154 -1.7295  1.8440 -0.3018
15771SOL     OW47890   3.467   2.551   0.196 -0.2642  0.3896 -0.4722
15771SOL    HW147891   3.534   2.489   0.169 -0.0817  0.3078  0.1627
15771SOL    HW247892   3.465   2.545   0.291 -1.2080  0.3550 -0.4821
15772SOL     OW47893   9.670   6.986   9.550  0.7124 -0.6755  0.1052
15772SOL    HW147894   9.657   7.080   9.537  0.4496 -0.7298 -0.0426
15772SOL    HW247895   9.586   6.947   9.524  1.3225 -1.0784 -1.3584
15773SOL     OW47896   3.523   6.786   8.348 -0.2752 -0.7465 -0.0777
15773SOL    HW147897   3.585   6.714   8.333  0.0646 -0.4963  0.1256
15773SOL    HW247898   3.578   6.863   8.361 -0.6186 -0.6023  0.5210
15774SOL     OW47899   3.709   8.268   6.752  0.2205 -0.0118  0.5866
15774SOL    HW147900   3.650   8.194   6.767  2.6595 -2.6192 -1.6524
15774SOL    HW247901   3.782   8.252   6.811  1.0246  0.2899 -0.3062
15775SOL     OW47902   8.219   5.830   8.078 -0.7615  0.2089 -0.1718
15775SOL    HW147903   8.307   5.793   8.073 -1.4943 -1.5906 -0.6275
15775SOL    HW247904   8.207   5.850   8.171 -0.9981 -2.6373  0.5191
15776SOL     OW47905   0.256   5.241   0.697  0.4739  0.5890 -0.4682
15776SOL    HW147906   0.197   5.313   0.679 -0.4964 -0.5144 -1.9687
15776SOL    HW247907   0.208   5.183   0.756  0.5592  0.3245 -0.6529
15777SOL     OW47908   5.862   1.501   2.198 -0.8226 -0.5768 -0.6742
15777SOL    HW147909   5.869   1.410   2.227  0.4466  0.0223  1.0460
15777SOL    HW247910   5.883   1.553   2.276  0.7671  1.1550 -2.1556
15778SOL     OW47911   5.866   9.049   0.766 -0.2270  0.1062 -0.2218
15778SOL    HW147912   5.926   8.995   0.818 -0.0141  2.3796  2.1227
15778SOL    HW247913   5.917   9.126   0.744 -1.5324  0.9671 -0.3361
15779SOL     OW47914   4.861   6.766   2.592 -0.5127 -0.1577  0.2986
15779SOL    HW147915   4.776   6.799   2.564 -0.1549 -1.0558 -2.1034
15779SOL    HW247916   4.857   6.672   2.574  0.8534 -0.2799  0.4955
15780SOL     OW47917   1.112   5.248   2.474  0.1768 -0.5712 -0.8595
15780SOL    HW147918   1.189   5.301   2.498 -0.1445 -0.5791  0.2346
15780SOL    HW247919   1.072   5.296   2.401  1.7550 -1.0779 -2.1220
15781SOL     OW47920   6.428   4.412   5.099 -0.3656  0.2211 -0.5569
15781SOL    HW147921   6.363   4.403   5.169  0.4490 -1.8540 -0.0017
15781SOL    HW247922   6.386   4.373   5.022  0.5297 -2.2057  0.0802
15782SOL     OW47923   6.505   9.889   5.271 -0.2719  0.1919 -0.1518
15782SOL    HW147924   6.544   9.803   5.257 -1.7112 -0.5483  0.2195
15782SOL    HW247925   6.554   9.947   5.213 -0.6439 -1.2515 -1.9982
15783SOL     OW47926   0.604   0.591   6.833 -0.0380  0.3708 -0.1850
15783SOL    HW147927   0.566   0.612   6.918 -1.0420 -0.5021 -0.3939
15783SOL    HW247928   0.698   0.588   6.848 -0.1415  1.1773  0.6726
15784SOL     OW47929   0.365   6.661   7.616  0.5638  0.2353 -0.2383
15784SOL    HW147930   0.377   6.649   7.710 -1.1446 -0.6299 -0.0852
15784SOL    HW247931   0.375   6.572   7.579 -0.5039  0.2683 -0.6373
15785SOL     OW47932   7.764   1.245   4.761  0.2619  0.4679 -0.3520
15785SOL    HW147933   7.757   1.159   4.719  0.9074  0.4010 -0.3445
15785SOL    HW247934   7.768   1.226   4.855  0.3021  0.5135 -0.3446
15786SOL     OW47935   6.806   5.284   2.292 -0.3387 -0.0309  0.7235
15786SOL    HW147936   6.756   5.308   2.370 -0.3403  2.2074  0.0858
15786SOL    HW247937   6.741   5.249   2.232 -0.9257  1.3795  0.4979
15787SOL     OW47938   9.103   7.048   9.650  0.3713  0.7097 -0.4265
15787SOL    HW147939   9.013   7.050   9.683  0.6470  0.7465  0.3370
15787SOL    HW247940   9.152   6.999   9.717  1.0900  1.4517 -0.4002
15788SOL     OW47941   0.234   3.993   7.201  0.0899 -0.2650 -0.6477
15788SOL    HW147942   0.214   4.045   7.123 -1.5351  0.8571  0.4521
15788SOL    HW247943   0.206   3.904   7.178  0.6894 -0.1870 -1.7316
15789SOL     OW47944   6.647   0.297   9.863  0.1305  0.8235  0.1394
15789SOL    HW147945   6.649   0.387   9.831 -1.3749  1.7467  2.3902
15789SOL    HW247946   6.555   0.272   9.861  0.4138 -0.3292  0.4319
15790SOL     OW47947   4.579   6.876   7.298  0.2098 -0.2127  0.2616
15790SOL    HW147948   4.506   6.882   7.359  0.6818 -0.1365  0.8301
15790SOL    HW247949   4.572   6.955   7.245 -0.7324 -0.7159 -0.4052
15791SOL     OW47950   3.677   9.547   6.580  0.5766 -0.2006  0.3117
15791SOL    HW147951   3.666   9.456   6.607 -1.8101  0.3037  1.2461
15791SOL    HW247952   3.674   9.545   6.485  1.0110 -1.1210  0.3105
15792SOL     OW47953   6.934   4.463   2.805 -0.6275  0.1685 -0.2892
15792SOL    HW147954   6.844   4.495   2.797 -0.9266 -0.0032  1.9158
15792SOL    HW247955   6.926   4.380   2.852  0.6798  0.1276 -0.1144
15793SOL     OW47956   9.316   3.063   6.525 -0.4800 -0.1072 -0.2491
15793SOL    HW147957   9.407   3.073   6.500 -0.4489 -0.2265 -0.1819
15793SOL    HW247958   9.310   3.103   6.612 -0.8368  1.4271 -0.9273
15794SOL     OW47959   7.487   5.219   2.624 -0.0396 -0.3619 -0.0048
15794SOL    HW147960   7.396   5.198   2.605 -0.2026 -0.0700  0.4341
15794SOL    HW247961   7.506   5.173   2.706  0.4490 -1.0569 -0.4977
15795SOL     OW47962   7.994   4.905   3.357 -0.0158 -0.1329 -0.3232
15795SOL    HW147963   7.970   4.880   3.268  0.1833 -0.5520 -0.2638
15795SOL    HW247964   7.969   4.830   3.411 -0.0531  0.0820 -0.0388
15796SOL     OW47965   6.259   2.226   2.336  0.2462  0.4334  0.7599
15796SOL    HW147966   6.220   2.310   2.311 -0.1117  0.7098  2.1841
15796SOL    HW247967   6.188   2.177   2.377  0.6543 -0.2496  0.6639
15797SOL     OW47968   6.237   3.506   9.375 -0.1584  0.4994  0.1188
15797SOL    HW147969   6.311   3.562   9.401 -0.9289  2.6338 -1.9324
15797SOL    HW247970   6.279   3.432   9.330  0.8194  1.2819 -0.3264
15798SOL     OW47971   1.326   7.320   8.810 -0.1391 -0.0592 -0.0858
15798SOL    HW147972   1.264   7.285   8.746 -0.7016  0.9326 -0.0993
15798SOL    HW247973   1.410   7.283   8.784 -0.2965  0.5821 -1.6179
15799SOL     OW47974   5.783   5.474   8.782  0.2892 -0.3528 -0.1635
15799SOL    HW147975   5.734   5.502   8.859 -0.4110 -2.7692  0.3600
15799SOL    HW247976   5.866   5.441   8.817  0.1776 -1.0002 -0.4906
15800SOL     OW47977   8.141   4.966   4.371  0.0796  0.2528  0.1738
15800SOL    HW147978   8.171   4.953   4.461  0.7222  0.6356  0.0250
15800SOL    HW247979   8.221   4.987   4.322 -0.1875 -0.4722 -0.5880
15801SOL     OW47980   4.145   4.929   1.296 -0.1038  0.3545  0.1013
15801SOL    HW147981   4.146   4.868   1.222  1.2902  0.3787  0.0636
15801SOL    HW247982   4.058   4.969   1.294 -0.2777 -0.0518 -1.1859
15802SOL     OW47983   8.171   4.017   6.865  0.4277 -0.1790  0.4490
15802SOL    HW147984   8.239   4.080   6.888 -1.0919  1.8753 -0.3493
15802SOL    HW247985   8.135   3.989   6.949  0.0684  1.2796  0.8127
15803SOL     OW47986   8.854   3.322   4.369  0.1560  0.1232 -0.2368
15803SOL    HW147987   8.886   3.403   4.329  0.4281  0.3461  0.4184
15803SOL    HW247988   8.783   3.293   4.311  1.7598 -0.5924 -1.9678
15804SOL     OW47989   4.457   2.820   6.669  0.3284 -0.0067  0.6258
15804SOL    HW147990   4.550   2.798   6.674  1.0720  1.3950 -3.4464
15804SOL    HW247991   4.455   2.915   6.658 -1.6462  0.0452  1.0528
15805SOL     OW47992   0.979   2.648   8.337  0.0897  0.3362  0.0320
15805SOL    HW147993   0.961   2.711   8.267  1.0191  0.5986  0.0229
15805SOL    HW247994   1.063   2.608   8.314 -0.3357 -0.6988  0.1961
15806SOL     OW47995   8.146   4.935   5.533 -0.1796  0.5527 -0.4250
15806SOL    HW147996   8.056   4.925   5.502 -0.5917  0.3544  0.7816
15806SOL    HW247997   8.156   4.868   5.600  0.4749  1.3546  0.3072
15807SOL     OW47998   0.980   4.345   4.134  0.6039 -0.6972 -0.0821
15807SOL    HW147999   0.912   4.398   4.092  1.2133  0.7091  0.6259
15807SOL    HW248000   0.934   4.270   4.170 -0.7254  0.6202  1.0735
15808SOL     OW48001   8.530   8.765   1.726 -0.0523  0.4142 -0.4058
15808SOL    HW148002   8.587   8.839   1.747 -0.7902  0.9490 -0.2282
15808SOL    HW248003   8.556   8.696   1.786  0.0096  0.8550  0.0818
15809SOL     OW48004   5.006   3.812   9.402  0.3877  0.2069 -0.7811
15809SOL    HW148005   5.075   3.878   9.395  1.0308 -0.2843  0.5646
15809SOL    HW248006   4.924   3.861   9.406  0.7579  0.8509 -1.0413
15810SOL     OW48007   6.546   8.438   6.508  0.8295  0.1319 -0.2563
15810SOL    HW148008   6.503   8.522   6.495 -0.2233 -0.5439 -1.4397
15810SOL    HW248009   6.634   8.459   6.538  0.1113  1.6003  0.9092
15811SOL     OW48010   7.409   0.521   4.642 -0.0147 -0.1770  0.5016
15811SOL    HW148011   7.376   0.606   4.612  0.7822  0.3273  1.0037
15811SOL    HW248012   7.383   0.459   4.574 -0.6136  0.4682  0.1297
15812SOL     OW48013   3.170   8.803   8.988  0.2271  0.0890  0.1186
15812SOL    HW148014   3.246   8.823   9.043 -0.2279 -0.9141  1.1682
15812SOL    HW248015   3.096   8.839   9.036 -0.4610 -2.8308  1.4549
15813SOL     OW48016   1.986   7.235   2.317 -0.3106  0.1084  0.2128
15813SOL    HW148017   1.983   7.140   2.311  0.1481  0.1201 -0.2399
15813SOL    HW248018   1.920   7.257   2.384  1.1448 -0.6875  2.0134
15814SOL     OW48019   1.016   0.680   5.047  0.4141 -0.1469 -0.1294
15814SOL    HW148020   0.997   0.716   4.960  0.6541 -0.9019 -0.4976
15814SOL    HW248021   1.079   0.741   5.085 -0.9182  1.1051  0.1784
15815SOL     OW48022   2.365   6.383  -0.012 -1.1236 -0.0106  0.3941
15815SOL    HW148023   2.365   6.463   0.042 -1.4810  0.4954 -0.3321
15815SOL    HW248024   2.456   6.352  -0.008 -1.2763 -0.3494  1.7985
15816SOL     OW48025   6.106   3.074   7.208  0.4166  0.1791  0.2793
15816SOL    HW148026   6.093   3.102   7.118  0.9336  1.2300  0.5086
15816SOL    HW248027   6.108   2.979   7.204 -0.3994  0.1871 -0.6920
15817SOL     OW48028   3.051   9.067   6.626 -0.1066  0.4153 -0.3464
15817SOL    HW148029   3.009   9.071   6.712  2.5680  1.3276  1.0258
15817SOL    HW248030   3.074   8.975   6.614  1.0465  0.5350  0.7697
15818SOL     OW48031   5.148   0.583   8.948 -0.1839  0.1386 -0.5490
15818SOL    HW148032   5.219   0.554   9.004 -0.0610  0.4096 -0.5628
15818SOL    HW248033   5.121   0.504   8.901 -1.4547 -0.5159  1.1441
15819SOL     OW48034   3.068   2.459   0.253 -0.3770 -0.3332  0.2498
15819SOL    HW148035   3.084   2.536   0.307  1.4228 -0.8296  0.4963
15819SOL    HW248036   3.147   2.449   0.201 -2.0772  0.2044 -2.6798
15820SOL     OW48037   6.753   0.725   8.305  0.0774  0.6313 -0.3828
15820SOL    HW148038   6.755   0.635   8.273  2.1622 -0.3814  2.2305
15820SOL    HW248039   6.798   0.776   8.238 -1.1516 -0.2053 -1.9097
15821SOL     OW48040   8.582   9.077   9.653 -0.2178 -0.3225  0.2762
15821SOL    HW148041   8.648   9.010   9.636  0.7485  0.4381  0.8475
15821SOL    HW248042   8.581   9.086   9.748  1.6031  2.2295  0.1696
15822SOL     OW48043   1.774   3.721   1.436  0.5972  0.3434  0.2462
15822SOL    HW148044   1.740   3.779   1.368 -1.6635 -1.9633 -0.8037
15822SOL    HW248045   1.721   3.740   1.513  0.8215  0.6480  0.3232
15823SOL     OW48046   4.168   8.234   0.988  0.0387 -0.0426  0.3594
15823SOL    HW148047   4.126   8.311   0.949  1.0269  0.1495 -0.3574
15823SOL    HW248048   4.248   8.267   1.028 -1.1965 -0.1376  3.1461
15824SOL     OW48049   0.004   5.097   4.724 -0.2967 -0.3005 -0.2117
15824SOL    HW148050   0.095   5.069   4.730  0.0122  0.6473 -0.3184
15824SOL    HW248051   0.006   5.174   4.667 -1.3579 -1.0657 -1.3417
15825SOL     OW48052   3.989   1.629   1.706 -0.3375 -0.3994 -0.1901
15825SOL    HW148053   3.948   1.543   1.717 -0.5920 -0.1451  0.9818
15825SOL    HW248054   3.929   1.690   1.748  0.9617  0.0525  1.0992
15826SOL     OW48055   6.805   2.688   0.750 -0.2061 -0.2612  0.5837
15826SOL    HW148056   6.773   2.650   0.832  2.4417 -0.7821  1.4687
15826SOL    HW248057   6.842   2.773   0.776 -0.1742 -0.0198 -0.2416
15827SOL     OW48058   2.611   4.308   3.886 -0.3845 -0.6238  0.1424
15827SOL    HW148059   2.519   4.297   3.863 -0.3642  0.1825 -0.3640
15827SOL    HW248060   2.643   4.375   3.825  0.6801 -1.3084 -0.0807
15828SOL     OW48061   5.654   7.241   8.086 -0.4885 -0.0330  0.5778
15828SOL    HW148062   5.700   7.239   8.170  1.4982 -0.4034 -0.4585
15828SOL    HW248063   5.695   7.313   8.039 -0.5262 -0.7849 -0.6339
15829SOL     OW48064   1.456   9.580   5.411  0.0651 -0.1441  0.0157
15829SOL    HW148065   1.388   9.537   5.360 -0.6099 -1.2261  1.7295
15829SOL    HW248066   1.536   9.572   5.358 -0.5021 -1.6418 -0.6446
15830SOL     OW48067   4.985   8.692   0.203  0.9118 -0.2172 -0.3655
15830SOL    HW148068   4.921   8.716   0.270 -0.0292 -0.5534 -1.1220
15830SOL    HW248069   5.069   8.724   0.237  0.2213  0.9924  0.2522
15831SOL     OW48070   6.669   9.832   1.791  0.1226 -0.1564 -0.1093
15831SOL    HW148071   6.702   9.907   1.742 -0.2689  0.3481  0.3761
15831SOL    HW248072   6.702   9.755   1.744  0.4539  0.3185 -0.6631
15832SOL     OW48073   4.268   5.960   4.266 -0.1133 -0.3454  0.0661
15832SOL    HW148074   4.199   5.915   4.218 -0.7849 -0.9709  1.5540
15832SOL    HW248075   4.350   5.922   4.233 -0.6294 -1.9796  0.5700
15833SOL     OW48076   8.373   1.270   1.859  0.0782  0.2556  0.2344
15833SOL    HW148077   8.398   1.295   1.771  1.7981 -0.4055  0.4916
15833SOL    HW248078   8.433   1.199   1.882 -2.1304 -1.4879  0.9203
15834SOL     OW48079   7.562   8.187   4.437  0.8923 -0.0813 -0.4526
15834SOL    HW148080   7.545   8.108   4.489 -1.4717 -1.2164 -2.7316
15834SOL    HW248081   7.640   8.226   4.477  0.3935 -1.9267  2.6132
15835SOL     OW48082   6.169   4.176   1.173 -0.1916 -0.6820 -0.6592
15835SOL    HW148083   6.195   4.268   1.175  1.4724 -1.0832 -1.5700
15835SOL    HW248084   6.077   4.176   1.200 -0.6245  1.3842 -1.9102
15836SOL     OW48085   9.505   3.145   5.854 -0.1212 -0.4562 -0.3032
15836SOL    HW148086   9.499   3.116   5.762  0.6819 -0.6141 -0.3105
15836SOL    HW248087   9.464   3.231   5.854 -2.1595 -1.3484 -0.3728
15837SOL     OW48088   3.729   3.447   8.016 -0.6224 -0.0037  0.5206
15837SOL    HW148089   3.786   3.371   8.025 -0.6318 -0.1820 -0.6929
15837SOL    HW248090   3.783   3.513   7.972 -1.1832  0.0129 -0.1637
15838SOL     OW48091   5.789   9.977   3.433  0.1460 -0.0145  0.0491
15838SOL    HW148092   5.747   9.957   3.350  0.3930  0.5175 -0.2107
15838SOL    HW248093   5.825   9.893   3.463 -1.5840 -0.5981  0.5705
15839SOL     OW48094   2.944   1.855   7.343  0.2035 -0.1435 -0.0812
15839SOL    HW148095   3.009   1.810   7.289  0.9783  0.2147  0.5201
15839SOL    HW248096   2.977   1.944   7.351 -0.4271  0.0733  0.1362
15840SOL     OW48097   7.200   0.684   4.011 -0.0882 -0.0897  0.6981
15840SOL    HW148098   7.262   0.724   3.951 -0.4239  0.7922  0.9280
15840SOL    HW248099   7.250   0.670   4.092  0.1259 -0.4909  0.5036
15841SOL     OW48100   1.560   3.969   7.858 -0.2076 -0.6950 -0.0373
15841SOL    HW148101   1.521   3.940   7.776 -2.1433 -2.3780  1.3799
15841SOL    HW248102   1.563   4.064   7.851 -1.7042 -0.7129 -1.4682
15842SOL     OW48103   3.903   7.903   9.656  0.6272  0.2641 -0.5739
15842SOL    HW148104   3.964   7.878   9.587  0.6765  0.0690 -0.4598
15842SOL    HW248105   3.877   7.993   9.634 -1.0988 -0.5380 -2.1398
15843SOL     OW48106   1.598   7.838   0.903 -0.6220 -0.1613  0.5830
15843SOL    HW148107   1.570   7.912   0.957 -4.7510 -1.4692  0.5886
15843SOL    HW248108   1.583   7.866   0.813 -1.0450 -0.5557  0.5264
15844SOL     OW48109   0.223   0.181   0.780  0.0681 -0.5417 -0.3241
15844SOL    HW148110   0.273   0.103   0.804 -0.8058 -1.1319 -0.3696
15844SOL    HW248111   0.289   0.244   0.751  0.7736 -1.3271 -0.4614
15845SOL     OW48112   8.498   4.226   8.784  0.9783  0.0117  0.2415
15845SOL    HW148113   8.490   4.242   8.690 -1.6028 -2.2180 -0.0317
15845SOL    HW248114   8.592   4.220   8.799  1.4609  0.2429 -2.2194
15846SOL     OW48115   1.679   3.683   4.986 -0.0760  0.9889 -0.4762
15846SOL    HW148116   1.735   3.710   4.913  2.0244  0.8272  0.9733
15846SOL    HW248117   1.694   3.748   5.054 -2.7717  1.7041 -0.4544
15847SOL     OW48118   0.924   7.270   9.160  0.4739 -0.5925  0.4597
15847SOL    HW148119   0.839   7.227   9.147  0.0810  0.1469  0.5252
15847SOL    HW248120   0.924   7.342   9.098  1.0467 -0.5637  0.4919
15848SOL     OW48121   3.900   0.213   6.835 -0.6360  0.5879  0.1318
15848SOL    HW148122   3.899   0.299   6.876  2.2955  1.1062 -0.6730
15848SOL    HW248123   3.986   0.176   6.858 -1.4977 -1.8054 -0.1851
15849SOL     OW48124   0.880   4.086   5.319 -0.2896 -0.0828  0.4751
15849SOL    HW148125   0.918   3.999   5.320  0.5904  0.2888  0.4993
15849SOL    HW248126   0.887   4.116   5.410  1.2450  0.7623  0.1157
15850SOL     OW48127   5.713   4.664   7.634 -0.3423  0.1085  0.4797
15850SOL    HW148128   5.642   4.600   7.637  0.4356 -0.8419 -0.4383
15850SOL    HW248129   5.714   4.693   7.542 -0.1397  0.8045  0.6989
15851SOL     OW48130   1.521   3.896   5.349  0.2091 -0.5516 -0.0736
15851SOL    HW148131   1.440   3.946   5.362  0.1362 -0.7091  0.0856
15851SOL    HW248132   1.591   3.955   5.378  0.1474 -0.4362 -0.1568
15852SOL     OW48133   6.909   3.295   9.976 -0.5165  0.1409 -0.0550
15852SOL    HW148134   6.970   3.367   9.995 -0.3795 -0.2639  1.0988
15852SOL    HW248135   6.938   3.262   9.891  0.1933  0.6693 -0.0345
15853SOL     OW48136   5.667   2.285   5.807  0.3486 -0.0253  0.5552
15853SOL    HW148137   5.625   2.233   5.738 -3.7510  0.2623  2.5170
15853SOL    HW248138   5.717   2.221   5.858  1.1445 -0.7231 -1.0432
15854SOL     OW48139   1.971   9.342   2.586 -0.4855  0.2393  0.0836
15854SOL    HW148140   1.937   9.406   2.648 -0.1553 -0.8673  1.4391
15854SOL    HW248141   1.919   9.264   2.601 -1.3519  0.3467 -2.0305
15855SOL     OW48142   0.607   4.305   9.465  0.3101 -0.3601 -0.1554
15855SOL    HW148143   0.596   4.400   9.475 -1.8080 -0.7848  3.0928
15855SOL    HW248144   0.541   4.280   9.400 -2.4358 -0.0045  2.2923
15856SOL     OW48145   6.503   6.905   8.839 -0.2746  0.1653 -0.7881
15856SOL    HW148146   6.497   6.810   8.850 -1.7314  0.4929  3.0988
15856SOL    HW248147   6.597   6.924   8.840  0.0005 -1.1373  0.0393
15857SOL     OW48148   2.132   5.979   5.333  0.1241  0.1925  0.2514
15857SOL    HW148149   2.170   5.895   5.359  0.3077  0.7256  1.8339
15857SOL    HW248150   2.151   6.037   5.406  1.0669  1.9565 -1.3242
15858SOL     OW48151   2.255   5.726   5.400 -0.1835 -0.1754  0.4947
15858SOL    HW148152   2.258   5.761   5.489  2.0825 -0.8656  0.7583
15858SOL    HW248153   2.240   5.633   5.411 -2.2633  0.0416 -0.0213
15859SOL     OW48154   3.835   2.203   6.475  0.2397 -0.5278 -0.0578
15859SOL    HW148155   3.860   2.243   6.391 -0.8605 -1.8546 -1.0670
15859SOL    HW248156   3.913   2.153   6.502  0.8886  0.5756  0.1581
15860SOL     OW48157   2.008   5.581   0.141  0.0543 -0.5261 -0.2513
15860SOL    HW148158   1.940   5.574   0.208  0.9343 -0.1264  0.6991
15860SOL    HW248159   1.982   5.658   0.090  0.3534  0.2922  0.7883
15861SOL     OW48160   3.501   4.213   6.374 -0.0040 -1.0570 -0.2208
15861SOL    HW148161   3.548   4.162   6.308 -1.8624 -1.3635 -1.3778
15861SOL    HW248162   3.414   4.173   6.378 -0.8454  0.7234  0.3539
15862SOL     OW48163   3.651   9.461   3.875 -0.7343 -0.0203  0.0201
15862SOL    HW148164   3.621   9.549   3.898 -0.3119  0.3470 -0.7838
15862SOL    HW248165   3.724   9.444   3.935  0.5646  1.0528 -1.1761
15863SOL     OW48166   6.482   6.766   3.590  0.0671 -0.0404  0.9274
15863SOL    HW148167   6.533   6.686   3.584  1.4956  0.7577  1.8633
15863SOL    HW248168   6.525   6.827   3.531 -2.5487 -0.6385 -1.8638
15864SOL     OW48169   7.659   1.546   7.510 -0.5237 -0.2758 -0.1263
15864SOL    HW148170   7.754   1.552   7.501 -0.7419  0.6748 -3.1040
15864SOL    HW248171   7.633   1.483   7.443 -2.1551  1.5269 -1.3034
15865SOL     OW48172   7.040   9.134   3.918 -0.0541 -0.8445 -0.2871
15865SOL    HW148173   7.024   9.162   3.828  1.3481  1.6819  0.1422
15865SOL    HW248174   7.135   9.128   3.925 -0.0190  0.6679  1.4009
15866SOL     OW48175   5.703   4.912   8.717  0.1369  0.2267 -0.6880
15866SOL    HW148176   5.667   4.827   8.743  0.3961  0.5290  0.7172
15866SOL    HW248177   5.743   4.947   8.796  1.4021  0.9836 -1.6202
15867SOL     OW48178   8.825   3.551  10.004  0.1053 -0.2053  0.0197
15867SOL    HW148179   8.774   3.579   9.928 -0.7495  0.0774  0.6766
15867SOL    HW248180   8.814   3.456  10.008  2.4411 -0.6452 -1.8079
15868SOL     OW48181   5.454   7.609   7.376  0.1715 -0.4989  0.0953
15868SOL    HW148182   5.503   7.682   7.338  2.1087 -1.5340  0.4645
15868SOL    HW248183   5.399   7.649   7.444  0.1351  0.7605 -0.6430
15869SOL     OW48184   6.167   4.276   2.160 -0.0218  0.1566  0.0493
15869SOL    HW148185   6.151   4.184   2.142 -0.4698  0.5118 -1.5068
15869SOL    HW248186   6.263   4.283   2.166  0.1362 -0.1367 -1.6262
15870SOL     OW48187   0.640   2.419   8.024  0.1165  0.2850 -0.2632
15870SOL    HW148188   0.640   2.513   8.041 -0.8057  0.6015 -1.8348
15870SOL    HW248189   0.711   2.385   8.079  0.0183  1.7788  0.8569
15871SOL     OW48190   9.067   9.689   0.584  0.3166  0.0313  0.2782
15871SOL    HW148191   8.984   9.736   0.591  0.6986  0.8777 -0.6904
15871SOL    HW248192   9.121   9.724   0.655  0.3723  0.5846 -0.0359
15872SOL     OW48193   5.448   5.914   8.724  0.2693  0.0333  0.1324
15872SOL    HW148194   5.484   5.948   8.642 -0.0721 -0.3159 -0.1672
15872SOL    HW248195   5.377   5.856   8.697  0.9839 -1.0992  0.6207
15873SOL     OW48196   3.477   2.688   2.758 -0.3365 -0.9192 -0.2863
15873SOL    HW148197   3.449   2.700   2.667 -1.2059 -1.9363 -0.1709
15873SOL    HW248198   3.414   2.737   2.810 -0.4763 -1.2186 -0.1705
15874SOL     OW48199   1.531   5.396   2.134 -0.8968  0.3813 -0.0604
15874SOL    HW148200   1.612   5.398   2.185  0.7100  1.9187 -2.4695
15874SOL    HW248201   1.483   5.474   2.163 -1.2701 -0.2039  0.9413
15875SOL     OW48202   6.724   6.482   8.197  0.0268 -0.0584  0.0611
15875SOL    HW148203   6.797   6.503   8.256  0.7811  1.6006 -1.3826
15875SOL    HW248204   6.766   6.466   8.112 -1.2104 -0.2815 -0.5309
15876SOL     OW48205   1.824   0.294   1.163  0.1519  0.1592  0.0935
15876SOL    HW148206   1.730   0.307   1.171  0.0566  0.1232 -0.9055
15876SOL    HW248207   1.834   0.231   1.092  1.0002  1.8791 -1.4174
15877SOL     OW48208   2.003   4.473   3.577  0.0581  0.8730  0.3905
15877SOL    HW148209   1.951   4.392   3.579  1.6661 -0.2204  0.0551
15877SOL    HW248210   2.008   4.501   3.668 -1.1887  1.0691  0.4149
15878SOL     OW48211   4.768   1.678   9.085 -0.5784 -0.1332  0.3824
15878SOL    HW148212   4.716   1.646   9.012 -1.2623  1.6904  0.0111
15878SOL    HW248213   4.840   1.616   9.093 -0.2810 -0.1824 -2.0833
15879SOL     OW48214   9.191   2.323   2.931 -0.6341 -0.6164  0.0898
15879SOL    HW148215   9.270   2.295   2.886 -1.4114 -1.1704 -0.9724
15879SOL    HW248216   9.142   2.373   2.866 -0.4892  1.0141  1.1752
15880SOL     OW48217   8.742   1.718   8.656  0.4328  0.6484 -0.4717
15880SOL    HW148218   8.755   1.813   8.658 -0.4144  0.8118  2.4707
15880SOL    HW248219   8.650   1.707   8.632  0.7173  0.4920 -1.5525
15881SOL     OW48220   5.676   6.977   6.320  0.1104  0.1076  0.0987
15881SOL    HW148221   5.633   6.902   6.280  1.4375 -3.3066  4.3382
15881SOL    HW248222   5.604   7.028   6.358 -0.6684 -0.9506  0.0901
15882SOL     OW48223   3.425   1.290   1.872  0.0894  0.2093  0.0338
15882SOL    HW148224   3.437   1.328   1.959 -0.3467  0.3643  0.0305
15882SOL    HW248225   3.413   1.196   1.888  0.0050  0.2388  0.1434
15883SOL     OW48226   6.195   0.370   9.198 -0.2590 -0.2106  0.3976
15883SOL    HW148227   6.256   0.439   9.225 -0.7393  1.3502 -2.1303
15883SOL    HW248228   6.231   0.290   9.235  2.0629  0.9732  0.8959
15884SOL     OW48229   6.311   7.131   2.142  0.7181 -0.1795 -0.0985
15884SOL    HW148230   6.299   7.044   2.182 -0.9109 -0.9773 -2.1517
15884SOL    HW248231   6.249   7.187   2.188 -0.4482 -0.8617 -0.7859
15885SOL     OW48232   8.327   0.075   0.642  0.7552 -0.9862 -0.2998
15885SOL    HW148233   8.408   0.024   0.634  0.3137 -1.4523 -2.4688
15885SOL    HW248234   8.302   0.095   0.552 -1.3833 -0.5834  0.3175
15886SOL     OW48235   8.619   8.771   7.245  0.0731 -0.0299  0.2874
15886SOL    HW148236   8.594   8.824   7.321  1.9545  1.4808 -0.0500
15886SOL    HW248237   8.578   8.815   7.170  0.0314 -0.2058  0.2068
15887SOL     OW48238   1.093   3.779   0.727 -0.0016  0.4987 -0.6173
15887SOL    HW148239   1.160   3.727   0.772 -0.7756  0.6340  0.7456
15887SOL    HW248240   1.036   3.811   0.797 -1.8893 -0.1560 -1.7558
15888SOL     OW48241   5.873   2.749   2.208  0.1577  0.0787 -0.0818
15888SOL    HW148242   5.784   2.718   2.227 -0.3949  2.0005  0.7353
15888SOL    HW248243   5.921   2.734   2.290  0.3096 -0.0017 -0.1852
15889SOL     OW48244   5.539   1.564   8.186 -0.3097  0.1919  0.0928
15889SOL    HW148245   5.568   1.487   8.234 -0.1946  0.5553  0.6190
15889SOL    HW248246   5.465   1.534   8.133 -0.6456 -0.1387  0.7470
15890SOL     OW48247   3.971   3.153   0.020  0.5573  0.1102 -0.4721
15890SOL    HW148248   4.048   3.116  -0.024  1.6251 -0.5277  1.7811
15890SOL    HW248249   3.984   3.248   0.015  1.9907  0.0101  0.5995
15891SOL     OW48250   5.870   4.383   9.608 -0.1104 -0.2413 -0.2260
15891SOL    HW148251   5.885   4.293   9.578  0.2219 -0.5042  0.6761
15891SOL    HW248252   5.803   4.373   9.676  0.7604  0.0398  0.6865
15892SOL     OW48253   1.259   9.460   2.363  0.0761 -0.1544 -0.4152
15892SOL    HW148254   1.343   9.501   2.344  0.3796 -0.6684 -0.2108
15892SOL    HW248255   1.248   9.394   2.295 -0.7455  0.7173 -1.1631
15893SOL     OW48256   2.088   8.230   6.112  0.4663  0.1885 -0.2275
15893SOL    HW148257   2.057   8.239   6.022 -0.4642 -2.9219 -0.3284
15893SOL    HW248258   2.013   8.255   6.166  0.9630  1.8628 -0.2488
15894SOL     OW48259   5.747   1.077   1.500  0.2353 -0.3193 -0.2458
15894SOL    HW148260   5.822   1.088   1.441 -0.3227 -0.0060 -0.9057
15894SOL    HW248261   5.696   1.007   1.459 -0.5026  0.3578 -0.5026
15895SOL     OW48262   4.672   2.099   3.566  0.5846  0.1208  0.2453
15895SOL    HW148263   4.676   2.159   3.640 -1.0562 -0.7214  1.0933
15895SOL    HW248264   4.672   2.012   3.606  2.6680 -0.4931 -0.9403
15896SOL     OW48265   3.789   4.597   4.845 -0.1931 -0.3633  0.1088
15896SOL    HW148266   3.872   4.549   4.851  1.2877  1.9211 -0.6519
15896SOL    HW248267   3.789   4.653   4.922 -1.2403 -0.5846  0.2823
15897SOL     OW48268   1.620   2.177   7.707  0.2054  0.2935  0.5675
15897SOL    HW148269   1.672   2.122   7.648 -0.2315  0.7827 -0.2926
15897SOL    HW248270   1.539   2.192   7.659 -0.0354  0.9540  1.1791
15898SOL     OW48271   3.008   7.368   3.203  0.1011  0.3686  0.1545
15898SOL    HW148272   2.967   7.303   3.145  0.9312  0.0946 -0.1360
15898SOL    HW248273   3.017   7.322   3.287  1.9169 -0.3936 -0.4070
15899SOL     OW48274   8.354   2.119   3.402  0.0932 -0.1159  0.3644
15899SOL    HW148275   8.270   2.126   3.448  0.1618 -0.8085  0.6099
15899SOL    HW248276   8.419   2.144   3.467  0.1309 -0.3110  0.4018
15900SOL     OW48277   3.030   5.600   8.383  0.3106  0.4117  0.1080
15900SOL    HW148278   3.098   5.657   8.419 -0.1187  0.3875  0.9867
15900SOL    HW248279   3.031   5.523   8.439  0.7419 -0.3636 -0.9476
15901SOL     OW48280   7.547   6.587   8.659 -0.3721 -0.4849  0.4077
15901SOL    HW148281   7.583   6.542   8.583  0.9692  0.0899  0.6695
15901SOL    HW248282   7.472   6.636   8.626 -0.3300 -0.9323 -0.3627
15902SOL     OW48283   2.036   3.563   4.034 -0.2414  0.3809 -0.3299
15902SOL    HW148284   2.003   3.587   4.121  0.8181  0.1207  0.1604
15902SOL    HW248285   2.044   3.468   4.036 -1.9582  0.1697 -1.3778
15903SOL     OW48286   6.027   4.379   5.457 -0.3667 -0.0421  0.1090
15903SOL    HW148287   6.060   4.296   5.492  0.4424  0.1025 -0.3007
15903SOL    HW248288   5.938   4.359   5.427 -0.1472 -0.7705 -0.0581
15904SOL     OW48289   6.324   9.262   2.190 -0.1985  0.1723 -0.1619
15904SOL    HW148290   6.254   9.237   2.129  0.4154 -1.0822 -0.3846
15904SOL    HW248291   6.352   9.348   2.160 -0.7623  0.1214 -0.8775
15905SOL     OW48292   0.627   8.130   7.165 -0.6438 -0.4035  0.4848
15905SOL    HW148293   0.609   8.116   7.258  1.9097  0.5768  1.2118
15905SOL    HW248294   0.723   8.139   7.161 -0.8225  1.0869 -2.0189
15906SOL     OW48295   0.214   6.896   3.816  0.4341 -0.4332 -0.4882
15906SOL    HW148296   0.141   6.839   3.842  1.0583 -1.6846 -1.4056
15906SOL    HW248297   0.243   6.935   3.899 -1.4733  0.3730 -0.1440
15907SOL     OW48298   0.459   8.931   6.889  0.2860 -0.1468 -0.5157
15907SOL    HW148299   0.389   8.913   6.826 -0.1761  0.0202 -0.0527
15907SOL    HW248300   0.510   8.850   6.891 -0.4468 -0.6058 -0.1528
15908SOL     OW48301   3.347   1.170   4.874  0.2832 -0.0873 -0.3321
15908SOL    HW148302   3.441   1.187   4.875  0.2062  0.4407 -1.1493
15908SOL    HW248303   3.312   1.233   4.812 -0.5734 -0.4930 -0.2749
15909SOL     OW48304   9.452   7.195   5.784 -0.3113 -0.4808 -0.3608
15909SOL    HW148305   9.398   7.201   5.705  0.3860  0.5645 -0.7805
15909SOL    HW248306   9.541   7.211   5.753 -0.2321  1.9179  0.8782
15910SOL     OW48307   8.808   9.697   6.673 -0.3842  0.3938  0.3207
15910SOL    HW148308   8.851   9.782   6.670  1.7556 -0.6356  0.3767
15910SOL    HW248309   8.820   9.660   6.585  0.4791 -0.6600  0.8560
15911SOL     OW48310   3.252   1.706   1.641 -0.0558 -0.0524  0.3798
15911SOL    HW148311   3.317   1.776   1.647 -0.0110 -0.0188 -0.4501
15911SOL    HW248312   3.270   1.663   1.558 -0.9251 -0.2188  0.2676
15912SOL     OW48313   6.310   3.536   6.165  0.2549 -0.3392  0.0785
15912SOL    HW148314   6.356   3.474   6.108  0.0868 -0.9058  0.5537
15912SOL    HW248315   6.227   3.551   6.121  0.6285  0.2079 -0.4660
15913SOL     OW48316   5.469   1.133   7.708  0.0367 -0.1705  0.2402
15913SOL    HW148317   5.393   1.083   7.679 -0.1196 -0.1249  0.5646
15913SOL    HW248318   5.434   1.221   7.725 -0.0338 -0.3797  1.2699
15914SOL     OW48319   5.197   8.380   7.669  0.6246  0.3153 -0.2031
15914SOL    HW148320   5.178   8.365   7.761 -1.1569  0.1621 -0.5638
15914SOL    HW248321   5.163   8.302   7.625  0.0123  1.0968 -1.1405
15915SOL     OW48322   0.796   7.963   1.736 -0.3410  0.1722  0.6514
15915SOL    HW148323   0.752   7.887   1.774 -2.6567  1.4159  0.6232
15915SOL    HW248324   0.813   8.021   1.811  1.1486 -0.2026  0.6350
15916SOL     OW48325   1.280   8.708   7.529  0.5094 -0.2251 -0.0589
15916SOL    HW148326   1.189   8.728   7.507  0.3228 -0.8298  0.1494
15916SOL    HW248327   1.316   8.791   7.559 -0.1780 -0.1380  0.5487
15917SOL     OW48328   5.227   2.297   5.176  0.6623 -0.0901 -0.2752
15917SOL    HW148329   5.152   2.305   5.236  0.0451  0.1791 -1.0607
15917SOL    HW248330   5.191   2.318   5.090  1.3145 -1.3641 -0.8973
15918SOL     OW48331   1.561   9.162   5.801  0.3551  0.5727  0.1437
15918SOL    HW148332   1.641   9.135   5.756 -0.8796 -1.0259 -1.1863
15918SOL    HW248333   1.557   9.107   5.879  0.4142  0.4888  0.0877
15919SOL     OW48334   1.079   8.259   5.898  0.7379  0.2986 -0.1392
15919SOL    HW148335   1.174   8.245   5.899  0.7101  0.0823 -0.3989
15919SOL    HW248336   1.042   8.174   5.875  0.4498  0.2465  0.5070
15920SOL     OW48337   9.375   1.113   8.565 -0.4043  0.0149 -0.1615
15920SOL    HW148338   9.303   1.146   8.619  0.7250  1.0304  0.7703
15920SOL    HW248339   9.422   1.052   8.622  0.1136  0.2001 -0.3843
15921SOL     OW48340   0.839   0.380   2.022  0.0531  0.2570 -0.4150
15921SOL    HW148341   0.884   0.329   1.955 -1.3591  0.5963 -1.6778
15921SOL    HW248342   0.759   0.331   2.041  1.7886 -1.4657  3.3677
15922SOL     OW48343   8.196   0.778   0.616 -0.0403  0.4071 -0.2923
15922SOL    HW148344   8.134   0.849   0.599 -1.6417 -0.9810 -0.4694
15922SOL    HW248345   8.234   0.799   0.702 -0.6003  1.3822 -0.2703
15923SOL     OW48346   1.518   9.552   2.284  0.2229 -0.2515  0.4780
15923SOL    HW148347   1.497   9.527   2.194 -4.6217 -0.4333  1.3723
15923SOL    HW248348   1.508   9.647   2.286  1.1142 -0.1555  0.6909
15924SOL     OW48349   4.222   4.789   9.004 -0.1016 -0.2359  0.3201
15924SOL    HW148350   4.222   4.763   9.097  2.7697  2.6854  1.3147
15924SOL    HW248351   4.308   4.828   8.990 -1.4110  1.9009 -2.8648
15925SOL     OW48352   0.265   3.923   4.724 -0.5611  0.5219 -0.2584
15925SOL    HW148353   0.253   4.015   4.697 -0.1895 -0.2348 -3.4768
15925SOL    HW248354   0.336   3.891   4.668  1.4218 -1.0121  2.8671
15926SOL     OW48355   5.493   4.868   5.270  0.4687  0.0864 -0.5498
15926SOL    HW148356   5.559   4.936   5.258  0.0321  0.7210  0.5712
15926SOL    HW248357   5.541   4.793   5.305  0.6968  0.3166 -0.3744
15927SOL     OW48358   0.536   6.154   2.793 -0.2250  0.2916 -0.1874
15927SOL    HW148359   0.473   6.196   2.852 -0.9381  0.7234 -1.2365
15927SOL    HW248360   0.497   6.162   2.706  0.2208 -1.4397 -0.5795
15928SOL     OW48361   7.348   0.172   7.854  0.3162 -0.3368 -0.0780
15928SOL    HW148362   7.366   0.236   7.924  2.3127 -0.5544 -0.3353
15928SOL    HW248363   7.405   0.199   7.782 -1.2139 -0.5164 -1.4124
15929SOL     OW48364   6.955   5.753   1.387 -0.3903 -0.2428  0.5486
15929SOL    HW148365   7.015   5.706   1.444  0.1007 -0.0914  0.1705
15929SOL    HW248366   7.012   5.810   1.335 -0.8911  0.1135  0.3818
15930SOL     OW48367   6.392   1.172   0.241 -0.5365 -0.3892  0.2798
15930SOL    HW148368   6.389   1.213   0.155 -3.9048 -0.6104  0.1358
15930SOL    HW248369   6.377   1.244   0.303 -1.8455 -0.6820  0.3464
15931SOL     OW48370   3.724   5.180   8.936 -0.1610  0.4703  0.0671
15931SOL    HW148371   3.633   5.152   8.929  0.6933 -2.5078 -0.3462
15931SOL    HW248372   3.735   5.205   9.028 -0.5863 -2.6712  1.0916
15932SOL     OW48373   1.215   0.834   0.427  0.3883  0.2521  0.2595
15932SOL    HW148374   1.142   0.890   0.454 -0.9130  0.1337 -2.6488
15932SOL    HW248375   1.200   0.751   0.472 -0.2766  0.7660  1.0174
15933SOL     OW48376   9.543   1.194   9.273 -0.2826  0.1540  0.0401
15933SOL    HW148377   9.449   1.204   9.286 -0.4390  0.1597 -1.0551
15933SOL    HW248378   9.581   1.272   9.314 -0.6684 -0.2666  1.2540
15934SOL     OW48379   1.157   2.704   6.535 -0.4025 -0.2389  0.0116
15934SOL    HW148380   1.246   2.718   6.503 -0.6033  2.0814  0.2775
15934SOL    HW248381   1.138   2.782   6.588 -3.0432  0.0191 -1.1467
15935SOL     OW48382   0.685   0.120   6.770  0.2647  0.0415 -0.4282
15935SOL    HW148383   0.633   0.074   6.836  2.3777 -0.0466  1.2819
15935SOL    HW248384   0.640   0.203   6.758  0.9957  1.0489  2.9197
15936SOL     OW48385   5.004   9.242   6.480 -0.3576  0.2638  0.4403
15936SOL    HW148386   5.045   9.216   6.562  0.2720  1.3102  0.4706
15936SOL    HW248387   4.915   9.267   6.504 -0.7779 -1.1701  0.5036
15937SOL     OW48388   1.189   8.762   3.869  0.5026 -0.0145 -0.0928
15937SOL    HW148389   1.202   8.856   3.878  2.7519 -0.3561  0.7940
15937SOL    HW248390   1.275   8.724   3.885 -0.6011 -2.3221  0.7630
15938SOL     OW48391   5.235   0.650   4.529  0.1777  0.2458 -0.0284
15938SOL    HW148392   5.286   0.672   4.606  1.1945  0.4753 -0.7452
15938SOL    HW248393   5.280   0.695   4.457 -1.2283  0.7385 -0.6327
15939SOL     OW48394   2.424   3.104   2.007 -0.1837  0.2739 -0.4237
15939SOL    HW148395   2.450   3.179   2.060 -1.9162  1.4681 -1.1701
15939SOL    HW248396   2.360   3.057   2.061 -0.2234  0.1859 -0.5462
15940SOL     OW48397   3.510   0.841   6.784 -0.2105 -0.3321 -0.3620
15940SOL    HW148398   3.604   0.847   6.770  0.4234 -1.6484  2.6366
15940SOL    HW248399   3.491   0.747   6.778 -1.0585 -0.2219  0.3651
15941SOL     OW48400   6.688   4.143   4.410  0.4592  0.1382  0.0052
15941SOL    HW148401   6.630   4.156   4.335 -1.0174 -1.9238  0.7089
15941SOL    HW248402   6.775   4.131   4.371 -0.3141 -1.1119 -1.4422
15942SOL     OW48403   6.202   6.556   8.477 -0.0558 -0.2978  0.3241
15942SOL    HW148404   6.240   6.542   8.391 -0.2793  1.7172 -0.1494
15942SOL    HW248405   6.256   6.625   8.516 -0.2403 -0.8585  1.6143
15943SOL     OW48406   6.709   8.784   3.458 -0.1345 -0.0963 -0.7993
15943SOL    HW148407   6.687   8.798   3.551 -0.1330  0.7945 -0.9203
15943SOL    HW248408   6.804   8.777   3.457 -0.0448  0.8706 -0.8266
15944SOL     OW48409   1.143   3.841   1.527 -0.0371 -0.1766 -0.1997
15944SOL    HW148410   1.149   3.812   1.618  0.1285 -0.1773 -0.2110
15944SOL    HW248411   1.196   3.920   1.523 -3.2871  2.2768  0.6959
15945SOL     OW48412   5.739   3.474   5.621 -0.1651 -0.2295 -0.1867
15945SOL    HW148413   5.647   3.490   5.604 -0.4637 -1.1938  0.4563
15945SOL    HW248414   5.758   3.522   5.702 -0.1431 -0.1622 -0.2318
15946SOL     OW48415   2.634   6.061   7.089  0.6284 -0.3482  0.5221
15946SOL    HW148416   2.565   5.995   7.095  1.0084 -0.8734 -0.7018
15946SOL    HW248417   2.630   6.107   7.174  0.9322 -2.4791  1.7653
15947SOL     OW48418   9.129   8.239   5.813  0.0254  0.6201  0.8872
15947SOL    HW148419   9.153   8.230   5.721  0.5116  0.9691  0.9764
15947SOL    HW248420   9.212   8.255   5.858  0.1211 -1.6847  1.6989
15948SOL     OW48421   2.385   4.914   9.910  0.1327 -0.1669 -0.3777
15948SOL    HW148422   2.459   4.956   9.956 -0.2549  1.5223 -1.2054
15948SOL    HW248423   2.395   4.821   9.929  1.2208  0.2407  1.3313
15949SOL     OW48424   0.879   2.374   6.616  0.2987  0.3303  0.0543
15949SOL    HW148425   0.802   2.357   6.563  0.7269  0.7622 -0.7146
15949SOL    HW248426   0.952   2.336   6.567  0.7628  1.1380  0.0978
15950SOL     OW48427   0.336   0.579   5.045 -0.7940  0.2126  0.6045
15950SOL    HW148428   0.282   0.583   5.124 -1.2180  1.4893  0.2807
15950SOL    HW248429   0.417   0.537   5.074 -1.7348 -1.2579  1.2234
15951SOL     OW48430   1.047   0.774   2.231 -0.0542 -0.8320 -0.5353
15951SOL    HW148431   1.012   0.846   2.178  1.9115  1.0191  0.4694
15951SOL    HW248432   1.076   0.709   2.167 -0.0900  0.1812 -1.6199
15952SOL     OW48433   6.665   8.053   9.493 -0.0229 -0.0962  0.3310
15952SOL    HW148434   6.630   8.119   9.553  1.2635 -0.0970  1.1073
15952SOL    HW248435   6.695   7.983   9.551  0.2811 -0.5672 -0.3890
15953SOL     OW48436   8.087   3.180   7.384  0.2194 -0.0338  0.3237
15953SOL    HW148437   8.171   3.208   7.422 -0.1795 -0.6600  1.7324
15953SOL    HW248438   8.108   3.101   7.335  0.4179 -0.3072  0.8473
15954SOL     OW48439   1.985   9.031   4.347  0.0249 -0.5263  0.1929
15954SOL    HW148440   2.024   8.949   4.377 -0.1303 -1.0423 -0.9364
15954SOL    HW248441   2.016   9.039   4.256 -0.4113  0.3775  0.1195
15955SOL     OW48442   6.101   3.857   5.315  0.4339 -0.1599  0.2728
15955SOL    HW148443   6.081   3.779   5.366 -2.6656 -0.3123 -0.9562
15955SOL    HW248444   6.092   3.830   5.223 -0.9526  1.6081 -0.1841
15956SOL     OW48445   1.686   8.057   4.464  0.0560  0.0460 -0.0996
15956SOL    HW148446   1.622   8.097   4.523 -1.7672 -1.2278 -1.1061
15956SOL    HW248447   1.667   7.963   4.469  0.8887 -0.2234 -1.5151
15957SOL     OW48448   0.391   1.698   9.948 -0.0718  0.0068 -0.2003
15957SOL    HW148449   0.359   1.609   9.961  1.3911 -0.7116 -1.3045
15957SOL    HW248450   0.479   1.687   9.912  0.3157  1.9055  0.0676
15958SOL     OW48451   3.585   9.028   8.233 -0.4760  0.0412  1.0161
15958SOL    HW148452   3.612   9.118   8.212  1.4438 -0.7982 -0.3390
15958SOL    HW248453   3.647   9.000   8.300  0.7873 -1.1894 -0.5903
15959SOL     OW48454   1.454   2.998   4.290  0.2314  0.5872 -0.6718
15959SOL    HW148455   1.397   2.970   4.218 -1.1072 -0.1797  0.6365
15959SOL    HW248456   1.403   2.983   4.369  1.5323  1.7318  0.4510
15960SOL     OW48457   8.144   5.440   4.666  0.3375  0.4404  0.2445
15960SOL    HW148458   8.138   5.511   4.603  2.3470  0.4550  0.0285
15960SOL    HW248459   8.065   5.449   4.719 -0.6479  1.3393 -1.2929
15961SOL     OW48460   7.406   7.743   5.767  0.8557 -0.1127 -0.5301
15961SOL    HW148461   7.323   7.708   5.799 -0.3322 -0.5432 -3.6451
15961SOL    HW248462   7.470   7.675   5.787 -0.1250 -1.0842 -0.5851
15962SOL     OW48463   6.655   7.614   4.519 -0.2450 -0.1312  0.0230
15962SOL    HW148464   6.670   7.531   4.475 -3.1290 -0.6740 -0.1277
15962SOL    HW248465   6.624   7.590   4.606  0.8312  0.8509  0.7001
15963SOL     OW48466   4.516   0.927   6.340 -0.0547  0.1289  0.5083
15963SOL    HW148467   4.498   0.836   6.318  0.0453 -0.0066  0.9726
15963SOL    HW248468   4.525   0.971   6.256  0.6094 -0.4365  0.2787
15964SOL     OW48469   8.723   6.862   4.255 -0.2324 -0.0491  0.1773
15964SOL    HW148470   8.762   6.917   4.323  2.0874 -0.2503 -0.9126
15964SOL    HW248471   8.631   6.891   4.251  0.5731  2.8783  0.5370
15965SOL     OW48472   9.714   3.772   5.906  0.2296  0.5679  0.6566
15965SOL    HW148473   9.794   3.742   5.949 -0.0512  0.7433  1.3168
15965SOL    HW248474   9.664   3.815   5.976 -0.3171  0.6974  0.1926
15966SOL     OW48475   0.136   7.429   8.845  0.1982  0.2834 -0.2984
15966SOL    HW148476   0.196   7.503   8.836  1.3586 -0.5690  0.1790
15966SOL    HW248477   0.124   7.397   8.756  0.6174  0.3325 -0.3736
15967SOL     OW48478   6.506   3.849   2.954  0.2844  0.5313 -0.5995
15967SOL    HW148479   6.508   3.764   2.999 -0.2761  0.9246  0.1984
15967SOL    HW248480   6.512   3.827   2.861  0.4409 -0.3629 -0.3922
15968SOL     OW48481   1.195   4.497   3.294 -0.1129 -0.5447  0.3676
15968SOL    HW148482   1.112   4.541   3.312 -0.7231 -1.9999  1.3524
15968SOL    HW248483   1.237   4.549   3.226 -1.0898  1.1387  1.0139
15969SOL     OW48484   0.435   8.087   2.782  0.0639  0.0308  0.4620
15969SOL    HW148485   0.406   8.021   2.845 -0.5438 -0.0239  0.1298
15969SOL    HW248486   0.373   8.080   2.709  1.1135 -0.3426 -0.4286
15970SOL     OW48487   3.284   6.854   9.784  0.0022 -0.1624  0.1291
15970SOL    HW148488   3.279   6.868   9.689 -1.2589 -1.5952 -0.0408
15970SOL    HW248489   3.231   6.777   9.800  0.2114  0.0442  2.0273
15971SOL     OW48490   5.318   3.305   3.511  0.0575  0.1510 -0.3237
15971SOL    HW148491   5.246   3.334   3.568 -1.2194  1.3553 -2.4448
15971SOL    HW248492   5.276   3.248   3.447  1.3194 -0.4839 -0.6090
15972SOL     OW48493   1.070   6.195   9.253  0.4667 -0.4449 -0.5563
15972SOL    HW148494   1.014   6.128   9.293 -0.1710  0.9729  1.0069
15972SOL    HW248495   1.148   6.197   9.309  0.7272 -0.2420 -0.9199
15973SOL     OW48496   3.020   0.948   2.049  0.2380  0.2117  0.4971
15973SOL    HW148497   2.927   0.967   2.039  0.0318 -1.3084 -0.9489
15973SOL    HW248498   3.035   0.954   2.144 -1.6818 -0.9280  0.9378
15974SOL     OW48499   7.131   4.822   3.878 -0.5777  0.3124 -0.5598
15974SOL    HW148500   7.201   4.848   3.937 -1.8242 -0.5099  1.3702
15974SOL    HW248501   7.175   4.774   3.808  0.7213 -1.2572  1.2239
15975SOL     OW48502   4.366   5.020   0.229  0.1013  0.0677  0.1912
15975SOL    HW148503   4.310   5.072   0.286  2.5010  0.2061  2.6261
15975SOL    HW248504   4.312   5.003   0.152 -2.9757  0.7629  2.0101
15976SOL     OW48505   7.642   6.687   1.479  0.4177  0.1619  0.1861
15976SOL    HW148506   7.559   6.730   1.459  0.3363 -0.5678 -1.1574
15976SOL    HW248507   7.650   6.617   1.414  0.5710 -1.8627  2.2417
15977SOL     OW48508   5.492   7.550   9.671  0.0732 -0.3904  0.1545
15977SOL    HW148509   5.427   7.490   9.634  1.6028 -1.6053 -0.6747
15977SOL    HW248510   5.456   7.574   9.756 -1.8272 -0.3769 -0.5914
15978SOL     OW48511   9.874   7.752   5.009  0.3170  0.0175  0.3210
15978SOL    HW148512   9.825   7.670   5.006  0.1650  0.0366  1.6796
15978SOL    HW248513   9.966   7.725   5.010  0.4889 -0.0035 -3.0422
15979SOL     OW48514   6.640   6.205   8.037 -0.4292 -0.0385  0.2957
15979SOL    HW148515   6.705   6.265   8.002  0.7590  1.2082  4.0711
15979SOL    HW248516   6.559   6.256   8.041 -1.0296 -0.7041 -1.8233
15980SOL     OW48517   5.686   3.469   2.487  0.6126  0.0856  0.4536
15980SOL    HW148518   5.725   3.406   2.547 -0.7573 -0.7411  0.5100
15980SOL    HW248519   5.624   3.518   2.541 -1.2036 -1.1870 -0.4155
15981SOL     OW48520   4.140   1.564   6.681 -0.9101 -0.2515  0.2840
15981SOL    HW148521   4.126   1.641   6.737 -1.5350 -1.3200  1.6602
15981SOL    HW248522   4.200   1.509   6.732  1.3493  0.2595 -1.6421
15982SOL     OW48523   3.898   9.501   5.077 -0.3653  0.2475  0.0047
15982SOL    HW148524   3.869   9.460   5.158 -0.3943  0.4868  0.1164
15982SOL    HW248525   3.992   9.513   5.088 -0.1700 -0.7671 -0.4625
15983SOL     OW48526   2.853   7.016   2.378 -0.0008  0.1052  0.4108
15983SOL    HW148527   2.909   6.940   2.367  0.2669  0.3924 -0.2849
15983SOL    HW248528   2.913   7.089   2.392 -0.1478  0.5020 -0.8455
15984SOL     OW48529   0.656   0.675   9.779 -0.0009  0.1231 -0.3263
15984SOL    HW148530   0.666   0.665   9.684 -0.7568 -0.2274 -0.3833
15984SOL    HW248531   0.734   0.633   9.816 -0.0979 -0.4784 -0.7748
15985SOL     OW48532   7.849   4.539   9.054 -0.0199 -0.4599 -0.0380
15985SOL    HW148533   7.923   4.574   9.103 -1.1381  0.3595  1.1148
15985SOL    HW248534   7.883   4.529   8.965  0.9179  1.7486 -0.0013
15986SOL     OW48535   1.719   5.306   5.376  0.0289 -0.1050  0.5175
15986SOL    HW148536   1.784   5.375   5.380  0.8018 -0.8765  2.5704
15986SOL    HW248537   1.722   5.275   5.285  1.1200  1.1788  0.0945
15987SOL     OW48538   4.913   5.239   4.092 -0.1313 -0.3173 -0.2796
15987SOL    HW148539   4.874   5.164   4.046 -0.1242 -0.7283  0.3665
15987SOL    HW248540   4.884   5.229   4.183  1.3526 -0.5681  0.2062
15988SOL     OW48541   1.197   4.511   6.722  0.5169 -0.2953  0.0782
15988SOL    HW148542   1.276   4.521   6.669  0.1127 -3.0783 -1.2243
15988SOL    HW248543   1.216   4.435   6.778 -0.3289  0.5586  1.5899
15989SOL     OW48544   3.979   5.007   9.550 -0.1533  0.1067  0.0045
15989SOL    HW148545   3.911   5.073   9.564  0.4899  0.7492  0.2027
15989SOL    HW248546   3.994   5.008   9.455 -1.3255 -0.9892 -0.2236
15990SOL     OW48547   7.373   3.084   5.771 -0.6206  0.0981 -0.0761
15990SOL    HW148548   7.370   3.009   5.831 -0.3243  1.8262  2.2608
15990SOL    HW248549   7.314   3.148   5.810  1.0603  2.0441 -0.5316
15991SOL     OW48550   9.385   5.988   9.777 -0.5021  0.2037 -0.2758
15991SOL    HW148551   9.453   6.052   9.798 -0.3526  0.1580 -0.6039
15991SOL    HW248552   9.349   5.962   9.861 -0.6838  0.8537 -0.1433
15992SOL     OW48553   8.250   7.552   2.299 -0.3990  0.4330  0.2239
15992SOL    HW148554   8.227   7.472   2.251  0.0955  1.0921 -1.1540
15992SOL    HW248555   8.206   7.542   2.383  0.7405 -1.9136  0.6420
15993SOL     OW48556   1.474   8.087   3.468  0.2810 -0.4702 -0.0031
15993SOL    HW148557   1.491   8.101   3.375 -2.4560 -1.5857 -0.7729
15993SOL    HW248558   1.395   8.138   3.486  0.3661 -0.8202  1.5609
15994SOL     OW48559   0.309   1.085   5.432 -0.1146 -0.3239  0.4346
15994SOL    HW148560   0.393   1.131   5.437 -1.5913  2.5125  1.0096
15994SOL    HW248561   0.330   1.002   5.389  2.7748  0.7701 -0.5096
15995SOL     OW48562   9.572   4.571   9.821  0.6015 -0.4097  0.0339
15995SOL    HW148563   9.547   4.481   9.803 -0.2022 -0.0666 -0.6733
15995SOL    HW248564   9.598   4.571   9.913 -0.1612 -1.2093  0.2651
15996SOL     OW48565   9.413   4.101   4.650  0.6342  0.7994 -0.3636
15996SOL    HW148566   9.440   4.020   4.607  0.0164 -0.2648  1.1854
15996SOL    HW248567   9.383   4.157   4.578 -0.7353 -1.0574 -1.3405
15997SOL     OW48568   9.943   0.600   4.498  0.4747 -0.3131  0.2744
15997SOL    HW148569   9.934   0.639   4.411 -0.9716 -0.7920  0.1934
15997SOL    HW248570   9.937   0.674   4.558 -1.4959 -0.2724  0.0841
15998SOL     OW48571   3.906   2.725   9.550  0.9806  0.4700  0.0819
15998SOL    HW148572   3.919   2.631   9.538 -3.1758  0.0455 -3.6643
15998SOL    HW248573   3.842   2.731   9.621 -0.0079  0.2159 -0.7495
15999SOL     OW48574   5.187   4.560   5.892  0.0118 -0.6287 -0.0512
15999SOL    HW148575   5.143   4.631   5.845  1.8338  0.8702  0.4244
15999SOL    HW248576   5.219   4.600   5.972  1.4721 -1.8806  0.0240
16000SOL     OW48577   2.472   3.935   4.248 -0.0446  0.4541  0.7692
16000SOL    HW148578   2.563   3.963   4.243  0.0358  0.1808  0.6542
16000SOL    HW248579   2.439   3.947   4.159  0.0465  0.0113  0.6701
16001SOL     OW48580   8.525   4.371   1.280 -0.1332 -0.1344  0.5958
16001SOL    HW148581   8.530   4.465   1.263 -0.3054 -0.1369  0.5264
16001SOL    HW248582   8.591   4.355   1.348  1.0942 -0.2349 -0.5640
16002SOL     OW48583   8.082   0.556   4.663 -0.1805  0.1616 -0.3429
16002SOL    HW148584   8.113   0.465   4.662  2.5799  1.0149 -1.0264
16002SOL    HW248585   8.027   0.563   4.585 -0.6573 -0.9783 -0.1233
16003SOL     OW48586   1.540   9.217   2.585  0.1166  0.1059 -0.3875
16003SOL    HW148587   1.623   9.185   2.619  0.4467  0.8190 -0.5171
16003SOL    HW248588   1.557   9.307   2.560 -1.3872  1.2455  2.2004
16004SOL     OW48589   6.173   4.014   6.658 -0.2751 -0.0579 -0.3621
16004SOL    HW148590   6.102   3.996   6.721  0.4505  0.1317  0.5325
16004SOL    HW248591   6.129   4.052   6.583 -1.1782 -0.3358  0.0054
16005SOL     OW48592   3.124   1.613   6.815  0.3460  0.3580 -0.1123
16005SOL    HW148593   3.163   1.526   6.809 -1.4977 -0.7140  1.9069
16005SOL    HW248594   3.134   1.650   6.728  1.3077 -1.8190 -1.0003
16006SOL     OW48595   0.785   9.316   8.680  0.2941  0.1169 -0.1670
16006SOL    HW148596   0.803   9.251   8.747  0.8130  1.2131  0.7921
16006SOL    HW248597   0.744   9.266   8.609  1.5957 -1.4354  0.1030
16007SOL     OW48598   3.325   9.389   9.410  0.0850 -0.1935 -0.6129
16007SOL    HW148599   3.379   9.382   9.489 -1.2157  0.3367  0.3527
16007SOL    HW248600   3.383   9.360   9.339  1.4806 -0.1026  0.4406
16008SOL     OW48601   6.253   5.488   2.414  0.0799 -0.8710 -0.0270
16008SOL    HW148602   6.194   5.425   2.455 -0.1560  0.1422  1.2763
16008SOL    HW248603   6.233   5.571   2.458  1.4874 -0.2124 -0.5659
16009SOL     OW48604   6.727   6.082   8.269  0.1240  0.0877  0.1161
16009SOL    HW148605   6.689   6.120   8.190  0.5867  0.4468  0.0603
16009SOL    HW248606   6.676   6.120   8.341  1.0423  1.4048  0.1052
16010SOL     OW48607   9.652   0.134   6.732 -0.6452  0.0625  0.3483
16010SOL    HW148608   9.593   0.074   6.778 -0.3241 -1.7641 -1.4605
16010SOL    HW248609   9.600   0.166   6.658 -0.1044  0.2795  0.0584
16011SOL     OW48610   2.795   7.044   7.795  0.7401 -0.4314 -0.0941
16011SOL    HW148611   2.858   6.977   7.770  0.6697 -0.7855  0.6521
16011SOL    HW248612   2.715   6.995   7.816  0.7605 -0.1508  0.6925
16012SOL     OW48613   9.849   1.203   1.187 -0.0166  0.3639  0.4927
16012SOL    HW148614   9.798   1.262   1.131 -0.4025  0.0451  0.5115
16012SOL    HW248615   9.939   1.233   1.176  0.2649 -1.0864 -2.0828
16013SOL     OW48616   0.237   0.768   6.978 -0.0263 -0.1203 -0.1466
16013SOL    HW148617   0.190   0.724   6.907  0.0071 -0.4145  0.0091
16013SOL    HW248618   0.239   0.860   6.952 -0.1984 -0.1918 -0.4248
16014SOL     OW48619   4.045   9.353   5.406  0.1995 -0.6266  0.3114
16014SOL    HW148620   3.951   9.345   5.388  0.5384 -0.2058 -1.9116
16014SOL    HW248621   4.057   9.446   5.425  0.0627 -0.8264  1.4425
16015SOL     OW48622   9.280   1.800   2.704  0.3959 -0.0272  0.0654
16015SOL    HW148623   9.317   1.811   2.617 -1.0900  1.0302 -0.4721
16015SOL    HW248624   9.247   1.710   2.706  0.9734 -0.2443 -0.2439
16016SOL     OW48625   6.277   3.138   6.131 -0.1739 -0.2366  0.1703
16016SOL    HW148626   6.240   3.220   6.164 -0.7385 -0.8501  1.0862
16016SOL    HW248627   6.238   3.070   6.186  1.9722 -0.9571  0.9124
16017SOL     OW48628   7.837   2.189   6.466 -0.2656  0.0470  0.1057
16017SOL    HW148629   7.784   2.234   6.531 -0.1776  0.7319 -0.2777
16017SOL    HW248630   7.815   2.232   6.383 -1.7667 -2.0200 -0.6622
16018SOL     OW48631   0.774   7.110   3.373  0.2564 -0.1189 -0.0847
16018SOL    HW148632   0.866   7.128   3.358 -0.0891  2.8084  0.7848
16018SOL    HW248633   0.773   7.056   3.453  1.1834  1.0056  0.7151
16019SOL     OW48634   5.113   0.577   7.570  0.2284 -0.2067 -0.0123
16019SOL    HW148635   5.152   0.636   7.507  2.6504 -0.1817  1.3804
16019SOL    HW248636   5.023   0.607   7.580  0.7280  1.7470 -1.0679
16020SOL     OW48637   1.785   6.274   9.223 -0.0731 -0.3960  0.3368
16020SOL    HW148638   1.777   6.278   9.127 -0.5317 -0.2687  0.3771
16020SOL    HW248639   1.878   6.257   9.238 -0.2004 -1.6388 -0.1592
16021SOL     OW48640   9.730   1.885   1.999 -0.4523  0.1246  0.3615
16021SOL    HW148641   9.807   1.843   2.037  0.2518  0.8996 -0.1542
16021SOL    HW248642   9.741   1.875   1.904  0.0802  1.9598  0.1820
16022SOL     OW48643   6.646   4.355   6.215 -0.0112 -0.6038  0.1130
16022SOL    HW148644   6.605   4.437   6.242  0.4815 -0.6366  1.0103
16022SOL    HW248645   6.603   4.287   6.267 -0.5271 -0.9443 -0.7389
16023SOL     OW48646   2.915   1.850   8.224 -0.1139  0.2254 -0.1693
16023SOL    HW148647   2.891   1.940   8.244 -0.4028  0.8177 -2.7925
16023SOL    HW248648   3.008   1.844   8.247 -0.3209  0.8823  0.9031
16024SOL     OW48649   1.603   3.002   7.916  0.3198  0.0056 -0.0986
16024SOL    HW148650   1.564   2.955   7.989  0.4403 -0.5433 -0.3768
16024SOL    HW248651   1.529   3.039   7.869  0.1609 -0.5619 -0.3088
16025SOL     OW48652   2.348   8.965   4.112  0.3136 -0.2006  0.1450
16025SOL    HW148653   2.310   9.052   4.099 -0.9168 -0.6586  0.5391
16025SOL    HW248654   2.284   8.905   4.074  1.1401 -0.9376 -0.1006
16026SOL     OW48655   2.097   8.105   5.700 -0.0536  0.3206 -0.1867
16026SOL    HW148656   2.058   8.174   5.754  0.3462 -0.4550  1.1687
16026SOL    HW248657   2.178   8.143   5.666  0.7704  0.1924  1.5148
16027SOL     OW48658   9.463   0.796   0.620 -0.4300  0.3377 -0.1894
16027SOL    HW148659   9.451   0.876   0.670 -1.4993  0.3642 -0.4552
16027SOL    HW248660   9.528   0.746   0.670 -2.1258 -0.0617  1.7918
16028SOL     OW48661   5.417   2.722   6.169  0.7097 -0.0079 -0.0132
16028SOL    HW148662   5.386   2.763   6.250 -0.1177 -0.8298  0.1102
16028SOL    HW248663   5.504   2.760   6.154  0.5958  0.6402  0.9050
16029SOL     OW48664   5.604   6.004   1.438  0.5437  0.5038 -0.4300
16029SOL    HW148665   5.614   5.924   1.491  3.3084  0.4895 -0.8264
16029SOL    HW248666   5.539   5.980   1.372 -1.3282 -0.2044  1.5312
16030SOL     OW48667   5.628   2.557   5.586  0.6017 -0.2142 -0.2992
16030SOL    HW148668   5.608   2.539   5.678 -0.3698  0.8912 -0.2709
16030SOL    HW248669   5.550   2.600   5.553  1.4830  0.6740 -1.2819
16031SOL     OW48670   1.285   1.419   8.421 -0.0749  0.3483  0.0471
16031SOL    HW148671   1.284   1.350   8.354  1.6097  0.6756 -0.3640
16031SOL    HW248672   1.346   1.485   8.386  1.9188 -0.0882  2.4432
16032SOL     OW48673   2.378   7.187   8.265 -0.0895 -0.3661  0.2864
16032SOL    HW148674   2.383   7.094   8.245 -0.4994 -0.5778  1.1224
16032SOL    HW248675   2.379   7.191   8.361 -1.4229  0.3928  0.2925
16033SOL     OW48676   0.209   0.136   6.985  0.2702  0.4839  0.0423
16033SOL    HW148677   0.118   0.149   7.010  0.0811  0.1312 -0.4456
16033SOL    HW248678   0.248   0.087   7.057 -0.0228  0.3076  0.0817
16034SOL     OW48679   6.585   3.224   6.178  0.3172  0.5092  0.3416
16034SOL    HW148680   6.504   3.190   6.140  0.6665 -1.1399  0.9794
16034SOL    HW248681   6.653   3.163   6.148  1.2160  1.4567  0.3960
16035SOL     OW48682   3.873   3.029   2.740 -0.6344  0.2031 -0.1805
16035SOL    HW148683   3.793   2.981   2.761 -1.0680  1.4386  1.2045
16035SOL    HW248684   3.942   2.962   2.738 -1.3374 -0.5915  0.9284
16036SOL     OW48685   9.706   9.848   7.065  0.2972  0.5830 -0.7576
16036SOL    HW148686   9.632   9.788   7.055  0.7814  0.1458 -1.9862
16036SOL    HW248687   9.741   9.857   6.977  1.7485  0.7320 -0.1917
16037SOL     OW48688   6.996   4.271   9.235  0.9033 -0.1220  0.0688
16037SOL    HW148689   6.987   4.323   9.315  0.9835 -0.6655  0.4368
16037SOL    HW248690   6.926   4.301   9.178  1.5673  1.1083 -0.1256
16038SOL     OW48691   7.881   4.696   8.118 -0.0938  0.0274 -0.5011
16038SOL    HW148692   7.971   4.693   8.149 -0.1702 -4.0437 -0.0640
16038SOL    HW248693   7.887   4.724   8.027  1.1418  3.0789  0.4026
16039SOL     OW48694   4.353   7.662   8.409  0.4803 -0.1429 -0.2698
16039SOL    HW148695   4.265   7.645   8.374  0.5667 -0.2009 -0.4573
16039SOL    HW248696   4.405   7.686   8.333  1.3596 -2.9501 -0.6837
16040SOL     OW48697   7.667   8.553   4.156 -0.1371 -0.8911 -0.0351
16040SOL    HW148698   7.750   8.512   4.132  0.8533  0.4386  0.9674
16040SOL    HW248699   7.683   8.588   4.244 -2.2880 -2.0142  0.8642
16041SOL     OW48700   1.583   6.075   5.543  0.4722 -0.2206 -0.7942
16041SOL    HW148701   1.594   6.019   5.466 -0.5588  1.0211 -1.8831
16041SOL    HW248702   1.576   6.164   5.508 -0.3765  0.3442  0.7078
16042SOL     OW48703   1.149   2.845   2.738  0.1762  0.6149 -0.1606
16042SOL    HW148704   1.204   2.894   2.799 -1.1485  3.8771 -1.3697
16042SOL    HW248705   1.122   2.909   2.673 -3.4338 -1.2560 -0.7844
16043SOL     OW48706   7.372   9.294   2.747 -0.3178 -0.0461  0.7764
16043SOL    HW148707   7.328   9.358   2.802  0.9105  1.0936  0.4897
16043SOL    HW248708   7.429   9.346   2.690 -0.5409 -1.2868 -0.6348
16044SOL     OW48709   6.851   9.558   7.201  0.4244 -0.1743 -0.1321
16044SOL    HW148710   6.937   9.533   7.235 -0.0432  1.5251  2.6332
16044SOL    HW248711   6.870   9.619   7.130  1.5023 -1.0351 -0.6010
16045SOL     OW48712   3.900   2.495   3.326 -0.0031  0.4884 -0.3214
16045SOL    HW148713   3.819   2.446   3.314  0.2823  0.2481 -1.3587
16045SOL    HW248714   3.873   2.574   3.374 -0.2066 -1.3838  2.8754
16046SOL     OW48715   5.948   1.059   4.100  0.0377 -0.2605  0.4318
16046SOL    HW148716   5.884   1.067   4.171 -0.6563 -0.8688 -0.1029
16046SOL    HW248717   5.980   1.148   4.087 -0.4487 -0.0009  0.9417
16047SOL     OW48718   0.092   2.895   5.734  0.2958  0.3576  0.1441
16047SOL    HW148719   0.085   2.954   5.809  1.3225  1.0382 -0.2778
16047SOL    HW248720   0.048   2.815   5.763 -0.7181  1.1543  0.8929
16048SOL     OW48721   6.122   9.270   4.555 -0.0308 -0.3589  0.0065
16048SOL    HW148722   6.178   9.299   4.483 -0.4238 -0.4797 -0.3469
16048SOL    HW248723   6.040   9.244   4.514  0.4723 -2.4602  0.2324
16049SOL     OW48724   7.700   2.381   6.983 -0.4672 -0.4575  0.1060
16049SOL    HW148725   7.660   2.432   7.054  2.0054 -0.3771  1.5388
16049SOL    HW248726   7.760   2.441   6.941  0.1875 -1.3164 -0.2052
16050SOL     OW48727   0.814   7.857   4.238 -0.2207  0.3068 -0.0787
16050SOL    HW148728   0.875   7.852   4.312 -2.7769 -0.3171  2.1379
16050SOL    HW248729   0.807   7.951   4.219  1.7654  0.3583 -0.7625
16051SOL     OW48730   2.725   2.733   0.603 -0.4290 -0.9873  0.1833
16051SOL    HW148731   2.777   2.687   0.537  2.7185 -1.4248  2.7374
16051SOL    HW248732   2.712   2.668   0.672 -1.4056  0.1774  1.1302
16052SOL     OW48733   3.810   3.192   2.238  0.4683  0.0088  0.3257
16052SOL    HW148734   3.818   3.195   2.334  1.3067  1.3299  0.2486
16052SOL    HW248735   3.889   3.147   2.209  0.9475  0.9044  0.2035
16053SOL     OW48736   1.883   2.427   3.427  0.0598  0.7446 -0.1675
16053SOL    HW148737   1.939   2.500   3.451 -1.0635  1.5446  0.1000
16053SOL    HW248738   1.888   2.423   3.332  1.0114  0.4300 -0.1137
16054SOL     OW48739   3.215   4.075   0.938  0.1673 -0.6527 -0.5694
16054SOL    HW148740   3.168   4.004   0.982 -0.4704 -0.5731 -1.0975
16054SOL    HW248741   3.222   4.144   1.003 -1.9277 -0.0204 -0.9531
16055SOL     OW48742   9.907   1.842   9.659 -0.5546  0.6738 -0.2518
16055SOL    HW148743   9.987   1.852   9.709 -0.7004  1.7052 -0.2183
16055SOL    HW248744   9.901   1.920   9.605 -1.2943  0.3885 -0.6115
16056SOL     OW48745   6.171   2.932   8.484 -0.1018  0.3414  0.3024
16056SOL    HW148746   6.217   2.853   8.455  0.6344  0.8141  0.1664
16056SOL    HW248747   6.115   2.956   8.409 -2.1486 -1.3629  1.1671
16057SOL     OW48748   9.331   7.488   4.453  0.1525 -0.3678 -0.1376
16057SOL    HW148749   9.284   7.420   4.500  0.3109 -1.7368 -1.8476
16057SOL    HW248750   9.420   7.484   4.487  0.0276 -0.6157  0.1651
16058SOL     OW48751   4.447   2.096   0.114  0.4778 -0.6023  0.1987
16058SOL    HW148752   4.470   2.008   0.084 -0.2112 -0.8586  0.3917
16058SOL    HW248753   4.449   2.150   0.035  0.6866 -0.8356  0.0439
16059SOL     OW48754   9.692   6.598   4.311  0.5555 -0.0234  0.5044
16059SOL    HW148755   9.665   6.564   4.226  1.1428 -0.2575  0.4024
16059SOL    HW248756   9.618   6.578   4.369  0.5398 -0.7240  0.2579
16060SOL     OW48757   8.977   9.160   0.897  0.3387 -0.1098 -0.0641
16060SOL    HW148758   9.049   9.158   0.833  0.6194 -0.3627  0.2515
16060SOL    HW248759   8.903   9.123   0.851  0.8362 -1.3564  0.0964
16061SOL     OW48760   2.124   1.908   0.082  0.3940  0.1469 -0.9176
16061SOL    HW148761   2.212   1.935   0.058  1.1463 -0.3526  1.1132
16061SOL    HW248762   2.106   1.831   0.028  0.8672  0.7017 -1.8927
16062SOL     OW48763   7.541   7.131   1.334  0.2536 -0.1906  0.4814
16062SOL    HW148764   7.503   7.127   1.422 -0.4310 -1.2359  0.1647
16062SOL    HW248765   7.482   7.189   1.286 -0.9218 -1.7121  0.0247
16063SOL     OW48766   8.669   1.706   7.829  0.2946  0.5762  0.2455
16063SOL    HW148767   8.742   1.715   7.768 -0.2092  2.4694 -0.1570
16063SOL    HW248768   8.593   1.741   7.781 -0.4201  0.6936  1.4208
16064SOL     OW48769   8.185   1.363   0.188 -0.3408 -0.4120  0.4605
16064SOL    HW148770   8.192   1.442   0.242 -0.5533 -0.9433  1.2785
16064SOL    HW248771   8.184   1.395   0.098 -0.3847  0.5129  0.7871
16065SOL     OW48772   3.735   6.779   7.090 -0.3637  0.6576 -0.5798
16065SOL    HW148773   3.693   6.699   7.058 -0.6997  0.4440  0.3468
16065SOL    HW248774   3.785   6.812   7.016  0.2864 -0.7490 -0.7899
16066SOL     OW48775   9.082   4.817   9.050  0.0039  0.2578  0.1904
16066SOL    HW148776   9.132   4.779   8.978  0.1240  1.0406 -0.1424
16066SOL    HW248777   9.093   4.755   9.122  1.8586  0.6360  0.2740
16067SOL     OW48778   7.241   6.834   9.455  0.6988  0.1939  0.4800
16067SOL    HW148779   7.219   6.796   9.539  1.8029 -0.4688  0.4892
16067SOL    HW248780   7.222   6.765   9.391 -0.3371  0.7672  0.1556
16068SOL     OW48781   6.694   9.250   6.066  0.3269 -0.2626  1.0004
16068SOL    HW148782   6.704   9.264   6.160 -0.3904  0.3088  1.0005
16068SOL    HW248783   6.694   9.338   6.028 -2.9452 -0.2276  0.8573
16069SOL     OW48784   1.212   0.744   8.740  0.5834 -0.1007  0.7531
16069SOL    HW148785   1.230   0.742   8.646  1.0457 -0.2094  0.8405
16069SOL    HW248786   1.117   0.755   8.747  0.7612  2.2809  0.2671
16070SOL     OW48787   0.188   2.428   6.507  0.0156  0.2616  0.5951
16070SOL    HW148788   0.281   2.452   6.505  0.1481 -0.2665  0.2218
16070SOL    HW248789   0.152   2.479   6.579  0.8489 -0.4535  1.5552
16071SOL     OW48790   8.458   3.242   5.244 -0.1160 -0.1280  0.0215
16071SOL    HW148791   8.406   3.241   5.324  1.1638  0.9679  0.9378
16071SOL    HW248792   8.480   3.335   5.232 -0.1004 -0.3110 -1.4800
16072SOL     OW48793   9.924   3.489   3.120  0.0731 -0.2655 -0.8895
16072SOL    HW148794   9.932   3.401   3.083 -0.1400  0.0080 -1.5992
16072SOL    HW248795   9.999   3.497   3.179  1.4116 -0.1171 -2.5163
16073SOL     OW48796   0.801   2.348   7.495  0.8233  0.0200  0.1640
16073SOL    HW148797   0.856   2.271   7.486  0.1099 -0.5600  0.6572
16073SOL    HW248798   0.725   2.318   7.545 -0.1280  0.7094 -0.8109
16074SOL     OW48799   4.086   0.994   4.488 -0.3281  0.5327  0.2777
16074SOL    HW148800   4.107   0.905   4.516 -2.0709 -0.2801 -0.8285
16074SOL    HW248801   4.166   1.044   4.503  1.3983 -1.6758 -0.9610
16075SOL     OW48802   5.724   0.529   7.581  0.1050  0.3783 -0.3019
16075SOL    HW148803   5.661   0.556   7.514  0.4533  0.5225 -0.5700
16075SOL    HW248804   5.808   0.529   7.537  0.4422  1.1764  0.3118
16076SOL     OW48805   6.697   1.446   0.303  0.0585  0.2860  0.5230
16076SOL    HW148806   6.705   1.470   0.210 -0.5192 -1.0204  0.1005
16076SOL    HW248807   6.712   1.527   0.351  2.5217  0.5948 -0.6215
16077SOL     OW48808   2.352   3.921   7.386  0.3156 -0.3767 -0.5641
16077SOL    HW148809   2.299   3.944   7.462  1.8104  0.4951  0.2547
16077SOL    HW248810   2.352   3.825   7.384  0.5466 -0.4170  0.7541
16078SOL     OW48811   4.349   4.949   4.700  0.0906  0.7586  0.5977
16078SOL    HW148812   4.320   4.888   4.767  0.1032 -0.5056 -0.4945
16078SOL    HW248813   4.320   4.909   4.618  1.5619  1.3823 -0.2705
16079SOL     OW48814   3.898   4.042   8.260  0.4340  0.1718  0.3759
16079SOL    HW148815   3.993   4.058   8.260  0.5888 -0.7164  0.6076
16079SOL    HW248816   3.880   4.009   8.348 -0.0018 -0.1970  0.1448
16080SOL     OW48817   7.023   6.721   7.742  0.1293  0.4094  0.3666
16080SOL    HW148818   7.057   6.767   7.666  0.4203 -0.2935  0.0609
16080SOL    HW248819   7.080   6.748   7.814  0.4042  0.3978  0.1558
16081SOL     OW48820   0.547   6.543   1.648  0.6207  0.0964 -0.1641
16081SOL    HW148821   0.542   6.495   1.565  0.5471  0.1880 -0.2122
16081SOL    HW248822   0.504   6.486   1.711  0.1291  0.2977 -0.3119
16082SOL     OW48823   9.509   6.817   1.038  0.2873  0.0131 -0.2075
16082SOL    HW148824   9.588   6.820   0.984  0.8593  0.2485  0.6180
16082SOL    HW248825   9.438   6.803   0.976  0.9240  0.2976 -1.0188
16083SOL     OW48826   5.156   7.808   7.132  0.5478  0.4490  0.1427
16083SOL    HW148827   5.239   7.845   7.164  1.3367 -0.7225 -0.5042
16083SOL    HW248828   5.122   7.760   7.207  0.1834  1.3430  0.5681
16084SOL     OW48829   4.080   9.037   5.600 -0.2791  0.1222 -0.2277
16084SOL    HW148830   4.142   8.990   5.545  0.0462 -0.3035  0.4869
16084SOL    HW248831   4.037   8.969   5.652 -0.0469  0.5678  0.5718
16085SOL     OW48832   8.163   0.506   2.711  0.2427  0.1147 -0.4755
16085SOL    HW148833   8.188   0.422   2.671 -0.4657 -0.7144  0.7431
16085SOL    HW248834   8.247   0.548   2.731  0.6125 -0.3773 -0.9472
16086SOL     OW48835   4.385   5.789   9.757 -0.3784 -0.7889  0.0543
16086SOL    HW148836   4.392   5.874   9.712  0.1358 -0.0047  1.5391
16086SOL    HW248837   4.458   5.738   9.722 -1.1487 -0.9091 -1.4181
16087SOL     OW48838   9.600   6.720   8.167  0.4244  0.0911 -0.6677
16087SOL    HW148839   9.687   6.742   8.132  1.5276 -1.4344  0.9485
16087SOL    HW248840   9.606   6.740   8.260 -1.2703  0.7413 -0.6663
16088SOL     OW48841   8.832   5.294   1.956 -0.1308  0.0387 -0.6476
16088SOL    HW148842   8.864   5.313   1.868  1.6025  0.1375 -0.0446
16088SOL    HW248843   8.872   5.210   1.978 -0.6289 -0.0313  0.0120
16089SOL     OW48844   8.491   4.645   9.518 -0.0998 -0.2915 -0.1167
16089SOL    HW148845   8.526   4.609   9.437  0.1437 -0.0818 -0.1068
16089SOL    HW248846   8.539   4.599   9.587 -1.4688 -1.6826 -0.0379
16090SOL     OW48847   3.783   8.080   0.284 -0.3757 -0.1939 -0.3704
16090SOL    HW148848   3.831   8.102   0.364  0.1719  2.2390 -1.2731
16090SOL    HW248849   3.841   8.107   0.213 -2.4604  1.6881 -1.5133
16091SOL     OW48850   8.144   3.400   2.517  0.2259  0.5272 -0.0436
16091SOL    HW148851   8.130   3.478   2.464  0.8332  0.7098  0.0580
16091SOL    HW248852   8.174   3.433   2.602  2.3230  0.1619 -0.5700
16092SOL     OW48853   4.254   6.673   2.031 -0.3334  0.5103  0.3663
16092SOL    HW148854   4.309   6.693   1.955  2.3444 -2.2575  1.3735
16092SOL    HW248855   4.213   6.589   2.011 -0.9300  0.5532  1.3235
16093SOL     OW48856   0.633   6.756   7.894  0.3909 -0.6190  1.0445
16093SOL    HW148857   0.636   6.783   7.802 -0.0438 -0.5464  1.0493
16093SOL    HW248858   0.543   6.723   7.906  0.8280 -1.8463  1.0956
16094SOL     OW48859   2.942   5.558   8.800  0.4991 -0.0677 -0.0643
16094SOL    HW148860   2.977   5.523   8.882 -0.9231 -0.1775  0.5079
16094SOL    HW248861   2.875   5.620   8.827  0.4483  0.3589 -1.1457
16095SOL     OW48862   9.721   1.300   9.049 -0.2907  0.1084 -0.3253
16095SOL    HW148863   9.744   1.334   9.136 -1.3045 -0.2676  0.1009
16095SOL    HW248864   9.725   1.377   8.992 -2.4169  0.9785  0.6015
16096SOL     OW48865   1.495   6.004   6.663  0.6135 -0.1866  0.1644
16096SOL    HW148866   1.416   6.016   6.610  0.8403  2.8112  0.3730
16096SOL    HW248867   1.462   5.976   6.748 -0.2066  0.5771  0.1127
16097SOL     OW48868   4.741   3.121   6.057  0.0798  0.4775 -0.4266
16097SOL    HW148869   4.747   3.190   6.123  1.0778 -0.7902  0.8538
16097SOL    HW248870   4.690   3.052   6.098 -0.5408  0.2570 -1.5362
16098SOL     OW48871   6.921   5.925   7.338  0.0918 -0.2417  0.2969
16098SOL    HW148872   6.885   5.841   7.311  1.7281 -1.4221  1.5191
16098SOL    HW248873   6.964   5.907   7.422 -0.6134  2.1251  1.2647
16099SOL     OW48874   0.891   6.047   5.641  0.7683 -0.2408 -0.5784
16099SOL    HW148875   0.952   6.016   5.708 -0.4881 -0.7315  0.3848
16099SOL    HW248876   0.909   5.993   5.564  0.9445 -0.9831 -0.0195
16100SOL     OW48877   3.968   8.879   4.279 -0.2798  0.4351 -0.6539
16100SOL    HW148878   4.027   8.909   4.210 -1.0352  1.1229 -1.0162
16100SOL    HW248879   3.927   8.959   4.313 -0.7104  0.0082 -0.1347
16101SOL     OW48880   9.226   7.237   1.333  0.0268  0.3250 -0.3806
16101SOL    HW148881   9.193   7.156   1.295  0.5755  0.2787 -0.7641
16101SOL    HW248882   9.274   7.280   1.262  2.8706 -0.7487  0.7260
16102SOL     OW48883   0.273   7.450   3.644  0.3949 -0.3996 -0.0160
16102SOL    HW148884   0.340   7.466   3.711 -1.0499 -3.7605  2.5328
16102SOL    HW248885   0.320   7.406   3.573  1.4286  0.4056  0.1374
16103SOL     OW48886   0.132   5.173   3.419 -0.1794  0.1388  0.5494
16103SOL    HW148887   0.160   5.207   3.334 -1.8140 -0.6141 -0.3443
16103SOL    HW248888   0.076   5.243   3.454 -2.2080 -0.8383 -0.5515
16104SOL     OW48889   2.921   7.077   9.750  0.0599 -0.3409 -0.1706
16104SOL    HW148890   2.985   7.120   9.693  0.2211  0.1733  0.3829
16104SOL    HW248891   2.944   7.108   9.838 -1.6315  0.7513 -0.0713
16105SOL     OW48892   0.282   8.236   7.910  0.1267 -0.0005 -1.0271
16105SOL    HW148893   0.324   8.163   7.865  0.3390 -0.4093 -0.2007
16105SOL    HW248894   0.293   8.311   7.852 -2.1131 -1.0689 -3.0003
16106SOL     OW48895   8.921   5.223   5.821  0.6325  0.6287 -0.2260
16106SOL    HW148896   8.877   5.215   5.906 -0.7790 -1.4318 -1.0635
16106SOL    HW248897   8.861   5.277   5.769 -0.7234 -1.6541 -1.1708
16107SOL     OW48898   4.818   1.909   7.830 -0.0998 -0.1537  0.1401
16107SOL    HW148899   4.822   1.877   7.920 -0.0636 -0.3107  0.0827
16107SOL    HW248900   4.725   1.905   7.808 -0.0182 -0.8426 -0.0916
16108SOL     OW48901   2.831   0.544   7.554  0.2553  0.1418  0.0396
16108SOL    HW148902   2.783   0.549   7.637  0.3281  0.3056  0.0733
16108SOL    HW248903   2.885   0.466   7.562 -1.0312 -0.8466 -0.5518
16109SOL     OW48904   9.786   4.302   0.755  0.3483  0.3551  0.2128
16109SOL    HW148905   9.825   4.267   0.835 -0.6875  1.8277  1.4172
16109SOL    HW248906   9.815   4.242   0.686  2.3263 -0.2394  1.4702
16110SOL     OW48907   5.716   2.757   0.243 -0.2610  0.3146 -0.6206
16110SOL    HW148908   5.665   2.679   0.219  0.8231 -1.4825  2.4033
16110SOL    HW248909   5.801   2.743   0.203  1.0707 -1.9536  2.6115
16111SOL     OW48910   7.227   5.457   3.965 -0.0576  0.2512  0.1236
16111SOL    HW148911   7.245   5.521   4.033 -0.1597 -0.4857  0.8563
16111SOL    HW248912   7.269   5.377   3.995  1.9212  0.4633 -1.7843
16112SOL     OW48913   9.738   3.934   8.689 -0.1175  0.3085 -0.5018
16112SOL    HW148914   9.690   3.992   8.748  0.1329  0.3506 -0.3363
16112SOL    HW248915   9.725   3.847   8.725  1.4711  0.4902  0.6609
16113SOL     OW48916   4.302   0.542   2.195  0.3336  0.0513  0.3432
16113SOL    HW148917   4.344   0.582   2.119  0.6581 -3.5624 -1.6105
16113SOL    HW248918   4.371   0.535   2.260  1.0677 -0.0609 -0.4290
16114SOL     OW48919   3.230   0.848   4.591 -0.3679  0.6410  0.3353
16114SOL    HW148920   3.217   0.814   4.502  0.6374  0.8626  0.0848
16114SOL    HW248921   3.190   0.782   4.648  1.7696 -1.2174 -0.1198
16115SOL     OW48922   9.230   2.944   4.865 -0.0561 -0.1478  0.5110
16115SOL    HW148923   9.218   2.863   4.914 -3.1791  0.2150  0.5130
16115SOL    HW248924   9.221   2.917   4.773  0.8795 -0.0642  0.3820
16116SOL     OW48925   0.865   7.844   3.260 -0.3956 -0.1398  0.4135
16116SOL    HW148926   0.771   7.828   3.251 -0.4126  0.8270 -1.6175
16116SOL    HW248927   0.900   7.830   3.172  1.4665 -0.9462  1.2341
16117SOL     OW48928   0.664   7.375   3.362  0.0049 -0.1899  0.3898
16117SOL    HW148929   0.758   7.367   3.345 -0.3250 -0.6635 -1.4273
16117SOL    HW248930   0.659   7.414   3.449  1.8960  0.6643  0.1749
16118SOL     OW48931   2.791   1.158   1.955  0.3794 -0.3017  0.4233
16118SOL    HW148932   2.728   1.224   1.925  0.5240 -0.7263 -0.8708
16118SOL    HW248933   2.802   1.177   2.048  0.4052  1.5028  0.0982
16119SOL     OW48934   1.597   5.572   7.208  0.1003  0.5548 -0.0416
16119SOL    HW148935   1.621   5.521   7.131 -0.3331  1.0987 -0.5461
16119SOL    HW248936   1.679   5.581   7.257  0.2363 -0.4120 -0.0532
16120SOL     OW48937   7.531   9.378   4.252  0.7039 -0.3037 -0.0625
16120SOL    HW148938   7.580   9.460   4.240 -0.6053  0.5203  0.0428
16120SOL    HW248939   7.597   9.309   4.241  2.0188  0.7694  0.7345
16121SOL     OW48940   3.069   8.472   6.338  0.1799 -0.1896  0.1580
16121SOL    HW148941   2.999   8.468   6.273 -0.0552  2.6030  0.1051
16121SOL    HW248942   3.147   8.496   6.288  0.6263 -0.7993  0.5523
16122SOL     OW48943   6.365   9.527   7.762 -0.6275 -0.4310  0.0477
16122SOL    HW148944   6.327   9.461   7.704  0.1438  0.2939 -1.3261
16122SOL    HW248945   6.289   9.579   7.791 -1.3694 -2.3643  1.8535
16123SOL     OW48946   3.523   0.382   0.041 -0.3589  0.5264 -0.1157
16123SOL    HW148947   3.599   0.349  -0.007 -0.9425  2.2889 -2.4330
16123SOL    HW248948   3.548   0.376   0.133  1.3152 -1.8486 -0.6416
16124SOL     OW48949   7.496   3.832   7.627 -0.0405 -0.4716 -0.1262
16124SOL    HW148950   7.478   3.919   7.662  0.0367 -0.7843  0.7289
16124SOL    HW248951   7.484   3.840   7.533  1.0235  0.7345 -0.1868
16125SOL     OW48952   3.093   7.415   5.084 -0.0445  0.2206  0.6167
16125SOL    HW148953   3.029   7.476   5.048 -0.2710 -0.1641  0.3602
16125SOL    HW248954   3.178   7.454   5.062 -0.1631 -0.1848 -0.6891
16126SOL     OW48955   2.973   0.857   9.098 -0.0747  0.0800 -0.3080
16126SOL    HW148956   2.970   0.779   9.042 -1.7391 -0.1028 -0.0303
16126SOL    HW248957   3.039   0.913   9.058 -0.9916 -0.1751 -2.2908
16127SOL     OW48958   0.187   2.118   5.321  0.3231  0.6885  0.5320
16127SOL    HW148959   0.165   2.190   5.380  0.9883 -0.7697  2.6981
16127SOL    HW248960   0.188   2.040   5.378  2.2348 -0.6347 -1.1647
16128SOL     OW48961   7.550   7.070   2.803 -0.6430  0.1937  0.1858
16128SOL    HW148962   7.460   7.043   2.815  0.1201 -3.1342 -0.6714
16128SOL    HW248963   7.599   7.026   2.872  0.4501  1.5727  0.3565
16129SOL     OW48964   5.122   5.602   2.826  0.1525 -0.3093 -0.3305
16129SOL    HW148965   5.142   5.537   2.758  1.7367  2.2361 -2.5426
16129SOL    HW248966   5.202   5.607   2.878  0.9177  1.2373 -1.5309
16130SOL     OW48967   6.964   6.955   4.388 -0.3372 -0.5945 -0.1613
16130SOL    HW148968   6.924   6.944   4.301 -0.3417 -0.4887 -0.1730
16130SOL    HW248969   7.058   6.951   4.372 -0.2802  0.8894 -0.3914
16131SOL     OW48970   8.041   7.845   2.374  0.2750 -0.3650  0.2545
16131SOL    HW148971   7.980   7.882   2.438  1.8993  0.8866  1.1602
16131SOL    HW248972   8.045   7.752   2.396 -1.8405 -0.6517 -0.3259
16132SOL     OW48973   8.315   7.380   2.909  0.0454 -0.3390 -0.2619
16132SOL    HW148974   8.355   7.365   2.994  0.9741  2.0276 -0.1844
16132SOL    HW248975   8.360   7.319   2.850 -0.9581 -2.3575  0.9499
16133SOL     OW48976   6.117   4.295   9.933 -0.3238  0.1160 -0.1129
16133SOL    HW148977   6.170   4.335  10.001  2.0000 -0.7389 -1.3204
16133SOL    HW248978   6.039   4.263   9.979  0.6040  0.6273  1.8945
16134SOL     OW48979   4.045   4.798   7.497 -0.2907  0.7262  0.0671
16134SOL    HW148980   4.089   4.746   7.429  1.1786  2.2176 -0.1860
16134SOL    HW248981   4.048   4.743   7.575 -1.0035 -0.5638 -0.7888
16135SOL     OW48982   9.890   7.650   9.365  0.5273  0.3896  0.1405
16135SOL    HW148983   9.800   7.642   9.398 -0.1293  0.1584 -1.6228
16135SOL    HW248984   9.942   7.668   9.443 -0.9946  0.1623  1.2561
16136SOL     OW48985   6.439   0.923   9.800 -0.0502  0.3454  0.7083
16136SOL    HW148986   6.520   0.939   9.848  2.3202 -1.7220 -2.2192
16136SOL    HW248987   6.466   0.914   9.709 -3.7345  0.3241 -0.5737
16137SOL     OW48988   7.260   0.833   9.997  0.0025  0.1786 -0.1264
16137SOL    HW148989   7.273   0.867   9.909  3.1909  1.2303  0.6030
16137SOL    HW248990   7.219   0.747   9.985 -1.4137  1.0996 -2.4545
16138SOL     OW48991   6.183   7.879   1.195  0.6830 -0.2872  0.1381
16138SOL    HW148992   6.272   7.877   1.160  0.1104  0.0364 -1.3888
16138SOL    HW248993   6.129   7.843   1.125 -0.3446 -0.8529  1.2037
16139SOL     OW48994   6.110   4.861   3.000 -0.5386  0.4766  0.3999
16139SOL    HW148995   6.140   4.941   3.042  1.4367  0.6574 -1.2544
16139SOL    HW248996   6.186   4.827   2.953 -1.7950 -1.4268 -0.4072
16140SOL     OW48997   3.045   1.174   9.321 -0.8237 -0.4708 -0.3625
16140SOL    HW148998   3.127   1.207   9.286 -0.6882 -0.8096 -0.3591
16140SOL    HW248999   3.006   1.250   9.365  0.1583 -0.6522  0.8924
16141SOL     OW49000   1.198   4.242   0.948  0.0976  0.4175 -0.3218
16141SOL    HW149001   1.242   4.159   0.966  2.1170  1.9138  2.4179
16141SOL    HW249002   1.107   4.226   0.974  0.3695 -0.9974 -0.1264
16142SOL     OW49003   0.364   6.235   7.872 -0.3859 -0.4206  0.4796
16142SOL    HW149004   0.405   6.252   7.956  1.7928 -1.3790 -0.3033
16142SOL    HW249005   0.434   6.199   7.818 -1.6179  0.4184 -1.8470
16143SOL     OW49006   4.339   0.455   6.907 -0.1378  0.1522 -0.2396
16143SOL    HW149007   4.271   0.431   6.843 -3.8098  2.2526  2.4692
16143SOL    HW249008   4.361   0.545   6.886  0.9740 -0.1318 -0.3442
16144SOL     OW49009   1.279   7.720   9.011 -0.5354  0.1513 -0.5155
16144SOL    HW149010   1.363   7.723   8.965 -0.6044  1.4806 -0.5728
16144SOL    HW249011   1.268   7.807   9.049 -0.5128 -0.8662  2.0137
16145SOL     OW49012   6.405   2.409   9.873 -0.1947 -0.1406 -0.7387
16145SOL    HW149013   6.386   2.442   9.786 -1.9057 -0.5810 -0.5811
16145SOL    HW249014   6.400   2.486   9.930 -0.1552 -0.0343 -0.8777
16146SOL     OW49015   7.289   5.432   7.939 -0.5198  0.5545 -0.2396
16146SOL    HW149016   7.225   5.492   7.977 -1.4827 -1.2018  1.0213
16146SOL    HW249017   7.237   5.365   7.896  0.3444 -1.6680  1.9654
16147SOL     OW49018   1.351   7.060   2.916 -0.0798 -0.5230  0.5427
16147SOL    HW149019   1.315   7.146   2.893  0.9103  0.5133  2.5791
16147SOL    HW249020   1.324   7.003   2.844 -1.4147  1.3068 -0.5077
16148SOL     OW49021   4.639   5.415   6.294  0.4575 -0.6223 -0.4348
16148SOL    HW149022   4.691   5.446   6.220  2.3271 -0.7786  0.7300
16148SOL    HW249023   4.678   5.459   6.370 -2.0109  0.2772  0.3996
16149SOL     OW49024   6.020   5.605   8.522  0.4526 -0.0348 -0.1734
16149SOL    HW149025   6.095   5.662   8.507 -0.1317  0.0755 -3.5618
16149SOL    HW249026   5.949   5.664   8.547  0.5221  0.4286 -1.0232
16150SOL     OW49027   1.982   3.334   5.275  0.4004  0.1039  0.0037
16150SOL    HW149028   1.965   3.395   5.203  1.7148  0.7623  0.2250
16150SOL    HW249029   2.067   3.294   5.253 -0.0833 -1.0966  0.2453
16151SOL     OW49030   0.166   9.856   5.048  0.2253 -0.3681 -0.4254
16151SOL    HW149031   0.217   9.805   5.111  1.4532 -0.7586 -1.6702
16151SOL    HW249032   0.218   9.936   5.035  0.9112 -1.0487 -2.1945
16152SOL     OW49033   3.285   3.117   4.783 -0.5761 -0.6844  0.1797
16152SOL    HW149034   3.207   3.172   4.790 -0.2954 -0.2914  0.2567
16152SOL    HW249035   3.348   3.171   4.735 -0.1848 -0.8134  0.5434
16153SOL     OW49036   8.556   7.759   4.691  0.0647 -0.0188 -0.1043
16153SOL    HW149037   8.521   7.678   4.728 -0.5017 -0.4551 -1.5270
16153SOL    HW249038   8.584   7.735   4.603  0.9223  1.0974 -0.1628
16154SOL     OW49039   7.861   0.812   6.777 -0.4677 -0.3911 -0.2998
16154SOL    HW149040   7.931   0.824   6.712 -1.5874  0.4374 -1.3934
16154SOL    HW249041   7.795   0.760   6.731 -0.8942 -0.5563  0.4876
16155SOL     OW49042   4.127   3.870   7.533  0.3631  0.1632  0.5285
16155SOL    HW149043   4.037   3.893   7.556  0.2482 -0.1221  0.3646
16155SOL    HW249044   4.163   3.832   7.613  0.5997  1.0409  0.8473
16156SOL     OW49045   6.960   7.664   3.275  0.0677  0.4090  0.0415
16156SOL    HW149046   6.961   7.570   3.261  0.4684  0.3570  0.4190
16156SOL    HW249047   6.867   7.685   3.285  0.0619 -0.2452  1.8335
16157SOL     OW49048   1.066   9.763   9.537  0.9654 -0.2611 -0.3982
16157SOL    HW149049   0.984   9.811   9.521  1.4735  0.6071 -0.4738
16157SOL    HW249050   1.135   9.822   9.506  1.6250 -0.9914 -0.3630
16158SOL     OW49051   9.447   2.635   4.850  0.5308  0.3526 -0.1461
16158SOL    HW149052   9.502   2.692   4.797 -0.5150  0.5126 -1.1118
16158SOL    HW249053   9.476   2.546   4.828  2.7130  0.4614  1.9737
16159SOL     OW49054   4.075   9.088   2.369 -0.1736 -0.5805 -0.5238
16159SOL    HW149055   4.076   8.998   2.401  0.3193 -0.2952  0.2668
16159SOL    HW249056   3.985   9.118   2.385 -0.7786 -1.3828 -2.1240
16160SOL     OW49057   7.293   0.479   7.102 -0.2399 -0.1195 -0.0477
16160SOL    HW149058   7.372   0.426   7.107 -0.5103 -0.6781 -1.3211
16160SOL    HW249059   7.294   0.531   7.183  0.3176 -1.6402  0.9784
16161SOL     OW49060   8.711   0.859   3.342 -0.0999 -0.0130  0.2654
16161SOL    HW149061   8.656   0.840   3.418 -0.0715 -1.0246  0.0410
16161SOL    HW249062   8.658   0.833   3.266  0.0869  0.4749 -0.0415
16162SOL     OW49063   2.536   7.402   4.229  0.0948  0.3539 -0.1437
16162SOL    HW149064   2.455   7.403   4.179  0.5115  0.1771 -0.8272
16162SOL    HW249065   2.513   7.355   4.310 -0.0237 -1.3623 -1.1352
16163SOL     OW49066   6.269   8.148   2.139  0.0488  0.3400  0.5261
16163SOL    HW149067   6.239   8.131   2.228 -4.1641 -0.9445 -0.8790
16163SOL    HW249068   6.264   8.063   2.095 -1.8382  1.4954 -1.7906
16164SOL     OW49069   1.533   7.245   3.132  0.0958  0.4498 -0.7761
16164SOL    HW149070   1.557   7.158   3.101  2.0070  1.4151 -2.2238
16164SOL    HW249071   1.533   7.300   3.054 -1.6619  1.6728  0.0065
16165SOL     OW49072   2.543   8.845   9.769  0.1285 -0.4310 -0.0332
16165SOL    HW149073   2.514   8.872   9.857  0.7073  0.5650 -0.1352
16165SOL    HW249074   2.626   8.891   9.756  0.2895 -0.9534 -0.9123
16166SOL     OW49075   1.675   9.766   2.658  0.4248 -0.0188 -0.5869
16166SOL    HW149076   1.622   9.787   2.735  2.3762  0.1681  0.7570
16166SOL    HW249077   1.678   9.847   2.608  0.1648  0.2139 -0.2290
16167SOL     OW49078   1.797   0.308   5.140  0.0429  0.1531  0.5175
16167SOL    HW149079   1.833   0.357   5.066  0.6992 -0.6995  0.2570
16167SOL    HW249080   1.870   0.300   5.202 -0.4158  0.5935  1.1289
16168SOL     OW49081   9.583   8.958   2.051  0.5568 -0.2935  0.1960
16168SOL    HW149082   9.571   8.917   2.136  1.8891  1.6356  1.3800
16168SOL    HW249083   9.657   8.911   2.012  1.4517  0.2802  1.1329
16169SOL     OW49084   2.957   1.102   6.263 -0.2026  0.2081  0.5057
16169SOL    HW149085   3.024   1.076   6.325  1.0983 -2.6625 -1.8254
16169SOL    HW249086   2.992   1.180   6.220  0.8523 -0.2234  0.5498
16170SOL     OW49087   0.760   4.761   2.664 -0.4662 -0.2596 -0.1902
16170SOL    HW149088   0.703   4.817   2.610 -0.5745  0.6906  0.8604
16170SOL    HW249089   0.713   4.754   2.748  0.0514 -1.0778  0.0383
16171SOL     OW49090   2.059   4.319   1.039  0.5780  0.0641  0.8011
16171SOL    HW149091   1.986   4.271   1.076  0.8072 -2.2185 -1.4392
16171SOL    HW249092   2.137   4.269   1.064  0.8447 -0.7053 -1.3111
16172SOL     OW49093   1.433   4.885   6.646 -0.4417  0.4482 -0.6035
16172SOL    HW149094   1.388   4.951   6.593  0.1276  1.7491  0.4694
16172SOL    HW249095   1.480   4.935   6.712  1.1609 -0.9650 -0.5939
16173SOL     OW49096   6.685   3.688   9.251 -0.0917  0.6070 -0.1917
16173SOL    HW149097   6.691   3.731   9.166  0.6461  0.9069  0.0064
16173SOL    HW249098   6.775   3.661   9.271 -0.5250 -1.0197 -0.3027
16174SOL     OW49099   1.005   5.605   9.801 -0.3125 -0.0574  0.1068
16174SOL    HW149100   1.101   5.608   9.804 -0.0173 -3.6831 -0.6963
16174SOL    HW249101   0.983   5.620   9.709 -0.7274  2.2573  0.5214
16175SOL     OW49102   6.138   5.899   8.061  0.2633 -0.3795  0.2902
16175SOL    HW149103   6.068   5.904   8.127  0.3045 -0.7186  0.3638
16175SOL    HW249104   6.116   5.967   7.997 -0.6971 -1.1467 -0.2243
16176SOL     OW49105   4.389   2.682   4.313 -0.2501 -0.3923 -0.5007
16176SOL    HW149106   4.412   2.668   4.404  1.5461 -0.7236 -0.9554
16176SOL    HW249107   4.342   2.766   4.312  0.2423 -0.0940  0.6497
16177SOL     OW49108   2.336   7.737   4.155  0.0591  0.2923 -0.5488
16177SOL    HW149109   2.292   7.771   4.233 -0.0509 -2.7766  0.8805
16177SOL    HW249110   2.423   7.710   4.187 -0.6892 -2.8495 -0.8727
16178SOL     OW49111   5.077   8.845   0.564 -0.3034  0.4759  0.5396
16178SOL    HW149112   5.078   8.849   0.468  1.2378  1.7885  0.5735
16178SOL    HW249113   5.018   8.773   0.584  1.3513 -1.5919 -1.4630
16179SOL     OW49114   1.951   9.537   0.771 -0.1374 -0.3768 -0.2075
16179SOL    HW149115   1.934   9.578   0.686  0.9225 -0.8150 -0.6556
16179SOL    HW249116   1.873   9.557   0.824 -0.0874  1.3269 -0.7200
16180SOL     OW49117   8.196   6.700   1.478 -0.2328 -0.4042 -0.5783
16180SOL    HW149118   8.243   6.673   1.399  2.6838 -1.8819  1.4849
16180SOL    HW249119   8.118   6.644   1.479  0.7047 -1.8019 -1.4208
16181SOL     OW49120   8.827   5.951   1.191  0.4375 -0.0012  0.2669
16181SOL    HW149121   8.921   5.956   1.175  1.1931 -0.5536  3.8987
16181SOL    HW249122   8.800   5.868   1.151  1.7650 -0.5420  0.4620
16182SOL     OW49123   7.557   3.876   4.504 -0.4208 -0.6372 -0.2670
16182SOL    HW149124   7.477   3.856   4.455 -0.6846  0.6335 -0.3812
16182SOL    HW249125   7.614   3.800   4.489 -0.1311  0.0305 -3.3276
16183SOL     OW49126   7.005   6.159   8.235 -0.4905  0.4291 -0.1852
16183SOL    HW149127   6.914   6.151   8.263 -0.6708  2.2023 -0.1336
16183SOL    HW249128   7.056   6.147   8.315 -0.5861 -1.5473 -0.3750
16184SOL     OW49129   2.184   9.746   1.391 -0.0919  0.1841 -0.0718
16184SOL    HW149130   2.108   9.696   1.363 -0.3148 -0.4294  1.5657
16184SOL    HW249131   2.177   9.828   1.343 -2.2662  0.5000  0.6800
16185SOL     OW49132   5.933   3.156   0.391  0.4968 -0.7167  0.2971
16185SOL    HW149133   5.841   3.134   0.379  0.2669 -0.7008  1.8344
16185SOL    HW249134   5.979   3.106   0.324 -0.7653  0.6783 -1.7127
16186SOL     OW49135   8.200   6.475   3.223 -0.0119 -0.0571  0.1445
16186SOL    HW149136   8.203   6.498   3.315 -0.1421 -0.5050  0.2651
16186SOL    HW249137   8.215   6.380   3.221 -3.0186 -0.6340 -0.0265
16187SOL     OW49138   4.719   4.153   4.415 -1.2771  0.0768 -0.1591
16187SOL    HW149139   4.787   4.086   4.427 -1.1569  0.5814  2.4313
16187SOL    HW249140   4.695   4.145   4.322 -0.2140 -2.5030 -0.3121
16188SOL     OW49141   4.809   0.224   9.578 -0.4144  0.5069 -0.2529
16188SOL    HW149142   4.871   0.240   9.506 -0.5157 -1.9230 -0.9742
16188SOL    HW249143   4.752   0.301   9.579 -0.1798  0.7703 -2.5480
16189SOL     OW49144   7.005   9.778   9.172 -0.4221 -0.0464  0.5396
16189SOL    HW149145   6.961   9.759   9.255 -1.7133 -1.4317 -0.3910
16189SOL    HW249146   7.054   9.698   9.152  0.9519  0.7538  0.5657
16190SOL     OW49147   8.671   1.635   9.078 -0.2624  0.1643 -0.7321
16190SOL    HW149148   8.634   1.667   9.160  1.0267  2.2897 -0.9004
16190SOL    HW249149   8.598   1.635   9.016 -0.4575  2.5450 -0.6022
16191SOL     OW49150   8.184   2.022   9.505  0.2923  0.0002  0.0561
16191SOL    HW149151   8.157   2.086   9.572 -0.8630  1.1977 -1.4944
16191SOL    HW249152   8.165   1.937   9.545  0.7950  0.6127  1.7181
16192SOL     OW49153   8.999   2.902   1.203  0.0399  0.5064 -0.3243
16192SOL    HW149154   9.028   2.834   1.142 -0.2249  0.9165 -0.9143
16192SOL    HW249155   8.926   2.861   1.251  0.7770 -0.1008  0.3056
16193SOL     OW49156   9.503   0.937   5.668  0.0113 -0.3512  0.4179
16193SOL    HW149157   9.531   0.978   5.587 -1.8324 -1.0711 -0.6387
16193SOL    HW249158   9.581   0.936   5.723  1.4171 -0.2751 -1.5072
16194SOL     OW49159   6.163   0.434   0.949 -0.1306 -0.4036  0.1377
16194SOL    HW149160   6.197   0.523   0.953 -0.4847 -0.0928 -2.1237
16194SOL    HW249161   6.225   0.382   1.000  1.5581  0.7574 -0.6273
16195SOL     OW49162   7.938   6.678   0.663 -0.3478  0.0736 -0.1757
16195SOL    HW149163   7.940   6.586   0.634  0.9348 -0.5284  1.6365
16195SOL    HW249164   8.023   6.713   0.638 -0.5530  0.5538 -0.2040
16196SOL     OW49165   3.953   8.672   4.011  0.0800 -0.7191 -0.3634
16196SOL    HW149166   3.986   8.761   4.025 -2.7539  0.3363  0.3009
16196SOL    HW249167   3.993   8.620   4.081  3.1055 -0.4651 -1.7352
16197SOL     OW49168   2.211   5.919   5.602  0.0781 -0.2944 -0.4453
16197SOL    HW149169   2.226   5.885   5.690  1.6904 -0.6976 -0.8455
16197SOL    HW249170   2.216   6.014   5.612 -2.0350 -0.2182  0.2627
16198SOL     OW49171   3.968   9.667   2.891  0.2725 -0.0830  0.0449
16198SOL    HW149172   3.985   9.730   2.821  0.0577  1.1614  1.0702
16198SOL    HW249173   4.049   9.615   2.896  0.1105 -0.5261 -1.4236
16199SOL     OW49174   7.756   7.120   0.248  0.2601  0.4657 -0.1573
16199SOL    HW149175   7.813   7.163   0.185  0.3197  0.5047 -0.0771
16199SOL    HW249176   7.771   7.027   0.234  0.5211  0.4795  0.0251
16200SOL     OW49177   5.348   5.750   0.058 -0.2640 -0.4755 -0.3758
16200SOL    HW149178   5.310   5.750   0.146 -1.5830  0.0249 -0.9249
16200SOL    HW249179   5.278   5.718   0.002  1.0660 -2.3830 -1.0617
16201SOL     OW49180   6.425   0.637   7.453 -0.4193  0.2071  0.5314
16201SOL    HW149181   6.504   0.667   7.409 -0.3564 -0.3193  0.2704
16201SOL    HW249182   6.392   0.713   7.500  0.1078  0.4912  0.4386
16202SOL     OW49183   2.553   7.918   8.212 -0.1185  0.5087  0.5379
16202SOL    HW149184   2.617   7.859   8.171  1.2569  1.7894  0.7659
16202SOL    HW249185   2.511   7.865   8.279  0.2280 -0.5427 -0.0549
16203SOL     OW49186   9.071   3.151   0.011  0.0992  0.2172  0.2346
16203SOL    HW149187   9.096   3.222   0.071  0.5951  1.3930 -1.3090
16203SOL    HW249188   8.996   3.110   0.054 -1.9702  3.3681  0.0086
16204SOL     OW49189   2.346   3.396   9.619  0.5533 -0.1124  0.8828
16204SOL    HW149190   2.323   3.364   9.706 -0.1848  0.3256  0.8536
16204SOL    HW249191   2.414   3.462   9.634 -0.3338  0.7491  1.2357
16205SOL     OW49192   8.071   3.237   3.308 -0.2431 -0.6934  0.0148
16205SOL    HW149193   8.155   3.208   3.273 -0.0214  1.7158 -1.7306
16205SOL    HW249194   8.025   3.274   3.232 -1.2013  1.6599  1.6042
16206SOL     OW49195   1.192   6.661   3.793  0.1738  0.0221 -0.2931
16206SOL    HW149196   1.110   6.704   3.820  0.2208  1.3540 -2.0675
16206SOL    HW249197   1.164   6.591   3.735  0.2607  0.3567 -0.7469
16207SOL     OW49198   8.709   3.474   9.168 -0.1370  0.2835  0.1701
16207SOL    HW149199   8.696   3.392   9.120 -0.7471 -0.9481  2.3379
16207SOL    HW249200   8.796   3.466   9.207 -0.5143  0.2959  1.0384
16208SOL     OW49201   8.013   5.460   9.133  0.3436  0.8750  0.0487
16208SOL    HW149202   8.074   5.391   9.106 -0.8403 -0.0427 -0.4051
16208SOL    HW249203   7.994   5.441   9.225  1.2389  1.5639  0.3865
16209SOL     OW49204  -0.001   7.423   3.656  0.2857  0.2475  0.6814
16209SOL    HW149205  -0.005   7.457   3.745  1.1103  2.8910 -0.2166
16209SOL    HW249206   0.090   7.436   3.630  0.0822 -0.6045 -0.5327
16210SOL     OW49207   1.955   9.047   7.211  0.2079 -0.6984  0.1587
16210SOL    HW149208   1.947   9.101   7.132  0.8533 -1.2340 -0.2780
16210SOL    HW249209   1.903   9.094   7.276 -1.0346 -0.6793 -0.7971
16211SOL     OW49210   3.593   7.336   3.741 -0.1269  0.1455  0.2879
16211SOL    HW149211   3.600   7.241   3.754 -0.7453 -0.2121 -1.6975
16211SOL    HW249212   3.684   7.366   3.736  0.1865  0.1855  3.7753
16212SOL     OW49213   1.555   9.455   5.809  0.2023 -0.3402 -0.4421
16212SOL    HW149214   1.544   9.370   5.767 -0.7047 -0.1541 -0.5936
16212SOL    HW249215   1.615   9.438   5.882 -0.0840 -1.1327 -0.3876
16213SOL     OW49216   9.832   4.320   3.577  0.8566 -0.2921 -0.0983
16213SOL    HW149217   9.805   4.410   3.596 -1.6546 -1.0014 -0.0405
16213SOL    HW249218   9.830   4.276   3.662 -0.7633 -1.0767 -0.5143
16214SOL     OW49219   5.367   1.313   0.971 -0.0426  0.2214 -0.1289
16214SOL    HW149220   5.452   1.319   0.928  0.0254  2.0959  0.2143
16214SOL    HW249221   5.367   1.226   1.011  1.2758 -0.2066 -0.9978
16215SOL     OW49222   1.909   3.804   1.026 -0.4173 -0.0963  0.6444
16215SOL    HW149223   1.930   3.869   0.960  0.6202  1.7028  2.6021
16215SOL    HW249224   1.982   3.808   1.088 -2.5790  0.3972  3.3683
16216SOL     OW49225   9.973   4.072   1.425  0.3724 -0.2664  0.4471
16216SOL    HW149226   9.909   4.067   1.496  0.9817 -1.2181  0.9676
16216SOL    HW249227  10.019   3.988   1.429  2.5249  0.8693  0.9272
16217SOL     OW49228   2.139   8.354   7.219 -0.1025  0.2101 -0.2258
16217SOL    HW149229   2.106   8.374   7.307  2.5643  1.2821  0.6293
16217SOL    HW249230   2.133   8.259   7.212 -0.9754  0.1676  0.8508
16218SOL     OW49231   1.304   9.141   5.753  0.4220 -0.1261  0.6045
16218SOL    HW149232   1.391   9.142   5.794 -0.4425  0.4154  2.5058
16218SOL    HW249233   1.287   9.232   5.731  0.7901 -0.3844 -0.8453
16219SOL     OW49234   4.009   2.333   1.744  0.6734 -0.0161 -0.3604
16219SOL    HW149235   3.960   2.415   1.728 -0.3904 -0.6476 -0.4537
16219SOL    HW249236   4.040   2.306   1.657 -1.5978 -1.2872 -0.8558
16220SOL     OW49237   6.646   8.579   1.126 -0.1915  0.5559  0.3274
16220SOL    HW149238   6.648   8.507   1.063  2.3603  0.9110 -0.1082
16220SOL    HW249239   6.600   8.650   1.082  2.8212  1.3247 -1.8810
16221SOL     OW49240   5.169   9.246   5.216 -0.2186  0.2631 -0.1006
16221SOL    HW149241   5.153   9.340   5.218 -0.1244  0.2843 -0.2686
16221SOL    HW249242   5.212   9.231   5.131 -0.4526  0.0341 -0.1791
16222SOL     OW49243   1.251   1.106   3.214  0.3751  0.0688  0.0142
16222SOL    HW149244   1.166   1.133   3.249  1.0831  2.2236  0.1894
16222SOL    HW249245   1.269   1.023   3.258 -0.6575  0.6492  1.6273
16223SOL     OW49246   1.133   3.966   8.390  0.2827 -0.1398 -0.2773
16223SOL    HW149247   1.084   3.890   8.422  1.4508 -0.9149 -0.2859
16223SOL    HW249248   1.137   3.954   8.295 -0.8928  0.7824 -0.4695
16224SOL     OW49249   2.364   3.535   2.809  0.0315 -0.1771  0.2044
16224SOL    HW149250   2.433   3.602   2.813 -1.1152  1.1079 -0.6965
16224SOL    HW249251   2.306   3.565   2.739 -0.4711 -2.1906 -0.2911
16225SOL     OW49252   6.597   0.633   5.344 -0.3773 -0.1414 -0.2104
16225SOL    HW149253   6.520   0.576   5.348 -1.3361  1.1889  1.5341
16225SOL    HW249254   6.606   0.655   5.252 -2.3108 -0.0510 -0.4026
16226SOL     OW49255   7.381   9.406   4.786  0.2699  0.6701 -0.0316
16226SOL    HW149256   7.433   9.343   4.735 -0.0487 -0.8638  1.4631
16226SOL    HW249257   7.418   9.402   4.874 -1.4400  0.6060  0.7283
16227SOL     OW49258   9.252   5.144   5.070 -0.7741  0.4466 -0.1162
16227SOL    HW149259   9.317   5.193   5.019  0.5263 -0.5081  0.5805
16227SOL    HW249260   9.259   5.181   5.158 -1.4867  0.6088 -0.1212
16228SOL     OW49261   6.649   9.896   3.240 -0.6356 -0.0324 -0.2054
16228SOL    HW149262   6.738   9.893   3.274 -0.5066  2.2876 -0.1559
16228SOL    HW249263   6.625   9.805   3.224  2.3451 -0.6479 -1.7989
16229SOL     OW49264   3.023   3.600   0.588  0.6355 -0.3374 -0.1512
16229SOL    HW149265   2.950   3.549   0.624 -1.0819  1.3071 -1.1124
16229SOL    HW249266   3.008   3.599   0.493  1.5785  0.4712 -0.3238
16230SOL     OW49267   7.837   0.403   2.538  0.6687 -0.6874  0.1281
16230SOL    HW149268   7.769   0.444   2.591  0.5737  0.5371 -0.9106
16230SOL    HW249269   7.901   0.473   2.522  1.1068 -1.2507 -0.6966
16231SOL     OW49270   1.013   8.854   8.368 -0.3248 -0.0807  0.6945
16231SOL    HW149271   0.956   8.850   8.444 -0.0276 -1.5065  0.8656
16231SOL    HW249272   1.027   8.763   8.344  0.8687  0.2967 -0.1073
16232SOL     OW49273   1.700   4.776   6.008 -0.3204  0.5032 -0.2029
16232SOL    HW149274   1.766   4.813   5.949  1.1118 -0.2872  0.8368
16232SOL    HW249275   1.654   4.710   5.955 -1.3018  2.0480 -1.3563
16233SOL     OW49276   3.296   5.501   8.099 -0.5324 -0.1426  1.1401
16233SOL    HW149277   3.294   5.410   8.070  0.7270 -0.4127  1.8165
16233SOL    HW249278   3.306   5.496   8.194  1.1414  0.6496  1.0511
16234SOL     OW49279   9.709   4.784   4.697 -0.4254  0.0918 -0.1444
16234SOL    HW149280   9.652   4.763   4.623 -2.4213  0.8432  1.0845
16234SOL    HW249281   9.754   4.864   4.671  0.2377 -0.6140 -1.2152
16235SOL     OW49282   7.618   1.006   7.676 -0.9510  0.8249 -0.4261
16235SOL    HW149283   7.682   1.024   7.607 -0.7781  2.1051  0.0421
16235SOL    HW249284   7.670   0.976   7.751 -1.2658 -2.4339 -1.3528
16236SOL     OW49285   9.046   3.363   2.313  0.5762 -0.0584 -0.1753
16236SOL    HW149286   9.095   3.445   2.321  1.8438 -0.8410  0.4722
16236SOL    HW249287   9.037   3.331   2.403 -1.6179  0.2932 -0.2069
16237SOL     OW49288   6.132   0.104   9.693 -0.2402  0.1945  0.2563
16237SOL    HW149289   6.179   0.021   9.700  1.1804  1.0111  0.8783
16237SOL    HW249290   6.061   0.086   9.631 -0.1740 -1.5591  0.6346
16238SOL     OW49291   9.412   0.976   0.996 -0.3912  0.2680  0.2494
16238SOL    HW149292   9.392   0.882   0.995 -2.6807  0.6814  1.2383
16238SOL    HW249293   9.474   0.987   1.068 -0.0597 -0.4736  0.0876
16239SOL     OW49294   3.106   9.271   6.423  0.2312 -0.2505  0.6570
16239SOL    HW149295   3.173   9.227   6.370 -0.1353 -0.3226  0.2434
16239SOL    HW249296   3.055   9.199   6.461  0.4105 -0.1974  1.0004
16240SOL     OW49297   2.478   7.257   1.104 -0.3468  0.2163  0.3391
16240SOL    HW149298   2.496   7.211   1.185 -2.7432  1.0490  1.4429
16240SOL    HW249299   2.428   7.194   1.051  1.7380 -0.5488 -0.8435
16241SOL     OW49300   4.295   8.823   0.932  0.0448 -0.1207  0.0814
16241SOL    HW149301   4.316   8.813   1.025  0.4734  2.5172  0.3310
16241SOL    HW249302   4.286   8.917   0.919 -2.4456 -0.5342 -2.0525
16242SOL     OW49303   5.834   2.423   3.994  0.1229  0.3614  0.4493
16242SOL    HW149304   5.808   2.420   3.902  0.0258  0.3066  0.4789
16242SOL    HW249305   5.808   2.338   4.029  1.1082 -0.0318  0.2696
16243SOL     OW49306   3.280   8.638   7.760 -0.3080 -0.2415  0.2664
16243SOL    HW149307   3.303   8.567   7.699  0.0355 -0.4916  0.6773
16243SOL    HW249308   3.332   8.619   7.838  0.6256  1.0742 -0.0059
16244SOL     OW49309   5.432   4.501   5.377 -0.4471 -0.3239 -0.0566
16244SOL    HW149310   5.361   4.438   5.366  0.1275 -1.4658  2.2542
16244SOL    HW249311   5.475   4.503   5.291 -1.3746 -1.9919 -0.6075
16245SOL     OW49312   3.534   9.830   7.865 -0.2096 -0.3793  0.3491
16245SOL    HW149313   3.503   9.831   7.775  1.0701  0.8639 -0.1169
16245SOL    HW249314   3.586   9.910   7.874 -1.1902  0.1048  2.5180
16246SOL     OW49315   0.075   6.726   4.282 -0.4236 -0.3398 -0.4472
16246SOL    HW149316   0.004   6.779   4.317 -0.3522  0.0532 -0.8925
16246SOL    HW249317   0.142   6.728   4.350 -0.0595  0.8746 -0.8212
16247SOL     OW49318   5.691   3.259   5.388  0.4199  0.1644 -0.6790
16247SOL    HW149319   5.683   3.167   5.360  0.9306  0.0858 -0.5744
16247SOL    HW249320   5.625   3.269   5.457 -1.0895  0.4489 -2.1078
16248SOL     OW49321   9.384   3.239   1.042 -0.4630  0.2268  0.1220
16248SOL    HW149322   9.435   3.265   0.965 -0.9004  1.6110  0.2849
16248SOL    HW249323   9.381   3.143   1.036 -0.4522  0.2920 -1.5564
16249SOL     OW49324   4.768   9.611   3.981 -0.0505  0.1635 -0.8199
16249SOL    HW149325   4.686   9.583   3.940 -1.6760 -1.2234  2.9050
16249SOL    HW249326   4.743   9.687   4.034  0.3365 -1.6605  2.2216
16250SOL     OW49327   9.277   3.028   0.180 -0.5583  0.5181 -0.0870
16250SOL    HW149328   9.222   3.085   0.126 -0.5777  0.5550 -0.0288
16250SOL    HW249329   9.347   3.085   0.211 -0.3820  0.4260 -0.3157
16251SOL     OW49330   2.228   2.883   1.885  0.1437 -0.7939 -0.0214
16251SOL    HW149331   2.284   2.901   1.810  0.3188  0.2692  0.3467
16251SOL    HW249332   2.151   2.937   1.872  0.9925  0.8754  1.4599
16252SOL     OW49333   7.184   1.566   4.728  0.0268  0.1401  0.3340
16252SOL    HW149334   7.183   1.485   4.678  2.0318 -0.7307  1.5463
16252SOL    HW249335   7.132   1.547   4.806 -0.7122  0.5410 -0.0469
16253SOL     OW49336   2.679   4.546   6.158  0.1099  0.3159  0.4547
16253SOL    HW149337   2.697   4.636   6.186 -0.1312  0.3510  0.5037
16253SOL    HW249338   2.759   4.518   6.114  0.2422  0.5017  0.5732
16254SOL     OW49339   0.026   1.855   7.792 -0.5082  0.0038  0.0650
16254SOL    HW149340  -0.009   1.815   7.872  0.2766 -0.5701  0.1315
16254SOL    HW249341  -0.007   1.798   7.721 -0.4152 -0.0386  0.0565
16255SOL     OW49342   5.565   3.758   0.643  0.0478 -0.3031 -0.5375
16255SOL    HW149343   5.502   3.821   0.610  0.3014  1.1386  1.5242
16255SOL    HW249344   5.646   3.776   0.595 -0.2635 -0.0072 -0.9438
16256SOL     OW49345   8.585   0.101   9.557 -0.1855 -0.6804  0.0863
16256SOL    HW149346   8.524   0.031   9.535 -1.9733  0.8447 -0.1069
16256SOL    HW249347   8.528   0.174   9.582  1.6019  0.6577  0.3972
16257SOL     OW49348   0.884   3.876   2.423  0.3949  0.4671  0.1226
16257SOL    HW149349   0.845   3.891   2.509  2.5060 -2.3953  1.7476
16257SOL    HW249350   0.964   3.930   2.424 -0.0937  1.2152 -0.4913
16258SOL     OW49351   1.456   0.859   6.433  0.1923 -0.4494  0.4657
16258SOL    HW149352   1.530   0.917   6.413  0.9918 -1.0641  1.5193
16258SOL    HW249353   1.383   0.919   6.452  0.3952  0.1631 -0.6047
16259SOL     OW49354   0.953   9.818   4.510 -0.3789  0.1885  0.4863
16259SOL    HW149355   0.878   9.877   4.511 -0.3213  0.2723  0.0592
16259SOL    HW249356   0.951   9.775   4.595 -0.2362  1.0491  0.9464
16260SOL     OW49357   2.689   3.272   9.807  0.0372  1.3560 -0.1509
16260SOL    HW149358   2.738   3.200   9.768 -0.0626  1.0795  0.2228
16260SOL    HW249359   2.661   3.325   9.733 -1.1163  0.2275 -0.5618
16261SOL     OW49360   3.547   7.772   9.036  0.1824 -0.0761 -0.2020
16261SOL    HW149361   3.501   7.689   9.051 -0.5549  0.7152  2.2728
16261SOL    HW249362   3.506   7.806   8.956 -2.6260 -0.1151  1.0694
16262SOL     OW49363   6.192   8.037   8.774 -0.5325  0.1564  0.0250
16262SOL    HW149364   6.173   7.943   8.775 -2.2911  0.4695  1.2214
16262SOL    HW249365   6.162   8.069   8.859  3.2672  1.2809  1.1300
16263SOL     OW49366   8.462   3.112   8.185 -0.3161 -0.3147  0.2937
16263SOL    HW149367   8.405   3.068   8.122 -1.7696  2.6124 -0.5833
16263SOL    HW249368   8.429   3.083   8.270 -1.4093 -0.7210 -0.2439
16264SOL     OW49369   0.463   5.115   9.412 -0.8172  0.0555  0.0162
16264SOL    HW149370   0.380   5.137   9.369 -0.3707 -0.7304 -1.3149
16264SOL    HW249371   0.452   5.145   9.502 -2.0529  1.1347 -0.4678
16265SOL     OW49372   2.751   2.782   1.376  0.0027 -0.3474 -0.0402
16265SOL    HW149373   2.686   2.775   1.446  0.3950 -0.9995  0.2664
16265SOL    HW249374   2.750   2.696   1.333  0.7718 -0.4142  0.0643
16266SOL     OW49375   2.922   0.160   7.684  0.6938 -0.2435  0.6575
16266SOL    HW149376   3.016   0.162   7.702  0.7012 -1.5087  0.8843
16266SOL    HW249377   2.903   0.068   7.667 -0.6951 -0.1758  1.6526
16267SOL     OW49378   6.030   1.585   1.992  0.4364  0.0700 -0.0935
16267SOL    HW149379   6.081   1.652   2.036 -0.6429  0.1432  1.1068
16267SOL    HW249380   5.977   1.546   2.061 -1.3074  0.1594 -1.3129
16268SOL     OW49381   4.345   8.825   8.557  0.4839 -0.4598  0.7549
16268SOL    HW149382   4.396   8.899   8.591  2.0462 -0.4423 -1.4202
16268SOL    HW249383   4.391   8.748   8.591  1.8545 -0.4382 -0.9191
16269SOL     OW49384   5.329   6.934   0.817 -0.0607  0.4514  0.6939
16269SOL    HW149385   5.348   6.842   0.833  0.5624  0.4835  0.2241
16269SOL    HW249386   5.293   6.967   0.899  1.2825  0.1892  1.4186
16270SOL     OW49387   1.788   2.378   4.393  0.1120 -1.2146 -0.6017
16270SOL    HW149388   1.832   2.316   4.450  1.0300  1.1565  1.4459
16270SOL    HW249389   1.709   2.404   4.441 -0.5557 -1.1893 -1.6713
16271SOL     OW49390   1.378   5.054   4.775  0.3862  0.1135  0.3213
16271SOL    HW149391   1.338   4.980   4.730  0.9260 -1.1179  1.7881
16271SOL    HW249392   1.405   5.019   4.860 -2.3570  2.7325  2.5213
16272SOL     OW49393   2.993   8.324   1.365  0.3983  0.0661 -0.1804
16272SOL    HW149394   2.947   8.243   1.345  0.9455 -0.3480  0.2092
16272SOL    HW249395   2.961   8.387   1.300 -1.5026  0.0934  0.7192
16273SOL     OW49396   7.897   1.999   2.586 -0.0512 -0.1605 -0.2036
16273SOL    HW149397   7.869   2.070   2.644  1.1667  1.9929 -2.0725
16273SOL    HW249398   7.833   1.930   2.600 -1.5426  1.4373  1.4418
16274SOL     OW49399   4.517   6.617   6.631  0.7743  0.2174 -0.5948
16274SOL    HW149400   4.506   6.548   6.697 -1.8754 -0.7753 -1.9512
16274SOL    HW249401   4.549   6.570   6.553  1.4084  0.9666 -0.8004
16275SOL     OW49402   2.855   5.436   6.397  0.0748  0.4120  0.4675
16275SOL    HW149403   2.890   5.349   6.375 -0.4771  0.0389  1.0179
16275SOL    HW249404   2.877   5.490   6.322  2.5810  0.4342  1.1346
16276SOL     OW49405   5.150   0.051   9.575 -0.5677  0.3272 -0.1830
16276SOL    HW149406   5.114   0.126   9.527 -0.0558  1.3280  0.9474
16276SOL    HW249407   5.075   0.012   9.619 -1.1613 -0.9853 -2.2083
16277SOL     OW49408   2.361   2.741   8.531 -0.3651 -0.5489 -0.1822
16277SOL    HW149409   2.433   2.718   8.590  0.3679 -0.9795 -1.2162
16277SOL    HW249410   2.363   2.673   8.464 -2.3041 -1.0720  0.2227
16278SOL     OW49411   4.936   2.613   7.864 -0.0934 -0.5520 -0.5867
16278SOL    HW149412   5.010   2.663   7.831 -0.9190  1.1184 -0.0234
16278SOL    HW249413   4.956   2.599   7.956  0.1639 -1.3535 -0.7567
16279SOL     OW49414   4.084   9.286   5.675 -0.8034  0.1895 -0.1754
16279SOL    HW149415   4.077   9.320   5.586  1.1467 -0.8740 -0.8046
16279SOL    HW249416   4.111   9.195   5.664 -0.4185  0.0529  1.5112
16280SOL     OW49417   6.548   4.376   3.905  0.3326  0.3161 -0.7810
16280SOL    HW149418   6.591   4.390   3.989  0.7967  0.1895 -0.9925
16280SOL    HW249419   6.546   4.281   3.895  0.7149  0.3423 -1.1313
16281SOL     OW49420   9.364   2.654   7.582 -0.4706  0.5927 -0.2042
16281SOL    HW149421   9.292   2.697   7.535 -0.5051 -0.2386 -0.9411
16281SOL    HW249422   9.442   2.675   7.530 -0.3250  0.6952  0.0582
16282SOL     OW49423   0.617   3.057   0.651  0.0968 -0.7015  0.4820
16282SOL    HW149424   0.552   3.036   0.717 -0.1892  0.4146  0.5718
16282SOL    HW249425   0.638   2.973   0.610 -1.9345 -1.0002 -0.0589
16283SOL     OW49426   5.818   8.685   3.658 -0.2920  0.1913  0.5026
16283SOL    HW149427   5.785   8.748   3.593  0.6120  0.0272 -0.1291
16283SOL    HW249428   5.746   8.676   3.720 -1.5161 -0.2551 -0.9125
16284SOL     OW49429   7.455   3.920   7.370 -0.0877 -0.2142 -0.4332
16284SOL    HW149430   7.377   3.968   7.343  0.3578  0.8295  0.0723
16284SOL    HW249431   7.503   3.904   7.289  0.0637  0.7633 -0.5483
16285SOL     OW49432   9.979   1.913   2.963 -0.7594 -0.3223  0.1586
16285SOL    HW149433  10.046   1.977   2.985 -0.2430 -0.7756 -0.0960
16285SOL    HW249434   9.905   1.966   2.933 -0.0264  0.1262 -0.9083
16286SOL     OW49435   4.892   7.421   4.766 -0.3323 -0.1584  0.1796
16286SOL    HW149436   4.896   7.381   4.678 -0.0793 -0.4980  0.3409
16286SOL    HW249437   4.871   7.348   4.824  1.6514 -0.4041  0.6786
16287SOL     OW49438   4.720   9.814   4.179  0.1037  0.0546  0.4410
16287SOL    HW149439   4.771   9.894   4.189  0.7307 -0.3835  0.7838
16287SOL    HW249440   4.748   9.758   4.252  0.0994 -0.7035 -0.1306
16288SOL     OW49441   2.350   9.649   5.391 -0.9180  0.0157  0.1417
16288SOL    HW149442   2.269   9.602   5.409  0.9118 -3.0934  0.9955
16288SOL    HW249443   2.381   9.678   5.477 -0.3373 -0.2621  0.0338
16289SOL     OW49444   1.511   3.963   6.168  0.1021  0.0720  0.6256
16289SOL    HW149445   1.430   3.934   6.125  1.0392  0.3110 -1.4359
16289SOL    HW249446   1.487   4.046   6.209 -0.9816 -0.4485  1.0917
16290SOL     OW49447   3.471   1.160   8.133 -0.1856  0.2305  0.7123
16290SOL    HW149448   3.486   1.066   8.142  1.4422  0.2968 -0.8288
16290SOL    HW249449   3.479   1.178   8.040 -1.3432  1.7836  0.8643
16291SOL     OW49450   4.933   0.178   4.572  0.1984  0.1187  0.0853
16291SOL    HW149451   4.858   0.157   4.516 -1.6570  2.7465  1.3938
16291SOL    HW249452   5.006   0.130   4.532 -1.7798 -1.2381 -2.2382
16292SOL     OW49453   4.902   6.828   1.108 -0.0473  0.2780 -0.3553
16292SOL    HW149454   4.837   6.827   1.038 -0.2238 -0.7264 -0.2001
16292SOL    HW249455   4.987   6.824   1.063 -0.1507  0.0327 -0.5328
16293SOL     OW49456   9.169   0.783   5.278 -0.2918 -0.3174 -0.0725
16293SOL    HW149457   9.237   0.764   5.343 -1.7150 -0.5329  1.4261
16293SOL    HW249458   9.127   0.699   5.262 -0.5389 -0.0960 -0.6086
16294SOL     OW49459   5.300   5.163   6.419 -0.2241 -0.1685 -0.1612
16294SOL    HW149460   5.325   5.240   6.470 -1.0420 -0.4965  0.7851
16294SOL    HW249461   5.351   5.092   6.458  0.8092 -0.0497 -1.2762
16295SOL     OW49462   6.241   8.488   3.608 -0.5319  0.0897 -0.1185
16295SOL    HW149463   6.275   8.398   3.605 -0.3318  0.1162  0.9414
16295SOL    HW249464   6.183   8.489   3.685 -2.6873  0.1517 -1.6731
16296SOL     OW49465   6.671   4.766   1.009  0.3235 -0.3609 -0.1269
16296SOL    HW149466   6.635   4.783   0.922 -1.7451 -1.7526  0.3915
16296SOL    HW249467   6.683   4.671   1.013  0.5332 -0.3099  1.0450
16297SOL     OW49468   5.123   5.255   6.053  0.5200  0.2214  0.2666
16297SOL    HW149469   5.103   5.186   6.116  1.3694  0.5467  0.9035
16297SOL    HW249470   5.177   5.317   6.101  3.0168 -0.5775 -1.3285
16298SOL     OW49471   5.043   6.599   5.518  0.3043  0.7618 -0.2653
16298SOL    HW149472   5.035   6.528   5.583  1.0346  1.9732  1.2200
16298SOL    HW249473   5.125   6.581   5.473  0.0968  0.2328 -0.4395
16299SOL     OW49474   1.358   7.082   7.661  0.2735 -0.2636  0.5024
16299SOL    HW149475   1.305   7.130   7.725 -0.6390 -0.6305  0.0478
16299SOL    HW249476   1.382   7.148   7.596 -1.2661 -0.4509 -0.3038
16300SOL     OW49477   9.010   3.596   5.041 -0.0605 -0.3387  0.5633
16300SOL    HW149478   8.991   3.502   5.036 -1.9764  0.0560 -0.9481
16300SOL    HW249479   9.035   3.620   4.952  0.5575  0.5729  0.9730
16301SOL     OW49480   0.777   1.616   0.866  0.1842 -0.5474 -0.3864
16301SOL    HW149481   0.856   1.658   0.832  0.2947  0.3606  0.9476
16301SOL    HW249482   0.781   1.628   0.961 -2.1669  0.6707 -0.3618
16302SOL     OW49483   8.682   4.306   7.598  0.1242  0.1858  0.4212
16302SOL    HW149484   8.728   4.235   7.554  0.0916  0.5350 -0.1883
16302SOL    HW249485   8.684   4.282   7.691 -1.1636 -1.3653  0.1133
16303SOL     OW49486   8.454   5.896   5.897  0.0360  0.2037  0.0349
16303SOL    HW149487   8.488   5.866   5.982 -0.3578 -1.8085 -0.4679
16303SOL    HW249488   8.516   5.861   5.833 -1.6690 -1.5891 -0.7367
16304SOL     OW49489   8.667   8.285   7.511 -0.3488  0.6560  0.0717
16304SOL    HW149490   8.686   8.321   7.424 -1.1500  0.8872 -0.0166
16304SOL    HW249491   8.572   8.293   7.520 -0.8021 -2.7351 -0.5099
16305SOL     OW49492   1.492   8.124   2.142  0.5827 -0.4429  0.1666
16305SOL    HW149493   1.525   8.152   2.056  2.6055 -1.6690  0.4792
16305SOL    HW249494   1.476   8.030   2.131 -2.0647 -0.0845  0.3245
16306SOL     OW49495   7.554   8.029   5.503 -0.4089 -0.4836  0.0027
16306SOL    HW149496   7.634   8.008   5.454 -1.7390 -0.9422 -2.1219
16306SOL    HW249497   7.550   8.125   5.500  0.2349 -0.4349  0.4404
16307SOL     OW49498   8.849   6.307   6.195  0.1749  0.3583 -0.1614
16307SOL    HW149499   8.864   6.225   6.242 -0.4045  0.6936  0.6369
16307SOL    HW249500   8.778   6.287   6.134 -0.3633  0.4174  0.4418
16308SOL     OW49501   9.285   3.605   5.447  0.6533  0.0681  0.2109
16308SOL    HW149502   9.267   3.522   5.493  0.3853 -0.6626 -1.1771
16308SOL    HW249503   9.201   3.631   5.410  1.2872 -0.5873 -1.8225
16309SOL     OW49504   2.367   0.340   8.422  0.0471 -0.2136 -0.5058
16309SOL    HW149505   2.350   0.393   8.344  0.5430  0.7320  0.0198
16309SOL    HW249506   2.438   0.281   8.395 -0.3913 -0.5148 -1.0361
16310SOL     OW49507   8.210   2.855   8.347  0.0779  0.3128  0.3182
16310SOL    HW149508   8.258   2.904   8.413  1.7071 -1.1955  0.3286
16310SOL    HW249509   8.144   2.806   8.396  0.4339  0.1932  0.6829
16311SOL     OW49510   1.750   9.494   0.542 -0.8152 -0.4948  0.2970
16311SOL    HW149511   1.656   9.486   0.528 -0.6490  0.1961 -1.3968
16311SOL    HW249512   1.787   9.500   0.454  0.4985  2.7155  0.9279
16312SOL     OW49513   0.988   3.049   2.582 -0.2145  0.2153 -0.2022
16312SOL    HW149514   0.913   2.994   2.558 -0.0613 -1.0249  1.9409
16312SOL    HW249515   1.043   3.049   2.503 -0.2190 -2.7963 -0.3526
16313SOL     OW49516   8.154   9.796   8.107  0.0901  0.0124 -0.3003
16313SOL    HW149517   8.073   9.755   8.076 -0.4284  0.5800  0.2792
16313SOL    HW249518   8.184   9.849   8.032 -1.8095  2.3570  0.4568
16314SOL     OW49519   5.386   0.191   3.834  0.1515  0.1005 -0.2007
16314SOL    HW149520   5.401   0.201   3.740 -1.5260  0.6283 -0.4337
16314SOL    HW249521   5.368   0.098   3.845 -1.3063  0.3059 -0.6772
16315SOL     OW49522   5.335   8.194   0.797 -0.0819 -0.1155 -0.6624
16315SOL    HW149523   5.368   8.212   0.885  0.3564 -1.0029 -0.6393
16315SOL    HW249524   5.387   8.250   0.740  0.4381 -0.4040 -0.4731
16316SOL     OW49525   7.787   3.422   2.885 -0.2784  0.1541  0.0868
16316SOL    HW149526   7.715   3.482   2.905  1.3342  1.6139  2.0738
16316SOL    HW249527   7.830   3.461   2.808 -0.5136  0.3392  0.0479
16317SOL     OW49528   4.229   1.624   9.619 -0.6514 -0.4046 -0.0726
16317SOL    HW149529   4.263   1.695   9.564 -0.6230 -0.8204 -0.6002
16317SOL    HW249530   4.263   1.643   9.706 -1.6392  0.8994  0.0550
16318SOL     OW49531   7.074   1.359   2.656 -0.1372  0.1078  0.7284
16318SOL    HW149532   7.104   1.445   2.686  2.8651 -0.1138 -1.2372
16318SOL    HW249533   7.076   1.304   2.734 -1.3699  1.5915  1.8593
16319SOL     OW49534   9.500   4.095   1.771  0.4892 -0.1823 -0.2132
16319SOL    HW149535   9.455   4.179   1.779  0.0129 -0.6101  2.8859
16319SOL    HW249536   9.561   4.094   1.844  1.7523 -1.8507 -1.2300
16320SOL     OW49537   7.132   5.894   0.808  0.2303  0.4645  0.2151
16320SOL    HW149538   7.180   5.821   0.847 -0.3558  0.9981  1.9959
16320SOL    HW249539   7.113   5.865   0.719  0.1911 -1.4815  0.8189
16321SOL     OW49540   7.843   8.607   5.276  0.0873  0.1092 -0.1928
16321SOL    HW149541   7.778   8.672   5.303  0.3940 -0.0385  0.9264
16321SOL    HW249542   7.830   8.534   5.336  0.5618 -0.3701 -0.6690
16322SOL     OW49543   6.360   7.806   0.432  0.1345 -0.1447  0.4203
16322SOL    HW149544   6.341   7.895   0.463  1.6854  0.8657 -1.3399
16322SOL    HW249545   6.274   7.770   0.410 -0.4076  1.6776 -0.7042
16323SOL     OW49546   9.423   2.078   0.957  0.3758  0.2556  0.8927
16323SOL    HW149547   9.395   2.020   0.886  3.8416 -0.8214  0.2482
16323SOL    HW249548   9.489   2.028   1.005  0.0275  1.9459  3.3428
16324SOL     OW49549   3.629   6.932   7.607 -0.3601  0.5179  0.3987
16324SOL    HW149550   3.701   6.953   7.547 -2.0173 -3.6130 -3.6617
16324SOL    HW249551   3.661   6.857   7.657 -1.4221 -0.8859 -0.9219
16325SOL     OW49552   5.563   5.666   1.318 -0.2583  0.1258  0.2445
16325SOL    HW149553   5.578   5.690   1.409  0.2813  0.6323  0.0334
16325SOL    HW249554   5.512   5.585   1.322 -0.2741  0.1663  0.9921
16326SOL     OW49555   7.619   8.891   1.574  0.7571  0.5342  0.0165
16326SOL    HW149556   7.596   8.867   1.664  0.3369  1.4817  0.1735
16326SOL    HW249557   7.690   8.954   1.584  1.9794 -0.7242 -0.3960
16327SOL     OW49558   4.509   8.658   9.803 -0.1038 -0.1543  0.1514
16327SOL    HW149559   4.448   8.684   9.872 -0.3168  4.9175 -1.5088
16327SOL    HW249560   4.594   8.650   9.847 -0.6988  0.1413  1.3995
16328SOL     OW49561   2.046   3.147   6.889  0.5792 -0.6530  0.2050
16328SOL    HW149562   1.984   3.164   6.961 -1.0551 -1.1307 -1.0337
16328SOL    HW249563   2.049   3.229   6.841  1.1139 -0.5592  0.3932
16329SOL     OW49564   2.140   7.974   6.048 -0.2720 -0.1440  0.0289
16329SOL    HW149565   2.069   8.037   6.041 -0.1439 -0.0506 -0.4870
16329SOL    HW249566   2.176   7.989   6.135 -1.6736 -1.0531  0.7886
16330SOL     OW49567   0.905   7.858   0.974 -0.1309 -0.4819 -0.0961
16330SOL    HW149568   0.884   7.873   0.882 -0.3346 -1.8159 -0.2934
16330SOL    HW249569   1.001   7.853   0.976 -0.1590 -1.4766 -0.4374
16331SOL     OW49570   6.074   2.133   0.983 -0.2394  0.1599  0.1681
16331SOL    HW149571   6.161   2.103   1.009  0.6484  1.7493 -0.8672
16331SOL    HW249572   6.040   2.176   1.062  0.6099  1.0020  0.0947
16332SOL     OW49573   1.526   9.499   0.307 -0.1534 -0.4924  0.0489
16332SOL    HW149574   1.462   9.452   0.361 -0.7531  0.7482  0.4672
16332SOL    HW249575   1.490   9.496   0.218 -1.3740  1.0402  0.4316
16333SOL     OW49576   1.287   4.782   5.212 -0.1763 -0.1602  0.2964
16333SOL    HW149577   1.365   4.730   5.190 -0.9052 -1.3270  0.3608
16333SOL    HW249578   1.279   4.772   5.307 -0.5151 -0.2177  0.2621
16334SOL     OW49579   0.233   1.083   2.452  0.2773 -0.1325 -0.5977
16334SOL    HW149580   0.193   1.111   2.369 -3.3332 -2.7420  0.0463
16334SOL    HW249581   0.159   1.070   2.511  2.6747  1.0017  2.9619
16335SOL     OW49582   1.330   0.169   3.140  0.3610 -0.4715  0.2710
16335SOL    HW149583   1.381   0.216   3.075 -0.4097  1.3877  0.9313
16335SOL    HW249584   1.256   0.133   3.092  0.5223 -0.2915 -0.1126
16336SOL     OW49585   5.568   4.187   7.681  0.2443 -0.5837 -0.5730
16336SOL    HW149586   5.549   4.184   7.587  1.4754 -0.7374 -0.8334
16336SOL    HW249587   5.511   4.257   7.715 -1.2502 -1.4678 -1.1625
16337SOL     OW49588   2.237   1.543   2.015 -0.4084 -0.3829  0.2332
16337SOL    HW149589   2.173   1.615   2.010 -0.2647 -0.3352 -2.5655
16337SOL    HW249590   2.322   1.587   2.013 -0.3196 -0.5387 -1.5815
16338SOL     OW49591   4.548   2.955   6.144 -0.3279 -0.2062 -0.5756
16338SOL    HW149592   4.481   2.984   6.206  0.3470 -0.9103  0.5263
16338SOL    HW249593   4.520   2.869   6.116 -0.6471  0.1243 -1.2873
16339SOL     OW49594  10.003   6.334   5.392 -0.2906  0.4475 -0.1848
16339SOL    HW149595   9.917   6.369   5.367 -0.9778 -2.5518 -2.6180
16339SOL    HW249596   9.983   6.255   5.442  0.9859 -0.4770 -1.0628
16340SOL     OW49597   6.256   8.112   9.689  0.1735 -0.0474  0.0432
16340SOL    HW149598   6.274   8.067   9.607 -0.0428  1.8684 -1.1272
16340SOL    HW249599   6.161   8.106   9.699  0.0473  0.7475 -0.5261
16341SOL     OW49600   4.394   5.642   0.088  0.1037 -0.0950  0.6306
16341SOL    HW149601   4.340   5.569   0.121 -0.1426 -0.2187 -0.0258
16341SOL    HW249602   4.361   5.719   0.135 -1.3227 -0.0046 -0.4392
16342SOL     OW49603   6.543   7.696   4.261 -0.0179 -0.0232 -0.6114
16342SOL    HW149604   6.550   7.681   4.355  0.2152  0.3137 -0.5738
16342SOL    HW249605   6.630   7.678   4.227  0.8047  2.8685 -0.3203
16343SOL     OW49606   5.913   2.465   8.018  0.9534  0.1047  0.4047
16343SOL    HW149607   5.867   2.435   7.940  1.6480 -1.2623  0.4832
16343SOL    HW249608   6.005   2.446   7.999  1.3576  1.5492  0.7867
16344SOL     OW49609   1.401   0.676   9.357 -0.1198  0.5416 -0.5174
16344SOL    HW149610   1.371   0.758   9.395  0.2461  0.8348 -0.8514
16344SOL    HW249611   1.495   0.689   9.344  0.2455 -0.4718  0.8141
16345SOL     OW49612   6.567   3.920   4.508  0.8007 -0.4815  0.5329
16345SOL    HW149613   6.534   3.906   4.419 -1.0594  0.7177  0.9662
16345SOL    HW249614   6.640   3.980   4.498 -0.1114  0.5527 -0.1197
16346SOL     OW49615   3.868   5.285   9.642  0.1359  0.7177 -0.5264
16346SOL    HW149616   3.900   5.362   9.594  0.9503 -0.8067 -2.6235
16346SOL    HW249617   3.908   5.292   9.728  2.2019  1.4113 -1.4712
16347SOL     OW49618   3.169   9.166   9.463  0.4178 -0.2803  0.0844
16347SOL    HW149619   3.231   9.238   9.450 -0.5762  0.7532  0.9166
16347SOL    HW249620   3.183   9.138   9.553 -2.8884  2.5955  1.7242
16348SOL     OW49621   6.958   1.193   8.134  0.5937  0.1378 -0.3921
16348SOL    HW149622   7.026   1.193   8.067 -0.6677 -0.0256 -1.7046
16348SOL    HW249623   6.960   1.282   8.170 -0.0213  0.8525 -2.0310
16349SOL     OW49624   6.188   4.050   7.096 -0.2467 -0.1717  0.0136
16349SOL    HW149625   6.141   3.992   7.036  0.1242  0.8099 -1.2796
16349SOL    HW249626   6.269   4.002   7.116 -0.5591 -0.6888  0.0601
16350SOL     OW49627   9.595   9.337   0.202 -0.2681 -0.4782 -0.6218
16350SOL    HW149628   9.503   9.310   0.210 -0.2834 -0.0134  1.2265
16350SOL    HW249629   9.619   9.366   0.290  1.5846 -0.3332 -1.1396
16351SOL     OW49630   0.267   7.462   0.449 -0.3335 -0.2472  0.1354
16351SOL    HW149631   0.293   7.519   0.376 -0.8675 -0.9889 -0.6518
16351SOL    HW249632   0.237   7.381   0.407 -1.0197 -0.5455  1.1703
16352SOL     OW49633   2.646   6.022   8.531  0.9067 -0.0866  0.2827
16352SOL    HW149634   2.569   6.054   8.578  1.3873 -0.7752  1.5520
16352SOL    HW249635   2.610   5.986   8.449  0.0394  0.8329  0.2341
16353SOL     OW49636   1.765   5.179   2.245 -0.2292  0.1081 -0.1552
16353SOL    HW149637   1.822   5.174   2.321  0.1255 -1.4277 -0.4788
16353SOL    HW249638   1.678   5.200   2.281  0.4311  2.1386  0.3623
16354SOL     OW49639   8.988   6.347   8.839  0.2546  0.0613  0.2330
16354SOL    HW149640   8.958   6.395   8.762 -0.9373 -1.4950 -0.3157
16354SOL    HW249641   9.083   6.342   8.828  0.5796  3.1087  0.8481
16355SOL     OW49642   6.186   4.476   7.202 -0.4695 -0.4772  0.3926
16355SOL    HW149643   6.135   4.552   7.174 -0.3507 -0.8794 -1.0207
16355SOL    HW249644   6.267   4.512   7.237 -1.3362  0.1261  1.8234
16356SOL     OW49645   8.155   0.865   3.625 -0.0170 -0.9745 -0.5457
16356SOL    HW149646   8.093   0.886   3.694 -1.3985 -2.6530 -1.2151
16356SOL    HW249647   8.239   0.856   3.671 -1.2234 -4.0304  1.3323
16357SOL     OW49648   6.901   8.771   2.903  0.3542 -0.3656 -0.2849
16357SOL    HW149649   6.855   8.694   2.936  2.0373 -0.8382  1.0863
16357SOL    HW249650   6.919   8.751   2.811 -0.6825 -0.8615 -0.4000
16358SOL     OW49651   0.380   2.034   3.379 -0.1898 -0.3678 -0.1982
16358SOL    HW149652   0.333   2.044   3.461 -1.6798  1.7889 -1.2282
16358SOL    HW249653   0.451   2.099   3.384  0.8177 -1.4566  0.0697
16359SOL     OW49654   2.695   3.461   2.756 -0.2877 -0.3931  0.3115
16359SOL    HW149655   2.711   3.454   2.662 -1.1136 -0.2177  0.1517
16359SOL    HW249656   2.677   3.554   2.771  0.3934 -0.3195  0.7424
16360SOL     OW49657   2.224   6.571   3.105  0.0272  0.0873  0.2857
16360SOL    HW149658   2.300   6.568   3.047 -0.8160 -1.5679 -0.8521
16360SOL    HW249659   2.223   6.485   3.147 -0.7799  0.3595  0.8502
16361SOL     OW49660   6.824   7.719   0.216 -0.3505  0.2053 -0.2854
16361SOL    HW149661   6.772   7.772   0.277  1.1331  1.1765  0.2023
16361SOL    HW249662   6.852   7.643   0.268 -0.6850  0.0561 -0.3263
16362SOL     OW49663   3.679   7.248   7.424  0.6567  0.1977  0.2071
16362SOL    HW149664   3.749   7.195   7.387  0.6381 -1.5291  2.3869
16362SOL    HW249665   3.626   7.275   7.349  2.7145  0.1976 -1.3277
16363SOL     OW49666   3.333   0.777   1.546 -0.0915  0.0739  0.0521
16363SOL    HW149667   3.402   0.758   1.609  0.0819  0.6877  0.0608
16363SOL    HW249668   3.344   0.712   1.477  0.8391  0.4906 -0.2062
16364SOL     OW49669   6.800   7.181   8.166 -0.0229  0.1050 -0.1802
16364SOL    HW149670   6.822   7.257   8.112 -1.1910  0.2726 -0.4591
16364SOL    HW249671   6.704   7.179   8.165 -0.0046 -1.6087 -0.5199
16365SOL     OW49672   8.543   1.223   8.069  0.1903  0.0295 -0.4264
16365SOL    HW149673   8.565   1.305   8.025 -1.1520  0.3040 -0.6054
16365SOL    HW249674   8.448   1.221   8.071  0.1456 -2.3155 -1.9159
16366SOL     OW49675   0.933   1.115   6.731  0.5028 -0.3800 -0.5513
16366SOL    HW149676   0.855   1.100   6.678 -1.1769 -0.1648  1.7173
16366SOL    HW249677   0.999   1.058   6.692 -1.4662 -2.4579 -1.1188
16367SOL     OW49678   9.239   8.486   7.609  0.3293 -0.2390 -0.3232
16367SOL    HW149679   9.286   8.564   7.579  0.5123 -0.5510 -0.8908
16367SOL    HW249680   9.300   8.414   7.591 -0.8276 -0.8060 -2.2649
16368SOL     OW49681   4.416   1.067   9.230 -0.2398 -0.0978 -0.0920
16368SOL    HW149682   4.390   1.139   9.173 -2.5442 -1.0597 -0.3955
16368SOL    HW249683   4.430   1.107   9.315  2.2049  1.2022 -1.0105
16369SOL     OW49684   3.197   6.878   3.014 -0.0253 -0.2659 -0.5747
16369SOL    HW149685   3.137   6.824   2.962 -1.1918  0.1224  0.3097
16369SOL    HW249686   3.185   6.967   2.980  0.5945 -0.2860 -0.8642
16370SOL     OW49687   3.610   1.793   0.984  0.5076 -0.1766 -0.5133
16370SOL    HW149688   3.521   1.821   0.962  0.4518 -1.0051 -1.4061
16370SOL    HW249689   3.666   1.859   0.944  0.2983  0.4806  0.2557
16371SOL     OW49690   3.874   5.603   8.984 -0.0220  0.2085 -0.5005
16371SOL    HW149691   3.950   5.661   8.975  0.0931  0.0463 -0.5795
16371SOL    HW249692   3.854   5.605   9.078  0.3408 -0.0726 -0.4116
16372SOL     OW49693   9.717   0.320   2.321 -0.6723  0.3694  0.4368
16372SOL    HW149694   9.763   0.238   2.337 -1.1617  0.5291  2.9571
16372SOL    HW249695   9.634   0.294   2.281 -0.5134 -0.3064  0.5384
16373SOL     OW49696   2.416   8.591   9.312  0.7809 -0.4182 -0.1007
16373SOL    HW149697   2.448   8.669   9.358 -2.1125  1.1193 -0.4610
16373SOL    HW249698   2.364   8.625   9.240 -1.1260 -2.6426  0.0958
16374SOL     OW49699   8.314   0.228   9.635 -0.0358  0.8738 -0.3748
16374SOL    HW149700   8.341   0.315   9.607 -0.8732  1.3112  0.1704
16374SOL    HW249701   8.243   0.204   9.575 -0.1880  0.7994 -0.1649
16375SOL     OW49702   1.501   6.766   8.263  0.1418 -0.1386 -0.3526
16375SOL    HW149703   1.418   6.810   8.245  0.1719 -0.2848 -0.8514
16375SOL    HW249704   1.567   6.835   8.257 -0.0036  0.1201  0.7188
16376SOL     OW49705   0.497   7.448   3.837  0.2593  0.1454  0.5876
16376SOL    HW149706   0.582   7.492   3.828  0.7633 -0.8638  0.3669
16376SOL    HW249707   0.504   7.402   3.921 -0.0381 -0.0282  0.5137
16377SOL     OW49708   0.950   6.314   1.794  0.0961  0.3962 -0.2851
16377SOL    HW149709   0.988   6.272   1.717  1.6462 -2.2412  1.7698
16377SOL    HW249710   0.864   6.271   1.804 -0.6919  1.6815 -1.2069
16378SOL     OW49711   9.375   7.935   7.901  0.3274 -0.4802 -0.5578
16378SOL    HW149712   9.339   7.859   7.855 -0.6125 -1.8382  2.1650
16378SOL    HW249713   9.468   7.935   7.878 -0.0805 -1.0593 -2.3799
16379SOL     OW49714   7.456   0.779   1.675  0.5528  0.2791  0.0372
16379SOL    HW149715   7.402   0.842   1.628  0.1659  0.7939  1.1283
16379SOL    HW249716   7.415   0.694   1.658  0.9247  0.3302 -1.2274
16380SOL     OW49717   2.133   2.348   4.637 -0.4822  0.4465 -0.3885
16380SOL    HW149718   2.079   2.364   4.714 -0.0997  1.1220 -0.2527
16380SOL    HW249719   2.196   2.420   4.636  1.3003 -1.0046  0.2417
16381SOL     OW49720   9.530   6.069   9.514  0.6027 -0.0747  0.4344
16381SOL    HW149721   9.498   6.042   9.600 -0.9255 -1.6930 -0.5719
16381SOL    HW249722   9.603   6.011   9.496  0.7463  0.0802  0.5129
16382SOL     OW49723   5.255   7.510   0.849 -0.7606 -0.6296  0.0443
16382SOL    HW149724   5.279   7.447   0.916 -0.4884 -0.0522  0.4964
16382SOL    HW249725   5.261   7.595   0.892 -2.2726 -0.3635 -0.2200
16383SOL     OW49726   7.786   1.870   5.688  0.2366 -0.0844  0.0427
16383SOL    HW149727   7.761   1.919   5.610 -1.2764 -1.8511 -0.6555
16383SOL    HW249728   7.852   1.808   5.658 -0.4032 -0.8215  0.1110
16384SOL     OW49729   9.340   6.065   8.522  0.4284  0.4986  0.7748
16384SOL    HW149730   9.270   6.120   8.487  0.6516  0.0295 -0.4767
16384SOL    HW249731   9.329   5.981   8.478  1.6096  0.3344  0.7546
16385SOL     OW49732   2.334   7.447   5.277 -0.4570 -0.2788 -0.2085
16385SOL    HW149733   2.273   7.411   5.213 -2.2985  0.7524  0.8946
16385SOL    HW249734   2.393   7.501   5.225 -2.3203  1.0681 -1.0228
16386SOL     OW49735   1.146   4.813   8.648 -0.0975 -0.2032  0.4083
16386SOL    HW149736   1.094   4.734   8.632  0.1473 -0.2087 -0.4120
16386SOL    HW249737   1.233   4.791   8.616 -0.1275  0.5367 -0.2172
16387SOL     OW49738   7.514   3.347   2.276 -0.2772 -0.5671  0.9206
16387SOL    HW149739   7.424   3.361   2.308  0.3259  2.1916  1.7282
16387SOL    HW249740   7.550   3.282   2.335 -2.0039 -2.5363 -0.0605
16388SOL     OW49741   6.550   7.456   7.861  0.5804  0.2497 -0.0671
16388SOL    HW149742   6.572   7.541   7.823  0.7991 -0.1574 -0.8714
16388SOL    HW249743   6.583   7.393   7.798 -0.7222 -0.4275 -0.0952
16389SOL     OW49744   8.326   5.185   2.272 -0.1906 -0.7946  0.4100
16389SOL    HW149745   8.265   5.258   2.277 -0.4669 -0.9294 -0.8006
16389SOL    HW249746   8.374   5.200   2.191  0.3597 -1.4950  0.5990
16390SOL     OW49747   4.352   8.417   8.981  0.4097  0.2137  0.0429
16390SOL    HW149748   4.303   8.376   8.909 -0.6127  1.7253 -0.1448
16390SOL    HW249749   4.332   8.363   9.057  0.3087 -0.5281 -0.4960
16391SOL     OW49750   0.893   1.922   3.120 -0.1196 -0.0913 -0.0621
16391SOL    HW149751   0.902   2.004   3.071  0.3323  0.6468  1.2165
16391SOL    HW249752   0.917   1.854   3.056 -1.0580  0.7029 -1.3124
16392SOL     OW49753   1.473   8.359   1.573  0.2449  0.4671 -0.3733
16392SOL    HW149754   1.395   8.409   1.595  0.4387  1.1098 -1.0965
16392SOL    HW249755   1.450   8.268   1.592 -0.6407  0.6660 -0.4906
16393SOL     OW49756   6.198   4.360   8.073 -0.6542 -0.0991 -0.4762
16393SOL    HW149757   6.241   4.279   8.098 -0.5589 -0.1526 -0.8103
16393SOL    HW249758   6.109   4.334   8.049 -0.7319 -0.0545 -0.2322
16394SOL     OW49759   6.967   6.741   7.149 -0.4391 -0.1969  0.5197
16394SOL    HW149760   6.999   6.820   7.192  1.0749  0.4896 -1.6985
16394SOL    HW249761   6.878   6.729   7.183 -1.3432  3.3594 -0.1527
16395SOL     OW49762   4.598   6.388   7.165 -0.4206 -0.6227 -0.1263
16395SOL    HW149763   4.523   6.423   7.213  1.1833 -0.3338  2.3335
16395SOL    HW249764   4.670   6.448   7.185  0.6581 -1.2080 -1.9339
16396SOL     OW49765   2.089   7.945   6.789 -0.6731 -0.2039  0.1653
16396SOL    HW149766   2.022   7.881   6.763 -1.6167  0.6165  0.5218
16396SOL    HW249767   2.040   8.019   6.824  0.4313  0.4076  0.4852
16397SOL     OW49768   5.219   2.008   2.092  0.4956 -0.0051  0.4629
16397SOL    HW149769   5.216   1.986   1.998  0.2576  1.1937  0.1760
16397SOL    HW249770   5.311   2.023   2.110  0.5697 -0.4534  0.4868
16398SOL     OW49771   6.794   6.356   3.097 -0.2230 -0.0076 -0.3986
16398SOL    HW149772   6.727   6.384   3.035  0.3465  0.9014 -0.6195
16398SOL    HW249773   6.775   6.263   3.113 -1.6785  0.2970 -0.2638
16399SOL     OW49774   5.130   7.082   4.373 -0.0776  0.0044  0.0572
16399SOL    HW149775   5.044   7.040   4.372 -0.5015  0.8189 -1.2613
16399SOL    HW249776   5.139   7.118   4.285  1.0873  0.9918  0.5599
16400SOL     OW49777   5.346   0.196   6.952 -0.0316  0.1622  0.0138
16400SOL    HW149778   5.379   0.250   7.025 -0.3212  1.6540 -0.9153
16400SOL    HW249779   5.402   0.119   6.952  0.9374  0.8376  0.8881
16401SOL     OW49780   2.096   8.013   2.641 -0.3381 -0.1993  0.3475
16401SOL    HW149781   2.059   7.937   2.596  0.4528 -0.5691  0.3079
16401SOL    HW249782   2.191   8.001   2.634 -0.1896  1.0705 -0.1382
16402SOL     OW49783   6.095   1.215   5.439 -0.4119 -0.4015  0.0961
16402SOL    HW149784   6.003   1.244   5.434 -0.5912 -0.9402  0.2610
16402SOL    HW249785   6.132   1.266   5.511 -0.9596 -1.1948  0.9661
16403SOL     OW49786   9.537   1.402   6.163  0.5713  0.4233  0.2905
16403SOL    HW149787   9.492   1.410   6.079  1.8076  0.1860 -0.4158
16403SOL    HW249788   9.597   1.328   6.151  0.6114  0.2544  1.4576
16404SOL     OW49789   7.237   8.071   1.346 -0.4728  0.1658  0.4125
16404SOL    HW149790   7.278   8.119   1.274  1.4281 -1.5068  0.2841
16404SOL    HW249791   7.175   8.012   1.304 -1.0434  0.7836  0.3704
16405SOL     OW49792   4.704   6.056   9.899 -0.4669  0.1433 -0.0345
16405SOL    HW149793   4.612   6.078   9.911 -1.2463 -3.1434  0.9835
16405SOL    HW249794   4.711   6.033   9.806 -0.1557  2.1330 -0.5582
16406SOL     OW49795   5.605   7.904   3.971 -0.3748  0.3088  0.3919
16406SOL    HW149796   5.588   7.950   3.889  0.2083 -0.6083 -0.2610
16406SOL    HW249797   5.562   7.958   4.038 -0.2748  1.4395 -0.4211
16407SOL     OW49798   9.617   6.732   6.596 -0.4195 -0.2775 -0.0597
16407SOL    HW149799   9.548   6.689   6.546  0.6019 -1.7226 -0.2921
16407SOL    HW249800   9.632   6.814   6.550 -2.8464  0.7103  0.7478
16408SOL     OW49801   2.563   2.092   7.369 -0.1798 -0.9473 -0.0009
16408SOL    HW149802   2.603   2.117   7.452 -2.0516 -0.4177  0.7893
16408SOL    HW249803   2.618   2.134   7.302 -0.6663  1.6963  1.1201
16409SOL     OW49804   5.620   1.656   1.661  0.8035  0.1405 -0.4845
16409SOL    HW149805   5.545   1.701   1.621  1.0054 -1.1573 -2.4268
16409SOL    HW249806   5.661   1.724   1.715 -1.0744  1.2058 -0.2730
16410SOL     OW49807   5.150   8.150   8.713  0.1422 -0.2429  0.0572
16410SOL    HW149808   5.132   8.110   8.798  1.3289 -1.4754 -0.2406
16410SOL    HW249809   5.246   8.149   8.706  0.2099  2.0786 -0.2582
16411SOL     OW49810   7.148   0.051   7.642 -0.2060 -0.2718  0.0380
16411SOL    HW149811   7.176   0.057   7.734 -1.6222  0.1614  0.4741
16411SOL    HW249812   7.229   0.051   7.592  0.5786  0.1440  1.2653
16412SOL     OW49813   8.231   7.536   4.637  0.5569  0.2283 -0.5930
16412SOL    HW149814   8.247   7.627   4.661  0.6665 -0.3420  1.8032
16412SOL    HW249815   8.182   7.540   4.555 -0.0838  2.4538 -0.1520
16413SOL     OW49816   8.825   8.706   5.597 -0.5193  0.3798  0.3260
16413SOL    HW149817   8.827   8.643   5.668  2.3434  0.5177  0.4530
16413SOL    HW249818   8.831   8.653   5.517 -1.9438  0.3317  0.2234
16414SOL     OW49819   8.297   6.154   0.299 -0.3463 -0.6137 -0.4542
16414SOL    HW149820   8.223   6.199   0.258  0.5489  0.9424 -0.4282
16414SOL    HW249821   8.329   6.096   0.230  0.5083  1.2298 -1.6941
16415SOL     OW49822   7.443   2.657   2.066  0.0557  0.0904  0.1166
16415SOL    HW149823   7.539   2.647   2.061  0.1830  1.0942  0.4313
16415SOL    HW249824   7.426   2.674   2.159 -0.1584  2.3791 -0.2854
16416SOL     OW49825   1.445   1.853   3.321  0.2931 -0.1920 -0.5883
16416SOL    HW149826   1.452   1.933   3.373 -0.2648 -1.1297  0.9807
16416SOL    HW249827   1.353   1.827   3.327  0.8764 -2.1376  0.7951
16417SOL     OW49828   9.632   3.155   6.564  0.4148 -0.3089 -0.8207
16417SOL    HW149829   9.676   3.074   6.536  0.9240  0.2112 -1.5446
16417SOL    HW249830   9.701   3.207   6.604  0.2027  0.0152 -0.8779
16418SOL     OW49831   1.200   3.308   3.143 -0.1582 -0.0144  0.1732
16418SOL    HW149832   1.261   3.260   3.199  0.3876  0.6430  0.1543
16418SOL    HW249833   1.116   3.304   3.189 -0.4355 -2.0014 -0.3990
16419SOL     OW49834   1.883   4.622   9.998  0.1791 -0.1421  0.3041
16419SOL    HW149835   1.968   4.631   9.954  0.6860 -0.1619  1.2492
16419SOL    HW249836   1.820   4.657   9.935  0.7994 -0.8044 -0.7076
16420SOL     OW49837   1.205   1.741   7.352 -0.1980 -0.0496 -0.3793
16420SOL    HW149838   1.155   1.715   7.430 -0.5795 -0.4887 -0.7688
16420SOL    HW249839   1.269   1.805   7.385 -2.0779  1.8108 -0.1319
16421SOL     OW49840   8.880   2.022   4.224 -0.3538 -0.1192  0.4208
16421SOL    HW149841   8.909   2.076   4.151 -0.4784 -0.2081  0.3044
16421SOL    HW249842   8.937   1.945   4.221  0.6864  0.6036  1.3806
16422SOL     OW49843   0.203   6.883   2.014 -0.0988 -0.0108  0.1719
16422SOL    HW149844   0.123   6.900   1.964 -0.3722 -0.1472  0.5569
16422SOL    HW249845   0.263   6.953   1.988  0.3403 -0.9887 -1.5503
16423SOL     OW49846   9.796   4.727   5.529 -0.6647  0.2279 -0.1397
16423SOL    HW149847   9.733   4.658   5.546 -0.5008  0.2418  0.5534
16423SOL    HW249848   9.743   4.806   5.513 -0.8556 -0.0744 -1.0888
16424SOL     OW49849   3.525   6.505   2.466  0.7626 -0.9497 -0.0069
16424SOL    HW149850   3.436   6.489   2.436  0.7780 -0.7025 -0.1910
16424SOL    HW249851   3.568   6.420   2.462  0.9162 -0.8282 -1.2158
16425SOL     OW49852   0.167   5.160   7.651 -0.4777  0.3937 -0.2515
16425SOL    HW149853   0.155   5.215   7.728 -0.5761  0.7680 -0.5313
16425SOL    HW249854   0.257   5.177   7.623  1.3669 -3.3261  2.5625
16426SOL     OW49855   2.841   5.144   0.838 -0.2208 -0.0055 -0.2591
16426SOL    HW149856   2.783   5.120   0.766 -1.4073  0.6015  0.4773
16426SOL    HW249857   2.795   5.212   0.885 -0.0093 -1.1920  1.7734
16427SOL     OW49858   1.547   1.448   5.304  0.2222  0.1767  0.3107
16427SOL    HW149859   1.586   1.464   5.390  2.5457  0.3887 -0.7025
16427SOL    HW249860   1.453   1.452   5.319  0.5641  0.4047  2.7965
16428SOL     OW49861   2.204   0.404   7.916  0.4794 -0.3414 -0.6831
16428SOL    HW149862   2.200   0.500   7.915  0.2903 -0.3481 -0.5936
16428SOL    HW249863   2.224   0.380   7.826  2.6824 -0.1270 -0.2963
16429SOL     OW49864   3.455   7.223   1.504 -0.5815 -0.2882 -0.5559
16429SOL    HW149865   3.440   7.144   1.557 -0.8717  1.2180  1.7406
16429SOL    HW249866   3.549   7.239   1.511 -0.5115 -0.4470 -1.0789
16430SOL     OW49867   7.230   9.945   4.281 -0.3354 -0.4250 -0.1956
16430SOL    HW149868   7.277   9.927   4.200 -0.1238  0.6368 -0.3271
16430SOL    HW249869   7.217  10.040   4.280 -0.1707 -0.3740  1.0869
16431SOL     OW49870   9.501   9.577   4.556  0.2592 -0.5146 -0.1811
16431SOL    HW149871   9.441   9.592   4.483 -0.7135 -0.5417  0.5876
16431SOL    HW249872   9.585   9.557   4.514  0.2047  1.3251 -1.2709
16432SOL     OW49873   3.084   8.565   9.401 -0.1352 -0.7443 -0.0251
16432SOL    HW149874   3.054   8.569   9.492  2.8123 -1.8977  1.1073
16432SOL    HW249875   3.117   8.653   9.383 -2.2005 -0.0413 -0.6073
16433SOL     OW49876   2.164   2.082   9.491  0.3868  0.5595  0.2706
16433SOL    HW149877   2.240   2.138   9.509  1.6645 -0.3964 -1.7689
16433SOL    HW249878   2.160   2.024   9.567  1.6053  0.7345  0.4989
16434SOL     OW49879   1.960   7.243   0.795 -0.4111 -0.7533  0.6876
16434SOL    HW149880   1.931   7.279   0.711 -3.8944 -0.9265  1.6546
16434SOL    HW249881   1.954   7.316   0.856 -0.4974 -1.2558  1.2928
16435SOL     OW49882   4.829   7.217   4.967  0.1631 -0.0386  0.3451
16435SOL    HW149883   4.859   7.145   4.911  0.0170  0.5751 -0.5263
16435SOL    HW249884   4.847   7.186   5.056  0.1851 -1.1161 -0.0205
16436SOL     OW49885   9.737   5.954   7.438  0.0059 -0.4503 -0.9705
16436SOL    HW149886   9.808   5.896   7.466 -1.5228 -2.1111 -0.4263
16436SOL    HW249887   9.673   5.950   7.508 -1.8262 -1.0416 -2.6085
16437SOL     OW49888   0.355   6.083   8.503 -0.2682  0.1184 -0.2381
16437SOL    HW149889   0.276   6.038   8.474 -0.5089  0.6202 -0.3681
16437SOL    HW249890   0.427   6.033   8.463 -0.5474  0.1291 -0.7635
16438SOL     OW49891   4.939   3.071   5.121 -0.3647 -0.6495 -0.0621
16438SOL    HW149892   5.012   3.050   5.179 -0.1515 -1.4794 -0.6044
16438SOL    HW249893   4.928   3.165   5.128 -0.2731 -0.7178  1.2385
16439SOL     OW49894   3.072   8.722   3.546 -0.0414  0.4437 -0.2434
16439SOL    HW149895   3.036   8.655   3.489  0.9931 -0.4652  0.1407
16439SOL    HW249896   3.140   8.677   3.596  0.4074  1.6875  0.3019
16440SOL     OW49897   4.790   6.523   2.522  0.2224 -0.0565  0.0707
16440SOL    HW149898   4.819   6.445   2.476  1.1416  0.2559  0.1011
16440SOL    HW249899   4.705   6.544   2.483 -0.1194 -1.1562  0.1854
16441SOL     OW49900   4.982   4.013   6.547  0.2449  0.4020 -0.0482
16441SOL    HW149901   4.996   3.939   6.606 -1.9349 -1.4636 -1.6506
16441SOL    HW249902   5.051   4.004   6.482 -0.8364 -1.2719 -1.0712
16442SOL     OW49903   5.160   3.583   7.641 -0.2473  0.1765  0.4309
16442SOL    HW149904   5.150   3.630   7.558  0.3223 -0.5980 -0.0802
16442SOL    HW249905   5.220   3.637   7.692  0.8932 -0.2831 -0.3889
16443SOL     OW49906   4.014   5.984   3.546 -0.3721  0.1804  0.1449
16443SOL    HW149907   4.075   5.911   3.553  0.0357  0.3946 -0.9089
16443SOL    HW249908   3.968   5.986   3.630  1.5409  0.4468  1.2313
16444SOL     OW49909   4.063   7.413   9.608 -0.1061  0.4665 -0.0373
16444SOL    HW149910   4.059   7.476   9.536 -0.9295  1.7924  1.1027
16444SOL    HW249911   3.988   7.355   9.594  1.8526 -1.7553 -2.3013
16445SOL     OW49912   4.063   5.771   7.135 -0.2826 -0.1469 -0.4235
16445SOL    HW149913   3.999   5.747   7.068 -0.7588  1.0497 -0.4258
16445SOL    HW249914   4.121   5.834   7.092 -0.3798  0.3601  0.1710
16446SOL     OW49915   4.610   8.671   8.251  0.5038 -0.7926 -0.0906
16446SOL    HW149916   4.632   8.579   8.233  1.6433 -0.8647  1.4413
16446SOL    HW249917   4.675   8.721   8.202  1.0842 -0.8813  0.5638
16447SOL     OW49918   0.149   6.509   1.622  0.2586  0.1842  0.0542
16447SOL    HW149919   0.066   6.474   1.587  0.2614  1.2370 -1.0547
16447SOL    HW249920   0.130   6.525   1.714 -1.0546  1.1360 -0.3376
16448SOL     OW49921   5.220   1.819   9.326 -0.0758  0.0778  0.1089
16448SOL    HW149922   5.238   1.879   9.254 -0.0693 -0.5707 -0.4504
16448SOL    HW249923   5.124   1.810   9.325 -0.2824  1.7205  1.5760
16449SOL     OW49924   9.519   0.999   6.578 -0.0228 -0.3437 -0.1484
16449SOL    HW149925   9.480   1.072   6.529  0.5352 -0.1848 -0.3625
16449SOL    HW249926   9.607   1.029   6.598  0.2723 -1.0399 -0.4041
16450SOL     OW49927   7.479   8.534   0.956  0.2233 -0.2467 -0.3301
16450SOL    HW149928   7.449   8.551   0.867  1.7637  1.6188 -0.5563
16450SOL    HW249929   7.555   8.477   0.946 -1.9705 -3.5181  0.1361
16451SOL     OW49930   6.168   0.672   8.754 -0.0705  0.0668  0.2916
16451SOL    HW149931   6.256   0.691   8.789  0.3190  0.2886 -0.7752
16451SOL    HW249932   6.116   0.749   8.778  0.2860  0.3781  0.0844
16452SOL     OW49933   8.414   8.385   9.556  0.1117 -0.2625 -0.0220
16452SOL    HW149934   8.470   8.325   9.507 -0.8596 -0.7220 -0.5922
16452SOL    HW249935   8.361   8.329   9.612 -2.2057 -0.1533 -1.9787
16453SOL     OW49936   0.428   1.332   0.906 -0.1626 -0.0424 -0.0161
16453SOL    HW149937   0.471   1.291   0.830 -0.8312 -0.1989 -0.3210
16453SOL    HW249938   0.437   1.268   0.976 -0.1099 -0.1773 -0.1452
16454SOL     OW49939   4.147   3.160   8.289  0.4159 -0.6455  0.2842
16454SOL    HW149940   4.129   3.236   8.344 -0.3617 -0.2656 -0.4587
16454SOL    HW249941   4.105   3.182   8.205  0.8969 -1.5396 -0.1968
16455SOL     OW49942   6.446   8.045   4.401 -0.0786 -0.6185  0.4167
16455SOL    HW149943   6.401   7.966   4.432  0.1884 -1.9166 -2.2215
16455SOL    HW249944   6.483   8.084   4.480 -2.3823 -1.7073  2.1399
16456SOL     OW49945   0.024   1.979   7.057  0.0709 -0.1362 -0.3416
16456SOL    HW149946   0.036   1.984   7.152  1.0015 -1.2931 -0.3732
16456SOL    HW249947   0.109   1.949   7.024  0.4040  2.0987 -1.7461
16457SOL     OW49948   2.844   3.478   5.065  0.0041  0.2830 -0.1574
16457SOL    HW149949   2.889   3.397   5.091  1.2377  0.9548 -0.1052
16457SOL    HW249950   2.774   3.449   5.006 -0.2453 -0.9046  0.6905
16458SOL     OW49951   1.768   5.328   5.092 -0.1198 -0.2915  0.2696
16458SOL    HW149952   1.858   5.307   5.117 -0.1046 -1.5411 -0.7521
16458SOL    HW249953   1.773   5.416   5.055  0.2392  0.6558  2.3872
16459SOL     OW49954   3.634   8.604   0.139 -0.3818  0.2566 -0.3360
16459SOL    HW149955   3.670   8.643   0.218 -0.0117  0.4476 -0.5907
16459SOL    HW249956   3.594   8.523   0.168  2.3111 -1.1819 -0.3409
16460SOL     OW49957   9.873   1.956   5.267 -0.0111  0.7036  0.0269
16460SOL    HW149958   9.941   1.907   5.220 -0.0984  0.4723  0.1386
16460SOL    HW249959   9.863   1.909   5.350  1.9742  2.5645  1.4412
16461SOL     OW49960   9.781   3.336   9.224  0.9431  0.2518  0.5063
16461SOL    HW149961   9.852   3.306   9.280  0.6248 -0.0252  0.7680
16461SOL    HW249962   9.822   3.351   9.139  1.8490  2.5414  1.2735
16462SOL     OW49963   7.987   4.949   7.526  0.4174  0.4106  0.2894
16462SOL    HW149964   8.078   4.975   7.511 -0.1474  1.2460 -2.0338
16462SOL    HW249965   7.944   5.031   7.553 -0.1626  0.6486 -1.2698
16463SOL     OW49966   2.854   5.402   7.455 -0.3444  0.7677  0.0766
16463SOL    HW149967   2.938   5.367   7.426 -0.8761 -0.9851  0.5659
16463SOL    HW249968   2.866   5.497   7.450  1.0805  0.5673 -1.4795
16464SOL     OW49969   9.626   5.787   7.232  0.6207 -0.4031 -0.5219
16464SOL    HW149970   9.695   5.821   7.289  0.3196 -0.5871 -0.0335
16464SOL    HW249971   9.556   5.851   7.238  0.2708 -0.8252 -0.0389
16465SOL     OW49972   6.939   3.462   5.937  0.0143  0.9055  0.0869
16465SOL    HW149973   6.847   3.469   5.913 -0.1210  0.9791  0.6166
16465SOL    HW249974   6.962   3.372   5.917 -0.3222  0.7325  0.4604
16466SOL     OW49975   5.990   5.110   1.815  0.1219 -0.2257  0.1330
16466SOL    HW149976   6.020   5.021   1.798 -0.7953 -0.8656  1.6595
16466SOL    HW249977   5.916   5.100   1.875 -0.5634  1.5264 -0.3445
16467SOL     OW49978   3.267   4.875   5.799 -0.7826  0.2757 -0.1353
16467SOL    HW149979   3.200   4.909   5.740 -0.8423 -0.4959 -0.5160
16467SOL    HW249980   3.339   4.850   5.742 -0.1683  1.0735  0.2682
16468SOL     OW49981   2.625   7.463   8.419  0.1222 -0.2891 -0.1325
16468SOL    HW149982   2.540   7.507   8.414 -0.6076 -1.7090 -0.9939
16468SOL    HW249983   2.605   7.377   8.455  1.2685 -0.5034  0.0260
16469SOL     OW49984   8.437   4.524   2.767 -0.3084  0.0822  0.2256
16469SOL    HW149985   8.359   4.577   2.748 -0.2345 -0.2489 -1.0920
16469SOL    HW249986   8.510   4.584   2.758 -0.4017  0.4854  1.8320
16470SOL     OW49987   1.991   3.545   2.850 -0.2108  0.1164 -0.1600
16470SOL    HW149988   1.947   3.596   2.918  0.3689 -1.4265  1.4818
16470SOL    HW249989   1.951   3.458   2.855 -0.5785  0.1171 -2.2723
16471SOL     OW49990   7.623   6.730   7.989  0.1392  0.0932 -0.4035
16471SOL    HW149991   7.587   6.753   7.903 -1.5981 -1.2576 -0.0912
16471SOL    HW249992   7.697   6.790   8.000  0.6114  0.1175 -2.9514
16472SOL     OW49993   8.975   8.430   4.621  0.2378 -0.2658 -0.1699
16472SOL    HW149994   8.881   8.417   4.605  0.1163  0.6504 -0.3023
16472SOL    HW249995   8.997   8.507   4.569  1.1349 -0.6346 -0.3516
16473SOL     OW49996   8.761   4.744   1.893  0.1117  0.5898  0.3186
16473SOL    HW149997   8.728   4.771   1.808 -1.1208  0.3514  0.6954
16473SOL    HW249998   8.727   4.810   1.954  0.6080  0.5151  0.6768
16474SOL     OW49999   8.144   8.228   5.038 -0.1616  0.9010  0.5562
16474SOL    HW150000   8.130   8.244   4.945  0.3300 -1.6560 -0.0507
16474SOL    HW250001   8.238   8.210   5.046 -0.1559  1.3067  1.5974
16475SOL     OW50002   7.274   3.567   1.958  0.1005  0.0106  0.1371
16475SOL    HW150003   7.326   3.591   2.035  1.6023 -3.4197  0.3739
16475SOL    HW250004   7.339   3.535   1.895 -1.2722  0.9892 -1.8914
16476SOL     OW50005   4.038   2.865   0.580 -0.2605  0.2499  0.1755
16476SOL    HW150006   3.982   2.790   0.562 -1.7425  1.2698  0.3921
16476SOL    HW250007   4.022   2.886   0.672  0.6128  0.4768  0.2912
16477SOL     OW50008   8.481   9.730   9.954 -0.1811 -0.0713 -0.0304
16477SOL    HW150009   8.547   9.751   9.888  1.0475  1.1411  1.4993
16477SOL    HW250010   8.531   9.714  10.034 -1.6818 -0.2442  0.9229
16478SOL     OW50011   9.026   1.568   4.386  0.5660 -0.3232  0.5586
16478SOL    HW150012   8.988   1.546   4.301  2.0769 -2.3288  0.3245
16478SOL    HW250013   9.006   1.492   4.441 -0.5692  1.0183  2.1130
16479SOL     OW50014   7.802   6.472   3.333  0.0420 -0.2800 -0.3342
16479SOL    HW150015   7.763   6.465   3.420  1.3264  0.3099  0.3194
16479SOL    HW250016   7.729   6.457   3.272 -0.9600 -0.2673  0.8307
16480SOL     OW50017   9.504   9.378   2.436  0.3312  0.2352  0.3961
16480SOL    HW150018   9.495   9.302   2.378 -0.4224 -0.4760  1.3995
16480SOL    HW250019   9.598   9.394   2.441  0.4698 -0.3397 -0.1952
16481SOL     OW50020   3.251   2.049   8.546  0.6169 -0.4390  0.5938
16481SOL    HW150021   3.253   2.083   8.635 -2.1044 -0.2806  0.6947
16481SOL    HW250022   3.271   2.126   8.491 -0.1860  0.0811  1.0068
16482SOL     OW50023   5.505   5.157   1.099  0.1851  0.3980 -0.0355
16482SOL    HW150024   5.549   5.242   1.114 -0.3165  1.0887 -2.1413
16482SOL    HW250025   5.568   5.107   1.047  0.7675 -0.8731  1.7590
16483SOL     OW50026   2.475   1.628   2.480 -0.3912 -0.4280  0.1980
16483SOL    HW150027   2.479   1.559   2.547  2.4600 -0.5959 -0.0031
16483SOL    HW250028   2.491   1.582   2.398  0.6029  0.3231 -0.0481
16484SOL     OW50029   2.238   7.749   5.656  0.1481  0.0825  0.4484
16484SOL    HW150030   2.237   7.747   5.560  1.7990  2.0523  0.3140
16484SOL    HW250031   2.146   7.758   5.681 -0.2033  1.1264 -1.0483
16485SOL     OW50032   4.681   7.845   0.367  0.1183  0.1508 -0.5692
16485SOL    HW150033   4.598   7.862   0.413  0.1486 -2.5281  0.6849
16485SOL    HW250034   4.665   7.875   0.278 -1.7390  0.9148 -0.0440
16486SOL     OW50035   6.430   1.493   7.729 -0.7182 -0.1393  0.0536
16486SOL    HW150036   6.401   1.527   7.814  1.2114 -0.5935  0.9428
16486SOL    HW250037   6.429   1.569   7.671 -4.1108 -0.2073 -0.1826
16487SOL     OW50038   8.152   9.276   7.227  0.2185 -0.1896  0.7494
16487SOL    HW150039   8.168   9.182   7.232 -0.9940 -0.4283  0.5822
16487SOL    HW250040   8.239   9.316   7.227  0.7530 -1.3175  0.5916
16488SOL     OW50041   3.988   3.843   7.199 -0.2270  0.3271  0.6222
16488SOL    HW150042   3.980   3.813   7.108  0.4007 -1.0170  1.0018
16488SOL    HW250043   4.036   3.774   7.244 -0.0816  1.2087  1.8802
16489SOL     OW50044   2.132   0.620   8.708  0.3949 -0.0045 -0.7708
16489SOL    HW150045   2.200   0.559   8.681  1.1296  0.8284 -0.8425
16489SOL    HW250046   2.145   0.630   8.802 -0.1371 -0.4445 -0.6447
16490SOL     OW50047   7.540   9.654   0.601  0.0952  0.0636 -0.8080
16490SOL    HW150048   7.513   9.725   0.660  1.6016  0.1855 -0.2096
16490SOL    HW250049   7.474   9.586   0.614  0.1763  0.2342  0.7799
16491SOL     OW50050   0.578   0.269   5.159 -0.1859  0.1729  0.5350
16491SOL    HW150051   0.489   0.301   5.174  0.2174  0.8483  1.6721
16491SOL    HW250052   0.584   0.253   5.065 -2.0362 -1.5304  0.6406
16492SOL     OW50053   3.884   8.456   6.088  0.1221 -0.1574  0.2120
16492SOL    HW150054   3.863   8.541   6.050 -2.9518 -1.4859 -1.3985
16492SOL    HW250055   3.918   8.477   6.175 -0.6705  2.6969 -0.0575
16493SOL     OW50056   7.857   9.492   2.292  0.0187 -0.0214  0.3716
16493SOL    HW150057   7.808   9.566   2.255  0.1424  0.3232  0.8768
16493SOL    HW250058   7.856   9.425   2.224 -2.3848 -0.5843  0.8852
16494SOL     OW50059   8.410   4.692   2.376 -0.5215  0.3294  0.3649
16494SOL    HW150060   8.361   4.770   2.350 -0.6418 -0.3904 -1.7317
16494SOL    HW250061   8.348   4.620   2.367  0.4669 -0.4116 -0.8917
16495SOL     OW50062   0.271   0.023   3.887  0.1305 -0.3255 -0.0886
16495SOL    HW150063   0.296   0.059   3.973 -0.1277 -0.9981  0.2725
16495SOL    HW250064   0.327   0.070   3.825 -2.4780  3.3090 -0.0579
16496SOL     OW50065   6.062   2.303   2.605 -0.1468 -0.8301  0.1494
16496SOL    HW150066   6.069   2.336   2.694  0.6468  2.9375 -1.1151
16496SOL    HW250067   5.980   2.254   2.603 -0.5138 -0.4260  2.7360
16497SOL     OW50068   9.769   2.196   1.179  0.4946 -0.4386  0.0743
16497SOL    HW150069   9.707   2.196   1.252  1.4707  0.6205  0.9378
16497SOL    HW250070   9.849   2.157   1.215  0.6787 -0.8211 -0.7238
16498SOL     OW50071   3.741   9.172   7.849 -0.0364 -0.1577  0.4509
16498SOL    HW150072   3.784   9.191   7.932  0.3993 -1.7132  0.5980
16498SOL    HW250073   3.707   9.084   7.858  1.1595 -0.8958 -1.4473
16499SOL     OW50074   1.153   5.513   2.815  0.4182 -0.2072 -0.5662
16499SOL    HW150075   1.116   5.424   2.821 -1.2933  0.5517  1.6213
16499SOL    HW250076   1.239   5.506   2.856  0.6203 -0.9833 -1.0897
16500SOL     OW50077   1.531   8.499   9.829  0.6356  0.3020  0.1927
16500SOL    HW150078   1.595   8.436   9.795 -0.0010  0.2161 -0.8885
16500SOL    HW250079   1.464   8.445   9.871  0.2017  0.2497 -0.5433
16501SOL     OW50080   5.255   6.400   0.467 -0.1357  0.4569 -0.8217
16501SOL    HW150081   5.179   6.381   0.411 -0.3308  0.3075 -0.5090
16501SOL    HW250082   5.316   6.445   0.409  1.6254 -3.5695 -2.5026
16502SOL     OW50083   2.640   7.843   4.919  0.1878  0.3144 -0.5582
16502SOL    HW150084   2.585   7.919   4.937 -0.0489 -0.0137  0.1471
16502SOL    HW250085   2.699   7.837   4.994  0.1396 -0.2498 -0.5575
16503SOL     OW50086   7.290   3.697   8.422 -0.1382 -0.0914 -0.4632
16503SOL    HW150087   7.209   3.659   8.386 -0.6982  0.7138 -0.0740
16503SOL    HW250088   7.343   3.716   8.345  0.3287 -1.9711 -0.6746
16504SOL     OW50089   1.814   2.167   5.250 -0.3294  0.3159 -0.1094
16504SOL    HW150090   1.837   2.134   5.163  0.0951  0.4739 -0.0606
16504SOL    HW250091   1.898   2.196   5.287 -0.6398  1.1226 -0.0170
16505SOL     OW50092   8.882   6.039   9.802 -0.6667  0.2757  0.1225
16505SOL    HW150093   8.884   6.126   9.840 -0.3718 -0.1684  1.1774
16505SOL    HW250094   8.883   6.053   9.708 -0.3997  1.3953  0.2835
16506SOL     OW50095   6.894   4.237   2.967 -0.3084 -1.0078 -0.8685
16506SOL    HW150096   6.825   4.172   2.952  1.3295 -2.5894 -1.8983
16506SOL    HW250097   6.857   4.297   3.032 -2.0816 -2.6560 -0.2810
16507SOL     OW50098   3.312   0.069   4.954  0.3234 -0.2086 -0.0386
16507SOL    HW150099   3.287   0.159   4.936  1.0338  0.1606  0.7165
16507SOL    HW250100   3.354   0.072   5.040  1.8039 -0.9704 -0.6877
16508SOL     OW50101   7.846   6.302   4.045 -0.4005  0.4290  0.1444
16508SOL    HW150102   7.913   6.315   3.978 -1.1339  1.0011 -0.5002
16508SOL    HW250103   7.881   6.343   4.123  0.0511  0.6107 -0.1508
16509SOL     OW50104   7.641   6.467   0.685  0.0109 -0.3836 -0.0516
16509SOL    HW150105   7.726   6.485   0.645 -1.0350  0.2531 -2.1205
16509SOL    HW250106   7.611   6.387   0.643 -0.4830 -0.5370  0.5755
16510SOL     OW50107   5.143   7.236   4.140  0.1360  0.6054  0.2649
16510SOL    HW150108   5.126   7.318   4.188  0.6484  0.1142  1.3309
16510SOL    HW250109   5.225   7.253   4.094  0.1179  0.7789  0.2951
16511SOL     OW50110   5.607   6.509   4.216  0.0735  0.5551  0.2126
16511SOL    HW150111   5.541   6.518   4.148 -0.8951 -0.4665  0.9917
16511SOL    HW250112   5.643   6.598   4.225 -0.1121  0.8107 -1.2640
16512SOL     OW50113   8.817   4.178   2.422  0.6768  0.2919 -0.1041
16512SOL    HW150114   8.810   4.084   2.440  0.2824  0.2571 -0.4233
16512SOL    HW250115   8.729   4.203   2.395  1.1527  0.4229 -1.6083
16513SOL     OW50116   6.213   5.937   5.893  0.6208  0.6822 -0.7931
16513SOL    HW150117   6.307   5.941   5.878  0.9130  1.5064  0.9795
16513SOL    HW250118   6.195   5.844   5.909  1.3306  0.6521 -0.1225
16514SOL     OW50119   7.603   6.400   0.333  0.6396  0.0269  0.4053
16514SOL    HW150120   7.598   6.351   0.415 -2.1088  0.4859  0.6183
16514SOL    HW250121   7.568   6.340   0.268  0.2045  0.6121  0.0914
16515SOL     OW50122   2.057   1.294   8.809 -0.4071  0.4144  0.1177
16515SOL    HW150123   2.140   1.331   8.778 -0.2831  0.5522  0.5954
16515SOL    HW250124   2.069   1.199   8.802 -0.1948  0.4329  0.2151
16516SOL     OW50125   8.532   5.929   6.604 -0.6090  0.2908 -0.5234
16516SOL    HW150126   8.464   5.862   6.610  0.7744 -1.1534 -0.3205
16516SOL    HW250127   8.601   5.890   6.550 -0.0459  1.8288 -1.0015
16517SOL     OW50128   7.270   4.576   6.833 -0.7195 -0.4751 -0.1968
16517SOL    HW150129   7.191   4.525   6.812 -0.8539 -0.3444 -0.0085
16517SOL    HW250130   7.269   4.647   6.769 -1.2323  0.0315  0.3653
16518SOL     OW50131   5.515   1.949   3.526  0.0647  0.0095 -0.5011
16518SOL    HW150132   5.568   1.913   3.598 -0.6074 -1.6160 -0.7792
16518SOL    HW250133   5.494   2.038   3.554 -0.4630 -0.6917  1.4997
16519SOL     OW50134   1.737   8.308   9.335 -0.1388 -0.2999  0.2406
16519SOL    HW150135   1.693   8.223   9.337 -2.2523  0.7281 -0.0631
16519SOL    HW250136   1.830   8.287   9.340 -0.6187 -2.6090  0.4538
16520SOL     OW50137   1.069   4.079   4.867 -0.0079  0.3943 -0.0454
16520SOL    HW150138   1.085   4.153   4.808 -0.2355  1.2700  0.9690
16520SOL    HW250139   0.998   4.109   4.925 -0.5320 -0.8496 -0.0140
16521SOL     OW50140   9.730   0.624   9.128  0.3220  0.8642 -0.7736
16521SOL    HW150141   9.713   0.530   9.123 -1.5028  1.0985  0.3190
16521SOL    HW250142   9.794   0.632   9.200 -1.4278  0.6147  0.8992
16522SOL     OW50143   8.846   3.342   1.858 -1.1898 -0.7401 -0.4317
16522SOL    HW150144   8.766   3.374   1.816 -1.7223 -0.6843  0.5959
16522SOL    HW250145   8.835   3.364   1.951  0.6294  0.5426 -0.4510
16523SOL     OW50146   0.134   5.348   7.859  0.5010  0.6328 -0.0750
16523SOL    HW150147   0.075   5.296   7.912 -0.6926 -0.1021 -2.0185
16523SOL    HW250148   0.209   5.365   7.916 -0.4401 -0.5761  1.6129
16524SOL     OW50149   5.877   8.321   7.864 -0.2415  0.2605  0.3013
16524SOL    HW150150   5.813   8.374   7.816 -1.1267  1.3629  2.5304
16524SOL    HW250151   5.823   8.266   7.922  0.7763 -1.1063  0.0056
16525SOL     OW50152   4.578   5.444   0.362  0.5920  0.1491 -0.2887
16525SOL    HW150153   4.619   5.510   0.306  1.4564  0.1610  0.3338
16525SOL    HW250154   4.501   5.415   0.313  1.5073 -0.0904 -1.6288
16526SOL     OW50155   4.999   8.635   1.578 -0.3014  0.0875  0.4238
16526SOL    HW150156   5.063   8.629   1.508 -0.3812 -1.1695  0.4382
16526SOL    HW250157   4.928   8.577   1.551 -1.3000  1.2029  0.5632
16527SOL     OW50158   1.766   5.092   0.794  0.2607 -0.5355  0.6953
16527SOL    HW150159   1.764   5.034   0.718 -0.3895  0.0336  0.2754
16527SOL    HW250160   1.807   5.039   0.863  0.8362 -1.0639 -0.0350
16528SOL     OW50161   6.537   8.119   2.384  0.2483 -0.3918 -0.2855
16528SOL    HW150162   6.555   8.093   2.294 -0.6170 -1.7943 -0.0924
16528SOL    HW250163   6.570   8.047   2.437  1.2324  0.6582  0.5849
16529SOL     OW50164   0.258   5.706   0.442 -0.0146  0.3165  0.3379
16529SOL    HW150165   0.226   5.644   0.508 -1.1349 -0.4926 -0.9152
16529SOL    HW250166   0.316   5.655   0.387  0.5402  0.8653  0.4062
16530SOL     OW50167   2.743   6.937   3.630  0.1400  0.0627 -0.0180
16530SOL    HW150168   2.688   6.871   3.588  0.1525  0.2278 -0.2934
16530SOL    HW250169   2.823   6.940   3.578  0.1301  0.3091 -0.0219
16531SOL     OW50170   5.529   2.030   9.400  0.3916 -0.2959 -0.9356
16531SOL    HW150171   5.534   1.934   9.398  2.8897 -0.2301 -0.9854
16531SOL    HW250172   5.578   2.058   9.323  0.6798  1.0114 -0.3038
16532SOL     OW50173   6.530   5.223   9.040  0.3675 -0.2990 -0.0136
16532SOL    HW150174   6.580   5.142   9.040 -0.5246 -0.9080 -1.7748
16532SOL    HW250175   6.439   5.195   9.050  0.2745  0.8535  4.4650
16533SOL     OW50176   0.680   1.975   3.899  0.5352  0.1096 -0.1970
16533SOL    HW150177   0.585   1.974   3.916  0.4415 -1.5516 -0.6703
16533SOL    HW250178   0.690   2.032   3.823 -0.0587  0.3796 -0.0810
16534SOL     OW50179   3.198   9.587   8.382  0.1079  0.4948  0.7227
16534SOL    HW150180   3.107   9.618   8.383  0.2101  0.8951 -0.6006
16534SOL    HW250181   3.218   9.576   8.289  1.7131  1.2666  0.9583
16535SOL     OW50182   5.227   5.333   0.185 -0.3696 -0.1191  0.7846
16535SOL    HW150183   5.201   5.396   0.251 -1.2048  1.2330 -0.7656
16535SOL    HW250184   5.308   5.368   0.149 -0.3543 -0.4046  0.5353
16536SOL     OW50185   7.698   0.135   3.719  0.0930  0.6047 -0.3125
16536SOL    HW150186   7.653   0.080   3.654  1.0316  0.5152 -0.9074
16536SOL    HW250187   7.637   0.205   3.738  0.2944  1.3953 -2.3217
16537SOL     OW50188   5.930   1.301   6.681  0.0021  0.2272 -0.0603
16537SOL    HW150189   5.968   1.261   6.759  1.1082  0.7788 -0.2919
16537SOL    HW250190   5.836   1.299   6.696  0.1093 -1.0935  0.5850
16538SOL     OW50191   0.924   3.002   6.742 -0.0414  0.3332  0.2714
16538SOL    HW150192   0.887   2.988   6.655  0.1358  1.4406  0.0071
16538SOL    HW250193   0.857   2.968   6.802 -0.2283 -0.3027 -0.2793
16539SOL     OW50194   1.733   7.895   7.822 -0.5233 -0.6820 -0.0886
16539SOL    HW150195   1.812   7.927   7.779 -0.7777 -1.0032 -0.8197
16539SOL    HW250196   1.761   7.818   7.871  0.2876  1.1022  2.4488
16540SOL     OW50197   4.145   9.124   0.125  0.2893  0.5353 -0.4013
16540SOL    HW150198   4.090   9.076   0.063 -1.2018  1.0653  0.4575
16540SOL    HW250199   4.233   9.116   0.090 -0.3144 -0.4187 -1.7907
16541SOL     OW50200   4.263   7.129   2.254  0.5878  0.0137  0.1200
16541SOL    HW150201   4.265   7.036   2.231  0.6918 -0.3604  1.5453
16541SOL    HW250202   4.356   7.153   2.260  0.5615  0.2735 -0.4478
16542SOL     OW50203   3.870   6.329   4.439  0.6775 -0.2693  0.2152
16542SOL    HW150204   3.872   6.399   4.504 -0.0364  0.5684 -0.6418
16542SOL    HW250205   3.816   6.261   4.479 -0.5657  0.6311  0.1554
16543SOL     OW50206   6.552   5.689   6.587 -0.3177 -0.7484 -0.4727
16543SOL    HW150207   6.582   5.698   6.677 -1.8202 -0.6463  0.0462
16543SOL    HW250208   6.534   5.778   6.557  1.9398 -0.5962 -1.5481
16544SOL     OW50209   1.432   8.754   8.382 -0.0426  0.1910  0.0917
16544SOL    HW150210   1.423   8.659   8.379  1.4591 -0.0346  1.5150
16544SOL    HW250211   1.526   8.769   8.388 -0.3051  1.7464  0.7127
16545SOL     OW50212   6.296   8.807   1.068 -0.5164  0.2388  0.3146
16545SOL    HW150213   6.306   8.776   1.158  1.0307 -0.9490 -0.2347
16545SOL    HW250214   6.374   8.860   1.052 -1.0181  0.8398 -0.1874
16546SOL     OW50215   8.952   2.281   4.623 -0.2064 -0.0259 -0.1258
16546SOL    HW150216   9.011   2.211   4.595 -0.1136  0.5840 -1.4862
16546SOL    HW250217   8.958   2.347   4.555 -1.0196  0.9044  0.6716
16547SOL     OW50218   1.383   1.158   4.174  0.2888 -0.2366  0.4021
16547SOL    HW150219   1.383   1.254   4.170  0.9204 -0.2546 -0.1503
16547SOL    HW250220   1.443   1.131   4.104 -0.3991 -1.0524  0.1077
16548SOL     OW50221   4.922   4.471   3.202 -0.1640 -0.5093  0.1388
16548SOL    HW150222   4.863   4.540   3.233 -0.5816 -1.4374  1.5371
16548SOL    HW250223   4.966   4.509   3.126 -2.6828  0.1731 -1.0962
16549SOL     OW50224   6.005   3.183   4.247  0.5049  0.7782  0.2889
16549SOL    HW150225   6.067   3.255   4.251 -0.4338  1.5457  1.2472
16549SOL    HW250226   5.949   3.194   4.323  0.3269 -0.9577  0.4494
16550SOL     OW50227   1.939   8.470   5.341 -0.6462 -0.4879  0.0788
16550SOL    HW150228   1.971   8.401   5.284 -2.9756 -0.8429 -0.9284
16550SOL    HW250229   1.926   8.428   5.426  1.6464 -0.2575  0.6116
16551SOL     OW50230   4.248   1.826   6.254 -0.4063  0.5224 -0.2787
16551SOL    HW150231   4.276   1.744   6.212 -0.5078  1.0995 -1.5003
16551SOL    HW250232   4.328   1.878   6.259 -0.5045  0.6694 -0.2451
16552SOL     OW50233   8.251   6.725   9.192  0.0401  0.0528  0.2913
16552SOL    HW150234   8.196   6.760   9.262 -0.0561 -0.0409  0.2626
16552SOL    HW250235   8.192   6.718   9.117 -0.2578 -1.3442  0.6245
16553SOL     OW50236   7.130   9.889   0.501 -0.2757  0.1224  0.6304
16553SOL    HW150237   7.224   9.884   0.489 -0.2639  0.5590  0.5232
16553SOL    HW250238   7.093   9.858   0.418 -0.2659 -2.1414  1.4076
16554SOL     OW50239   3.430   8.308   6.214 -0.3120  0.4131 -0.3823
16554SOL    HW150240   3.493   8.338   6.149 -0.8491  3.1864  0.2437
16554SOL    HW250241   3.481   8.250   6.271  1.1957  1.0908 -0.9679
16555SOL     OW50242   3.831   6.536   0.145 -0.3308 -0.4819  0.1282
16555SOL    HW150243   3.839   6.617   0.095  1.7787 -0.9304 -0.3498
16555SOL    HW250244   3.908   6.534   0.201 -1.8200 -0.7853  2.3003
16556SOL     OW50245   2.046   2.855   7.873  0.0870  0.7670 -0.1040
16556SOL    HW150246   2.061   2.787   7.807  0.9113  0.0331  0.7909
16556SOL    HW250247   2.124   2.911   7.867  0.0200  0.8756  0.0332
16557SOL     OW50248   7.401   3.918   5.357 -0.2933  0.0069 -0.2697
16557SOL    HW150249   7.455   3.840   5.371 -1.2038 -0.8527 -1.4202
16557SOL    HW250250   7.312   3.889   5.375 -0.7503  0.5048 -1.6624
16558SOL     OW50251   6.749   9.039   3.311 -0.2030 -0.1461 -0.2793
16558SOL    HW150252   6.701   8.961   3.340 -0.5644  0.3512  0.4990
16558SOL    HW250253   6.821   9.047   3.373  1.3738 -1.3087 -1.8725
16559SOL     OW50254   5.036   3.357   3.641 -0.6780  0.4391  0.1443
16559SOL    HW150255   5.005   3.436   3.685  0.0002  0.8178 -0.0428
16559SOL    HW250256   4.958   3.303   3.631 -1.1693  1.1276  0.1930
16560SOL     OW50257   0.797   6.269   0.802 -0.3074 -0.4517  0.8928
16560SOL    HW150258   0.842   6.272   0.717  0.8025 -2.0062  1.3815
16560SOL    HW250259   0.810   6.356   0.839  0.5186 -0.2289  0.1212
16561SOL     OW50260   2.737   4.509   7.115  0.0335 -0.0601 -0.4371
16561SOL    HW150261   2.747   4.449   7.189  0.0476  1.1416  0.5509
16561SOL    HW250262   2.802   4.478   7.051 -0.6838 -1.7467 -0.4204
16562SOL     OW50263   6.479   0.420   7.682  0.0554  0.3136  0.3854
16562SOL    HW150264   6.552   0.481   7.673  0.5584 -0.4078 -0.6560
16562SOL    HW250265   6.510   0.355   7.746  1.1479 -1.0629 -1.4268
16563SOL     OW50266   7.162   6.507   6.555 -0.4646  0.1418 -0.3868
16563SOL    HW150267   7.216   6.488   6.478 -2.6652 -1.6322 -1.6015
16563SOL    HW250268   7.156   6.423   6.601 -1.0754  0.6483  0.4832
16564SOL     OW50269   4.509   9.868   2.948 -0.5145 -0.1079 -0.4299
16564SOL    HW150270   4.418   9.886   2.924 -0.8769  0.0582  0.9938
16564SOL    HW250271   4.506   9.848   3.042  0.9066 -0.2009 -0.3822
16565SOL     OW50272   0.347   8.400   0.378 -0.1497 -0.1368  0.1350
16565SOL    HW150273   0.268   8.455   0.386  0.5261  0.9791 -0.5595
16565SOL    HW250274   0.322   8.330   0.318  0.0294  1.5311 -2.0094
16566SOL     OW50275   4.704   4.088   2.102 -0.6539  0.0398  0.9472
16566SOL    HW150276   4.642   4.017   2.117  0.7970 -1.4296  0.2656
16566SOL    HW250277   4.669   4.134   2.025 -0.3574 -1.4865 -0.1602
16567SOL     OW50278   8.997   3.868   0.379 -0.6215  0.0728  0.4081
16567SOL    HW150279   9.072   3.917   0.346 -1.2333  1.7249  1.2987
16567SOL    HW250280   8.934   3.870   0.307  0.5151 -2.2819 -0.7620
16568SOL     OW50281   8.509   9.892   3.460 -0.4525 -0.3408 -0.0467
16568SOL    HW150282   8.519   9.983   3.434  0.4431 -0.1055  1.0796
16568SOL    HW250283   8.582   9.875   3.519 -0.1787 -2.0067 -0.7987
16569SOL     OW50284   8.465   6.637   3.716 -0.2768 -0.0676 -0.3632
16569SOL    HW150285   8.456   6.732   3.712 -2.3043 -0.1815  0.3428
16569SOL    HW250286   8.441   6.606   3.629 -0.4063  0.0093 -0.3537
16570SOL     OW50287   8.921   2.447   7.902  0.0175  0.0844  0.0998
16570SOL    HW150288   8.850   2.436   7.966  0.9832  0.4703  1.2722
16570SOL    HW250289   8.889   2.513   7.841 -1.7375 -1.7160 -1.0438
16571SOL     OW50290   6.236   4.979   9.936 -0.2263 -0.6462  0.4872
16571SOL    HW150291   6.176   5.013   9.870 -0.5266  0.8052  1.4885
16571SOL    HW250292   6.316   4.959   9.886 -0.7092 -0.3294 -0.4432
16572SOL     OW50293   0.840   1.401   3.603 -0.0521  0.4204  0.3463
16572SOL    HW150294   0.792   1.447   3.534  0.9060 -0.5762 -1.0272
16572SOL    HW250295   0.811   1.310   3.595 -2.1899  0.7001  3.2507
16573SOL     OW50296   9.272   2.605   9.885 -0.0190 -0.0318  0.3499
16573SOL    HW150297   9.327   2.614   9.962  0.4813  0.0273 -0.0079
16573SOL    HW250298   9.295   2.520   9.849  1.4691  0.8830 -1.0266
16574SOL     OW50299   1.384   8.030   1.731  0.0783 -0.1607  0.4407
16574SOL    HW150300   1.415   8.025   1.640 -1.7047 -1.0913 -0.1614
16574SOL    HW250301   1.289   8.041   1.723 -0.0254  0.5988  2.2113
16575SOL     OW50302   5.131   1.087   1.143  0.0509  0.1865 -0.1646
16575SOL    HW150303   5.117   1.065   1.050 -0.4042 -2.1923  0.3941
16575SOL    HW250304   5.224   1.070   1.157 -0.1893 -1.0287  0.1335
16576SOL     OW50305   3.622   4.560   2.629  0.3736 -0.4709 -0.1539
16576SOL    HW150306   3.604   4.470   2.657  0.8816 -0.4395  0.2910
16576SOL    HW250307   3.693   4.589   2.686 -1.1809  0.9559  1.1804
16577SOL     OW50308   5.753   6.205   8.775  0.0176  0.2715 -0.2272
16577SOL    HW150309   5.752   6.176   8.684  2.2760  0.1049 -0.2516
16577SOL    HW250310   5.732   6.127   8.826  1.6513 -0.3860 -0.5064
16578SOL     OW50311   0.348   2.606   6.186 -0.6512  0.1866  0.1173
16578SOL    HW150312   0.334   2.683   6.131  1.0055 -0.1649 -0.8433
16578SOL    HW250313   0.439   2.612   6.214 -0.7976 -0.8897  0.8769
16579SOL     OW50314   9.565   8.740   2.675  0.2095 -0.2228  0.0820
16579SOL    HW150315   9.655   8.709   2.687  0.3582  0.8207  2.1949
16579SOL    HW250316   9.511   8.663   2.692  0.6784 -0.8458 -1.1488
16580SOL     OW50317   7.959   9.326   9.079 -0.1430 -0.0736  0.1101
16580SOL    HW150318   7.969   9.397   9.016 -1.5286  0.6617  0.6806
16580SOL    HW250319   7.870   9.295   9.067 -1.4960  1.9408  3.5091
16581SOL     OW50320   7.869   6.026   4.319 -0.1246 -0.0531  0.0035
16581SOL    HW150321   7.831   6.030   4.232 -0.3146  0.5544  0.1128
16581SOL    HW250322   7.859   6.115   4.355  1.8080  0.2683 -0.1468
16582SOL     OW50323   3.342   5.471   6.178 -0.3004  0.0481  0.4214
16582SOL    HW150324   3.352   5.511   6.091  0.0972  2.2250  1.3913
16582SOL    HW250325   3.432   5.462   6.210 -0.4574 -0.4983  0.7104
16583SOL     OW50326   0.687   9.093   7.372 -0.3685 -0.1690  0.4630
16583SOL    HW150327   0.740   9.172   7.386 -0.6288  0.4491 -1.6883
16583SOL    HW250328   0.743   9.034   7.322 -0.8671 -0.5023  0.2859
16584SOL     OW50329   4.684   8.005   1.270 -0.1365 -0.0552 -0.3098
16584SOL    HW150330   4.634   8.014   1.350  2.1213  0.4859  1.1210
16584SOL    HW250331   4.773   7.985   1.299  0.6145 -0.5519 -2.7040
16585SOL     OW50332   2.638   2.911   3.766  0.3655  0.3917 -0.2804
16585SOL    HW150333   2.623   2.817   3.760  0.1457  0.2893  1.3963
16585SOL    HW250334   2.730   2.919   3.793  0.6083  0.6887 -1.1737
16586SOL     OW50335   9.710   4.602   1.339 -0.1645 -0.3562  0.0365
16586SOL    HW150336   9.766   4.626   1.266  0.6685  1.8395  1.3124
16586SOL    HW250337   9.623   4.632   1.313  0.4106  1.9099  0.5257
16587SOL     OW50338   2.970   6.970   0.747  0.0233  0.3980  0.2165
16587SOL    HW150339   2.885   7.008   0.727  0.2347  0.0739 -1.5417
16587SOL    HW250340   3.033   7.035   0.715  0.4537  0.7400  1.7096
16588SOL     OW50341   2.005   6.322   3.571 -0.2299  0.5402  0.6430
16588SOL    HW150342   2.045   6.409   3.579  0.5157  0.2247  0.4313
16588SOL    HW250343   1.977   6.317   3.480 -0.3980  0.6098  0.6906
16589SOL     OW50344   7.856   0.382   5.069  0.0577  0.2813 -0.2375
16589SOL    HW150345   7.787   0.444   5.092  0.2061  0.9236 -1.4379
16589SOL    HW250346   7.844   0.365   4.976  0.4889 -0.9234 -0.0943
16590SOL     OW50347   5.170   4.857   4.931 -0.5292  0.8089  0.1186
16590SOL    HW150348   5.104   4.834   4.866  0.1024  1.2328 -0.6825
16590SOL    HW250349   5.133   4.934   4.976 -0.6685  0.9197 -0.1870
16591SOL     OW50350   7.883   1.734   4.529  0.7572 -0.4576  0.4810
16591SOL    HW150351   7.810   1.776   4.574 -1.0390 -1.5047 -1.2909
16591SOL    HW250352   7.950   1.802   4.523 -1.6304  1.9101 -1.3998
16592SOL     OW50353   0.994   1.026   6.973  0.2396 -0.2961  0.4098
16592SOL    HW150354   0.967   1.064   6.890 -0.2158 -0.5173  0.4542
16592SOL    HW250355   1.032   1.099   7.022  2.4784 -0.5781 -0.7977
16593SOL     OW50356   2.795   1.794   2.075  0.0472 -0.1741 -0.2666
16593SOL    HW150357   2.868   1.852   2.052 -0.6711  0.4646 -1.0340
16593SOL    HW250358   2.834   1.707   2.078  0.6725  0.0167 -1.6471
16594SOL     OW50359   2.847   0.602   1.479  0.2376  0.0936 -0.8104
16594SOL    HW150360   2.916   0.660   1.449 -0.6391  0.7857 -1.5331
16594SOL    HW250361   2.802   0.573   1.400 -0.3039 -0.3547 -0.3561
16595SOL     OW50362   3.058   7.900   1.592  0.4944  0.0094  0.1177
16595SOL    HW150363   3.006   7.821   1.593  1.4050 -0.6333  2.3513
16595SOL    HW250364   3.005   7.964   1.544 -0.4438 -1.7936 -1.3300
16596SOL     OW50365   6.764   5.617   0.133 -0.1898 -1.1594  0.3649
16596SOL    HW150366   6.735   5.535   0.095  0.3887 -0.4694 -1.6583
16596SOL    HW250367   6.860   5.611   0.133 -0.1524 -0.6564  0.6267
16597SOL     OW50368   3.858   9.503   6.268  0.2507 -0.8352 -0.2213
16597SOL    HW150369   3.861   9.586   6.315  0.3749 -0.9588 -0.0053
16597SOL    HW250370   3.808   9.521   6.188 -0.9685 -0.8901  0.5020
16598SOL     OW50371   8.057   7.495   1.137 -0.6921  0.2841  0.2469
16598SOL    HW150372   7.965   7.513   1.155 -0.9416 -0.0786 -0.6052
16598SOL    HW250373   8.057   7.408   1.097 -0.0183  0.4386 -0.1069
16599SOL     OW50374   7.812   5.336   8.028 -0.6557  0.1465 -0.2097
16599SOL    HW150375   7.776   5.278   8.095  0.8403  0.8340  1.2355
16599SOL    HW250376   7.795   5.425   8.060 -0.3576  0.4975 -0.9813
16600SOL     OW50377   7.065   1.288   7.327  0.1789 -0.3909 -0.3386
16600SOL    HW150378   7.114   1.280   7.409 -0.9862  0.1805  0.4497
16600SOL    HW250379   7.012   1.209   7.323  1.5979 -1.3411 -1.5347
16601SOL     OW50380   3.083   9.911   0.462 -0.5296  0.3959  0.2743
16601SOL    HW150381   3.092   9.952   0.548 -1.4421 -0.6684  0.8949
16601SOL    HW250382   2.989   9.907   0.446 -0.3629  1.5850 -1.3012
16602SOL     OW50383   1.998   2.250   6.157  0.0153  0.2390 -0.0384
16602SOL    HW150384   1.939   2.197   6.212  0.0045 -0.6522 -0.8766
16602SOL    HW250385   1.940   2.310   6.111 -0.2337 -0.4319 -0.6325
16603SOL     OW50386   1.465   6.180   9.810 -0.2881 -0.0600 -0.1597
16603SOL    HW150387   1.457   6.095   9.767 -1.0042 -0.1890  0.2008
16603SOL    HW250388   1.454   6.160   9.903  1.3899  0.1978  0.1068
16604SOL     OW50389   1.771   9.557   0.016 -0.1735  0.0674  0.1364
16604SOL    HW150390   1.748   9.614   0.089  0.5443 -0.9560  1.1888
16604SOL    HW250391   1.700   9.494   0.011 -2.3324  2.4305 -2.6700
16605SOL     OW50392   1.385   2.278   0.647  0.4974  0.0680 -0.2346
16605SOL    HW150393   1.405   2.329   0.568 -0.2584 -1.1582 -1.2669
16605SOL    HW250394   1.444   2.203   0.643 -2.3374 -2.3246 -2.0609
16606SOL     OW50395   1.696   6.970   5.529  0.2492 -0.7017 -0.1581
16606SOL    HW150396   1.611   6.941   5.499 -1.2211 -0.4685  3.2537
16606SOL    HW250397   1.749   6.890   5.532 -1.1843 -1.6649  1.4601
16607SOL     OW50398   0.723   0.671   0.830  0.7277  0.1535  0.3254
16607SOL    HW150399   0.642   0.718   0.848  0.4629 -0.0184 -0.3771
16607SOL    HW250400   0.728   0.605   0.900  0.7039  0.7146  0.8613
16608SOL     OW50401   2.771   0.979   3.518 -0.1874  0.3225 -0.0127
16608SOL    HW150402   2.795   0.921   3.446  0.7825  0.3983  0.2320
16608SOL    HW250403   2.821   1.059   3.502 -0.8946  0.7909  0.0932
16609SOL     OW50404   9.491   1.745   9.638  0.8407 -0.0550 -0.4551
16609SOL    HW150405   9.463   1.836   9.628 -0.8412 -0.5211 -0.2085
16609SOL    HW250406   9.425   1.694   9.591  0.5007 -1.3065  1.2957
16610SOL     OW50407   5.271   0.985   6.988 -0.3487 -0.5127  0.7579
16610SOL    HW150408   5.284   1.078   6.969 -0.5940  0.3413  4.0563
16610SOL    HW250409   5.242   0.984   7.080 -0.9702 -3.8260  0.6322
16611SOL     OW50410   5.779   3.468   8.374  0.2163 -0.1301  0.0549
16611SOL    HW150411   5.741   3.385   8.404  0.2034 -0.2965 -0.4194
16611SOL    HW250412   5.709   3.532   8.386 -0.9640 -0.7688 -2.6455
16612SOL     OW50413   3.661   2.134   9.873  0.1388 -0.0726  0.1671
16612SOL    HW150414   3.634   2.175   9.790  0.4775  0.3781  0.2746
16612SOL    HW250415   3.588   2.077   9.896 -1.2967  2.0250  1.0759
16613SOL     OW50416   4.010   8.468   7.225  0.2302 -0.7793  0.0679
16613SOL    HW150417   4.005   8.373   7.220  0.6473 -0.7918 -0.0852
16613SOL    HW250418   3.931   8.499   7.181 -0.9260 -1.0871  1.8006
16614SOL     OW50419   9.678   8.459   5.666  0.1820 -0.5243 -0.0452
16614SOL    HW150420   9.621   8.428   5.595 -0.9498  0.4279  0.4014
16614SOL    HW250421   9.667   8.395   5.735  0.2921 -0.7821 -0.2655
16615SOL     OW50422   8.744   4.315   4.790  0.0168  0.3234 -0.4896
16615SOL    HW150423   8.702   4.395   4.759  2.0667  2.6121  2.1474
16615SOL    HW250424   8.697   4.293   4.871 -0.0811 -0.7863 -0.8298
16616SOL     OW50425   3.837   6.177   1.102 -0.0970 -0.4762  0.1012
16616SOL    HW150426   3.774   6.221   1.045  0.3005 -1.4354 -1.1477
16616SOL    HW250427   3.914   6.163   1.046  1.4768  1.1388  1.7264
16617SOL     OW50428   5.918   5.907   5.205 -0.1318 -0.4555  0.3508
16617SOL    HW150429   5.919   5.814   5.227 -2.0884 -0.3927  0.8286
16617SOL    HW250430   5.853   5.946   5.264 -0.0168  1.0492 -0.4629
16618SOL     OW50431   5.055   5.120   0.899 -0.1918  0.0124  0.1296
16618SOL    HW150432   5.048   5.024   0.896 -1.1871  0.0950 -0.6487
16618SOL    HW250433   4.986   5.147   0.960  0.1450  0.2434  0.4157
16619SOL     OW50434   0.922   4.214   0.447  0.0558 -0.3960 -0.2526
16619SOL    HW150435   0.852   4.261   0.402  0.6313 -1.1261 -2.0139
16619SOL    HW250436   0.932   4.259   0.531 -0.7504  1.3346 -1.0386
16620SOL     OW50437   0.843   7.249   2.609 -0.1180  0.0772 -0.5009
16620SOL    HW150438   0.845   7.303   2.530 -1.4758  0.3732 -0.3532
16620SOL    HW250439   0.787   7.297   2.670 -0.9984 -1.2722 -0.2007
16621SOL     OW50440   1.805   9.364   3.790  0.0148 -0.4132 -0.3028
16621SOL    HW150441   1.735   9.377   3.855 -0.2208  0.0475 -0.6453
16621SOL    HW250442   1.794   9.436   3.728  1.1375 -0.0240 -0.0640
16622SOL     OW50443   7.745   8.607   3.169  0.2777  0.0424 -0.7206
16622SOL    HW150444   7.771   8.699   3.174 -0.5448  0.2766 -0.4815
16622SOL    HW250445   7.766   8.572   3.256  2.0002 -0.4117 -1.2788
16623SOL     OW50446   7.186   2.648   6.532 -0.5707  0.4264  0.0037
16623SOL    HW150447   7.248   2.674   6.600  0.3507 -0.3410 -0.5060
16623SOL    HW250448   7.165   2.556   6.552  0.6651 -0.2020 -1.3889
16624SOL     OW50449   3.009   9.853   7.901  0.3035 -0.1648  0.2325
16624SOL    HW150450   3.057   9.793   7.844  0.1749  1.4932 -1.7287
16624SOL    HW250451   3.054   9.936   7.892 -1.2905  0.7773  0.4841
16625SOL     OW50452   5.364   0.208   0.667 -0.0738 -0.2495  0.3266
16625SOL    HW150453   5.435   0.209   0.603  0.2416 -0.8031  0.6611
16625SOL    HW250454   5.395   0.262   0.739  0.1959 -0.8350  0.6602
16626SOL     OW50455   6.618   7.084   3.703 -0.1295 -0.5327  0.1784
16626SOL    HW150456   6.561   7.018   3.741 -1.1970  0.3193  0.1291
16626SOL    HW250457   6.689   7.035   3.661 -0.4913 -1.5878  0.7827
16627SOL     OW50458   1.169   2.445   4.875 -0.0114 -0.3652 -0.3196
16627SOL    HW150459   1.181   2.414   4.964 -1.1740 -0.1240 -0.0611
16627SOL    HW250460   1.258   2.452   4.839  0.3990 -1.9643  0.2929
16628SOL     OW50461   1.224   0.326   7.669  0.4198  0.2810 -0.5201
16628SOL    HW150462   1.241   0.393   7.603  1.2249  1.3219  0.6751
16628SOL    HW250463   1.133   0.300   7.655  0.2440  1.2677 -1.3479
16629SOL     OW50464   1.890   0.311   6.161 -0.0239 -0.1582 -0.2997
16629SOL    HW150465   1.915   0.402   6.174  0.3820 -0.3695  0.4554
16629SOL    HW250466   1.803   0.304   6.201  0.6828 -0.5011  1.2545
16630SOL     OW50467   9.521   0.262   4.776 -0.3674 -0.1160  0.6149
16630SOL    HW150468   9.554   0.351   4.770  0.3799 -0.4459 -0.3339
16630SOL    HW250469   9.490   0.254   4.866 -0.1462  0.9962  0.7986
16631SOL     OW50470   8.696   7.372   9.369 -0.0357 -0.5347  0.0046
16631SOL    HW150471   8.701   7.278   9.388 -0.3951 -0.7218 -0.7941
16631SOL    HW250472   8.787   7.397   9.351 -0.2511 -1.4691 -3.0627
16632SOL     OW50473   4.601   6.635   4.490  0.0797  0.3611  0.1104
16632SOL    HW150474   4.555   6.630   4.574  1.3063 -1.2276  0.7313
16632SOL    HW250475   4.599   6.728   4.468 -1.5087  0.6271  1.1647
16633SOL     OW50476   7.602   7.646   5.350 -0.4983 -0.1048  0.3698
16633SOL    HW150477   7.533   7.668   5.413 -1.5866 -0.0154 -0.8151
16633SOL    HW250478   7.630   7.558   5.373 -2.4204 -0.9340 -0.3402
16634SOL     OW50479   8.126   0.374   0.940 -0.2827 -0.1197 -0.3931
16634SOL    HW150480   8.222   0.371   0.944 -0.2877  0.4903  1.3864
16634SOL    HW250481   8.106   0.439   0.872  0.6236  1.1553  0.5117
16635SOL     OW50482   5.860   2.273   3.557  0.5781  0.1247  0.2842
16635SOL    HW150483   5.821   2.203   3.505 -1.4042  0.0336  1.7774
16635SOL    HW250484   5.919   2.318   3.496  0.9289 -2.0195 -1.0573
16636SOL     OW50485   2.004   6.278   4.390 -0.0869 -0.0854 -0.0022
16636SOL    HW150486   2.100   6.279   4.389 -0.0244 -1.8687 -0.4418
16636SOL    HW250487   1.979   6.264   4.298 -0.7221 -0.4868  0.2210
16637SOL     OW50488   7.138   9.588   6.950  0.3867 -0.6564 -0.3114
16637SOL    HW150489   7.205   9.655   6.938  0.4561 -0.8284 -0.9525
16637SOL    HW250490   7.056   9.637   6.952  0.5568 -0.4006  0.9781
16638SOL     OW50491   0.068   9.188   1.982 -0.7782 -0.3186  0.4812
16638SOL    HW150492  -0.021   9.180   1.945 -0.5077  0.5282 -0.4000
16638SOL    HW250493   0.115   9.113   1.946  0.3048  1.9565 -3.4754
16639SOL     OW50494   5.934   1.851   2.293  0.6508  0.2469  0.6964
16639SOL    HW150495   5.920   1.775   2.350  0.7456 -1.0298 -0.8875
16639SOL    HW250496   6.018   1.834   2.251  0.4682  1.0099 -0.0072
16640SOL     OW50497   1.223   3.375   7.237  0.1458 -0.0629  0.4148
16640SOL    HW150498   1.249   3.400   7.149 -0.5495 -0.4777  0.0870
16640SOL    HW250499   1.212   3.280   7.233 -0.5590 -0.0026  0.7631
16641SOL     OW50500   2.386   3.790   8.170 -0.0204  0.2362 -0.0210
16641SOL    HW150501   2.438   3.866   8.145  1.5391 -0.7970 -0.0592
16641SOL    HW250502   2.351   3.756   8.087  1.2063 -0.4159 -0.2884
16642SOL     OW50503   8.718   4.658   6.790  0.1796 -0.2046  0.1887
16642SOL    HW150504   8.756   4.614   6.867 -2.0496 -1.8002  0.4713
16642SOL    HW250505   8.628   4.627   6.787  0.0198  0.3057 -2.7436
16643SOL     OW50506   6.329   5.277   8.775  0.3261  0.3267  0.3481
16643SOL    HW150507   6.237   5.252   8.772 -0.1819  2.1266 -0.5135
16643SOL    HW250508   6.329   5.372   8.770  2.2488  0.3622  0.0153
16644SOL     OW50509   1.915   0.744   7.619  0.2521 -0.0233  0.4089
16644SOL    HW150510   1.930   0.660   7.661  1.3405  0.0379  0.1832
16644SOL    HW250511   1.974   0.804   7.664  0.2524  0.3884 -0.1275
16645SOL     OW50512   9.723   6.438   6.619  0.3915 -0.3466  0.4673
16645SOL    HW150513   9.686   6.439   6.707 -0.8980  0.9329 -0.0578
16645SOL    HW250514   9.736   6.530   6.597 -0.1286 -0.6116 -1.0212
16646SOL     OW50515   1.383   1.823   7.118  0.2060 -0.3164 -0.3445
16646SOL    HW150516   1.322   1.837   7.191  0.6539 -2.0343  0.4175
16646SOL    HW250517   1.336   1.856   7.041 -0.6848  0.6349  0.5659
16647SOL     OW50518   7.055   9.015   5.789  0.2624 -0.5776  0.8557
16647SOL    HW150519   6.993   9.066   5.842  0.6255  1.3144 -0.4295
16647SOL    HW250520   7.001   8.975   5.721  0.2583 -0.0574  0.5478
16648SOL     OW50521   8.989   2.176   3.011  0.2888 -0.1704 -0.0882
16648SOL    HW150522   8.960   2.228   3.086  1.2540  0.3016 -0.0217
16648SOL    HW250523   9.080   2.204   2.996  0.2223 -0.4923 -1.2226
16649SOL     OW50524   5.615   1.882   3.784 -0.0749 -0.2214  0.1666
16649SOL    HW150525   5.699   1.927   3.773  1.1510 -2.2218  0.8364
16649SOL    HW250526   5.563   1.940   3.840  0.5019  1.4215 -0.9037
16650SOL     OW50527   0.361   8.846   5.192  0.0244  0.0506 -0.5063
16650SOL    HW150528   0.308   8.774   5.158 -0.6048  0.2997 -0.0644
16650SOL    HW250529   0.437   8.803   5.232  0.7531 -0.2566 -2.1251
16651SOL     OW50530   9.988   9.816   8.156 -0.2240  0.3808 -0.1987
16651SOL    HW150531   9.897   9.829   8.131 -0.0986  0.5849 -0.5601
16651SOL    HW250532   9.990   9.830   8.251 -0.4057  1.3252 -0.3226
16652SOL     OW50533   5.799   2.171   4.100 -0.4456  0.5594  0.0765
16652SOL    HW150534   5.878   2.125   4.074 -1.0291  0.6527 -2.1586
16652SOL    HW250535   5.739   2.103   4.129 -0.9636 -0.0820 -2.2855
16653SOL     OW50536   5.330   1.643   7.577  0.5877 -0.3887  0.2528
16653SOL    HW150537   5.333   1.722   7.523 -1.8264 -0.4593 -0.0890
16653SOL    HW250538   5.353   1.572   7.517  0.4133 -0.1909 -0.0511
16654SOL     OW50539   0.652   0.323   4.910 -0.1320 -0.7411 -0.2335
16654SOL    HW150540   0.735   0.330   4.864 -0.5887 -2.5502 -1.4582
16654SOL    HW250541   0.608   0.406   4.894  1.1055 -0.0508 -0.1785
16655SOL     OW50542   6.329   7.128   6.538 -0.2117  0.1068 -0.0312
16655SOL    HW150543   6.293   7.062   6.598 -1.0852 -0.0161 -0.6715
16655SOL    HW250544   6.354   7.201   6.595  1.7165 -1.1516  0.8046
16656SOL     OW50545   4.237   6.595   5.810  0.2096  0.1414 -0.6151
16656SOL    HW150546   4.316   6.570   5.761 -0.8590 -2.8374 -1.0200
16656SOL    HW250547   4.184   6.643   5.747  0.5490 -0.2497 -1.2152
16657SOL     OW50548   6.540   2.538   1.408 -0.2166  0.2280  0.2445
16657SOL    HW150549   6.598   2.492   1.469 -0.8765  0.8701  1.3887
16657SOL    HW250550   6.586   2.619   1.388  0.0166  0.0008 -0.1596
16658SOL     OW50551   5.794   4.369   2.908 -0.6254  0.6319 -0.2192
16658SOL    HW150552   5.703   4.394   2.888 -0.1073  2.8850 -0.0610
16658SOL    HW250553   5.836   4.451   2.934  1.1992 -0.5564  0.7942
16659SOL     OW50554   7.525   4.147   4.911 -0.2527 -0.5369  0.2038
16659SOL    HW150555   7.435   4.177   4.927 -0.7134 -1.5743 -0.3067
16659SOL    HW250556   7.515   4.072   4.852  1.1135  0.7214 -1.7306
16660SOL     OW50557   1.012   3.411   4.628 -0.2029  1.2032  0.3593
16660SOL    HW150558   0.938   3.443   4.577  0.5306 -1.6943 -2.9086
16660SOL    HW250559   1.087   3.460   4.595  0.2038 -0.3660 -1.2033
16661SOL     OW50560   0.241   2.245   7.504 -0.1364 -0.0590 -0.1373
16661SOL    HW150561   0.249   2.201   7.589 -0.2482 -1.0477 -0.6136
16661SOL    HW250562   0.191   2.324   7.522 -2.5146 -1.5535  0.3264
16662SOL     OW50563   0.821   1.331   9.172  0.2563 -0.0147 -0.0180
16662SOL    HW150564   0.762   1.325   9.096 -0.2285  0.5372  0.3134
16662SOL    HW250565   0.808   1.248   9.218 -0.9246  0.4674  0.5322
16663SOL     OW50566   1.127   6.193   2.485  0.1887  0.2837  0.3116
16663SOL    HW150567   1.096   6.114   2.441  0.0187  0.2463  0.5004
16663SOL    HW250568   1.064   6.260   2.460 -0.3780  0.0803  1.1562
16664SOL     OW50569   7.500   7.140   6.512 -0.0319  0.2074  0.3490
16664SOL    HW150570   7.436   7.207   6.491  0.2515  0.6210  0.7872
16664SOL    HW250571   7.451   7.058   6.508 -0.4249  0.4546  0.0077
16665SOL     OW50572   6.243   6.909   7.641 -0.2162  0.1169 -0.6568
16665SOL    HW150573   6.337   6.925   7.627  0.1752 -1.8226 -0.4758
16665SOL    HW250574   6.223   6.959   7.720  0.9451 -0.3365 -0.0499
16666SOL     OW50575   7.116   6.707   9.671  0.1285 -0.2954  0.4029
16666SOL    HW150576   7.186   6.695   9.736 -0.7603 -0.5132  1.3415
16666SOL    HW250577   7.102   6.620   9.635 -0.8936 -0.6091  1.5238
16667SOL     OW50578   6.299   7.941   7.536 -0.1297 -0.0378 -0.0216
16667SOL    HW150579   6.389   7.950   7.504 -0.5194 -0.4070 -1.2692
16667SOL    HW250580   6.290   8.011   7.601  0.6490  0.8762 -0.8587
16668SOL     OW50581   3.970   4.508   2.402  0.3048  0.1340 -0.1663
16668SOL    HW150582   3.944   4.482   2.490 -0.3203 -0.3510 -0.4875
16668SOL    HW250583   4.050   4.560   2.415  0.9548 -1.0081  0.5852
16669SOL     OW50584   3.588   4.171   9.650  0.4662 -0.0521 -0.0765
16669SOL    HW150585   3.628   4.129   9.574  1.8649 -0.1756  0.6886
16669SOL    HW250586   3.527   4.106   9.685  1.2727 -0.7531  0.0405
16670SOL     OW50587   2.621   0.935   5.933  0.2574 -0.1803  0.1750
16670SOL    HW150588   2.575   0.987   5.867  1.0121  1.0792  0.6065
16670SOL    HW250589   2.713   0.941   5.910  0.3446 -1.7123 -0.0026
16671SOL     OW50590   8.253   6.744   4.790 -0.8144 -0.0011  0.2278
16671SOL    HW150591   8.274   6.824   4.838 -0.0647  0.2653 -0.5300
16671SOL    HW250592   8.260   6.769   4.698 -0.8009 -0.8819 -0.0155
16672SOL     OW50593   3.714   8.135   2.095 -0.5531 -0.2681  0.5908
16672SOL    HW150594   3.626   8.104   2.119 -1.9184  0.8512 -2.4455
16672SOL    HW250595   3.705   8.230   2.088  0.8934 -0.1417  0.1728
16673SOL     OW50596   2.526   4.916   8.722 -0.1608 -0.5816 -0.2511
16673SOL    HW150597   2.477   4.975   8.779  2.0490  0.0516  1.0900
16673SOL    HW250598   2.513   4.829   8.761 -0.8369 -0.5531 -0.3903
16674SOL     OW50599   0.645   9.030   8.577  0.0342 -0.2159 -0.1816
16674SOL    HW150600   0.631   9.090   8.503  0.6395 -1.1637 -1.0855
16674SOL    HW250601   0.557   9.015   8.612 -0.1102  1.4055  0.2530
16675SOL     OW50602   5.043   9.805   3.669  0.2081  0.3332  0.2851
16675SOL    HW150603   4.996   9.862   3.730 -0.5198  0.7457 -0.6347
16675SOL    HW250604   5.128   9.791   3.710 -0.1992  0.7410  1.3086
16676SOL     OW50605   6.042   2.307   7.127  0.2978  0.6265 -0.4847
16676SOL    HW150606   6.129   2.337   7.152  0.3657  0.2121 -0.1921
16676SOL    HW250607   6.018   2.360   7.051  0.2071  1.7423  0.2967
16677SOL     OW50608   4.727   2.388   1.256 -0.0182 -0.2759 -0.4678
16677SOL    HW150609   4.694   2.301   1.275  0.0860 -0.6742 -1.9512
16677SOL    HW250610   4.738   2.430   1.341  2.4358 -2.6002  0.4856
16678SOL     OW50611   9.485   7.025   6.798  0.0755  0.5100  0.3405
16678SOL    HW150612   9.570   7.065   6.779  0.7588 -0.5021  1.1467
16678SOL    HW250613   9.424   7.068   6.738  1.4677 -0.0117 -1.5255
16679SOL     OW50614   8.494   4.666   8.409  0.2622 -0.0898  0.3695
16679SOL    HW150615   8.503   4.630   8.321  0.7614 -0.4227  0.5507
16679SOL    HW250616   8.504   4.760   8.398 -1.5834  0.0643 -0.1805
16680SOL     OW50617   5.551   2.129   7.718  0.3668 -0.2198  0.4465
16680SOL    HW150618   5.582   2.135   7.808  0.8493 -0.1412  0.2780
16680SOL    HW250619   5.614   2.071   7.675 -0.7652 -1.5867  0.5486
16681SOL     OW50620   3.779   9.294   3.273  0.2454  0.1544 -0.2881
16681SOL    HW150621   3.758   9.362   3.337  1.4493  1.1068 -0.8545
16681SOL    HW250622   3.872   9.274   3.288  0.1906 -0.5733 -0.8509
16682SOL     OW50623   5.661   1.368   6.871  0.1607  0.5410 -0.2919
16682SOL    HW150624   5.687   1.279   6.894 -4.2105 -0.8718  0.1770
16682SOL    HW250625   5.601   1.395   6.941  0.4796  3.4480 -0.9982
16683SOL     OW50626   4.053   0.434   1.098  0.0258 -0.3861 -0.7658
16683SOL    HW150627   4.132   0.485   1.084  1.1753 -2.0891 -0.6983
16683SOL    HW250628   4.010   0.431   1.012 -0.3666  1.1012 -0.6585
16684SOL     OW50629   2.278   1.917   5.124 -0.0336 -0.3230 -0.1226
16684SOL    HW150630   2.300   2.010   5.120 -1.0696 -0.0657  0.0164
16684SOL    HW250631   2.194   1.913   5.170 -0.4782 -1.2466 -0.9598
16685SOL     OW50632   1.480   1.711   7.976  0.1997 -0.6595  0.4146
16685SOL    HW150633   1.398   1.669   8.002  0.2292 -1.7977 -1.2049
16685SOL    HW250634   1.504   1.668   7.894  1.4750  0.9203 -0.0857
16686SOL     OW50635   0.700   4.823   1.908  0.1529  1.1981  0.1191
16686SOL    HW150636   0.706   4.733   1.876 -0.4378  2.0001 -2.5082
16686SOL    HW250637   0.607   4.836   1.928  0.2231  1.2393  0.4206
16687SOL     OW50638   7.533   2.441   1.136  0.3234 -0.0461 -0.2658
16687SOL    HW150639   7.501   2.457   1.047 -0.4331 -0.7533 -0.1336
16687SOL    HW250640   7.464   2.477   1.193  0.6821  0.1682  0.0385
16688SOL     OW50641   5.953   6.589   6.646 -0.2787  0.2217  0.0538
16688SOL    HW150642   6.006   6.509   6.642  0.6009  0.8403 -1.9214
16688SOL    HW250643   5.886   6.570   6.711 -0.7298 -2.5362 -1.0865
16689SOL     OW50644   5.626   2.794   8.819  0.2396  0.0869  0.1570
16689SOL    HW150645   5.673   2.820   8.899 -0.4716  0.1948  0.5494
16689SOL    HW250646   5.552   2.853   8.815 -0.4116 -0.7148  0.0831
16690SOL     OW50647   4.640   9.337   6.773  0.2751 -0.5807 -0.4685
16690SOL    HW150648   4.549   9.314   6.754 -0.0745  0.9132 -0.7508
16690SOL    HW250649   4.665   9.278   6.844 -0.7496 -1.3453 -0.7118
16691SOL     OW50650   6.060   5.697   3.073  0.0819  0.4244  0.0312
16691SOL    HW150651   5.991   5.738   3.020  0.2679 -0.1493 -0.6794
16691SOL    HW250652   6.090   5.767   3.131  0.1196  1.1953 -0.8789
16692SOL     OW50653   4.117   0.955   7.580  0.3357  0.6229 -0.3369
16692SOL    HW150654   4.206   0.950   7.613  0.8924 -0.0533 -1.8531
16692SOL    HW250655   4.117   1.031   7.522 -0.0371  0.5508 -0.4337
16693SOL     OW50656   4.154   8.805   5.451  0.0031 -0.7462  0.1546
16693SOL    HW150657   4.164   8.776   5.361 -3.1533 -0.9702 -0.2305
16693SOL    HW250658   4.243   8.807   5.486  1.1126 -2.8141 -2.2688
16694SOL     OW50659   3.368   8.363   6.917 -0.3493  0.3232  0.1969
16694SOL    HW150660   3.399   8.277   6.945 -0.4139  0.6755  1.3932
16694SOL    HW250661   3.319   8.345   6.837  0.4456 -0.6215 -0.0974
16695SOL     OW50662   0.490   0.978   5.781 -0.3700  0.0687 -0.2300
16695SOL    HW150663   0.432   0.943   5.714 -0.2902  2.6002 -1.7704
16695SOL    HW250664   0.578   0.957   5.751 -0.3672  0.2414 -0.3445
16696SOL     OW50665   9.763   3.362   7.273  0.5328 -0.2356  0.6285
16696SOL    HW150666   9.763   3.386   7.366 -0.5432  0.7761  0.3976
16696SOL    HW250667   9.755   3.267   7.273  1.7525 -0.3599  1.5752
16697SOL     OW50668   5.284   8.791   9.054 -0.1283 -0.3119 -0.2865
16697SOL    HW150669   5.230   8.732   9.001  0.4835 -1.0771 -0.0832
16697SOL    HW250670   5.229   8.814   9.129 -0.0528 -1.3993  0.1214
16698SOL     OW50671   7.265   6.770   4.739  0.7561 -0.0449 -0.0272
16698SOL    HW150672   7.258   6.865   4.737  1.3152  0.0246  0.8419
16698SOL    HW250673   7.351   6.751   4.703  0.1479 -0.3157 -1.4138
16699SOL     OW50674   1.578   5.861   1.606 -0.1770  0.0074  0.1289
16699SOL    HW150675   1.503   5.918   1.625 -0.2169  0.4614 -1.2994
16699SOL    HW250676   1.592   5.812   1.688  0.4598  2.7079  1.7497
16700SOL     OW50677   2.971   7.393   1.016 -0.0750  0.0651  0.0950
16700SOL    HW150678   2.925   7.469   0.980 -0.0326 -0.2105 -0.5563
16700SOL    HW250679   3.058   7.397   0.977  0.4560  0.5447  1.2660
16701SOL     OW50680   7.544   4.960   0.721 -0.5013 -0.1728  0.1438
16701SOL    HW150681   7.540   4.964   0.625  0.3884  0.0464  0.1148
16701SOL    HW250682   7.620   4.906   0.740 -0.1799  0.4814  0.7393
16702SOL     OW50683   6.808   1.373   1.616 -0.1219 -0.1233  0.1072
16702SOL    HW150684   6.817   1.446   1.677 -1.0130  1.4365 -1.5134
16702SOL    HW250685   6.893   1.368   1.572 -0.5002  0.9334 -0.7845
16703SOL     OW50686   0.477   5.954   4.416 -0.1562  0.8005  0.6259
16703SOL    HW150687   0.490   6.044   4.387  1.6428  0.4751  0.3094
16703SOL    HW250688   0.535   5.902   4.360 -1.9871 -0.7248  0.0293
16704SOL     OW50689   6.967   4.864   6.928  0.1196  0.0049 -0.2481
16704SOL    HW150690   6.998   4.943   6.971 -0.6223  0.6885 -0.9311
16704SOL    HW250691   6.874   4.860   6.949 -0.2317  0.2798 -1.6206
16705SOL     OW50692   4.362   8.738   8.168 -0.2305 -0.2264 -0.1232
16705SOL    HW150693   4.380   8.792   8.091 -0.5128 -2.5638 -1.9505
16705SOL    HW250694   4.447   8.707   8.197 -0.2531 -1.1534 -0.9647
16706SOL     OW50695   7.770   1.044   8.416 -0.0999  0.4012  0.3866
16706SOL    HW150696   7.694   1.031   8.473  1.7646 -2.2771  2.5880
16706SOL    HW250697   7.816   1.119   8.454  0.3779 -0.4809  1.6278
16707SOL     OW50698   7.754   2.502   3.941  0.0962  0.7187 -0.4036
16707SOL    HW150699   7.769   2.425   3.995  1.6869  0.4140 -1.2117
16707SOL    HW250700   7.693   2.556   3.992  0.8144  0.0296  1.2468
16708SOL     OW50701   0.750   4.723   9.019  0.1724  0.9245 -0.2998
16708SOL    HW150702   0.772   4.630   9.019 -1.7152  0.4411 -0.2137
16708SOL    HW250703   0.667   4.728   8.971  0.2896  2.5838 -0.3928
16709SOL     OW50704   6.251   0.412   3.587  0.7566  0.0741 -0.3674
16709SOL    HW150705   6.218   0.453   3.507 -0.2441 -0.0886 -0.0504
16709SOL    HW250706   6.335   0.373   3.561  0.2072 -0.4123 -1.4642
16710SOL     OW50707   8.987   4.203   1.237  0.0547  0.1328 -0.4361
16710SOL    HW150708   8.992   4.283   1.289  2.4728 -0.8100  0.9563
16710SOL    HW250709   8.909   4.158   1.270  0.0885  0.7619  0.5478
16711SOL     OW50710   1.522   6.407   8.719  0.1055  0.0686 -0.3632
16711SOL    HW150711   1.493   6.374   8.634 -0.7231  0.7265 -0.3409
16711SOL    HW250712   1.600   6.459   8.699  0.2748 -0.2816 -0.6349
16712SOL     OW50713   8.376   5.854   4.175  0.1362 -0.1827  0.0026
16712SOL    HW150714   8.446   5.887   4.232  2.6751 -1.6067 -2.0936
16712SOL    HW250715   8.322   5.801   4.234  2.2639 -1.0660  1.2995
16713SOL     OW50716   2.265   5.594   6.421 -0.0516  0.3062  0.6390
16713SOL    HW150717   2.273   5.499   6.425 -1.5609 -0.0059 -2.0312
16713SOL    HW250718   2.244   5.620   6.511  1.9160 -1.6560  1.7435
16714SOL     OW50719   2.362   0.486   8.633  0.6172 -0.7039  0.0487
16714SOL    HW150720   2.379   0.440   8.551 -1.1184 -2.1769  0.4567
16714SOL    HW250721   2.439   0.542   8.645  1.2418 -0.9728 -2.1972
16715SOL     OW50722   4.516   9.153   5.359 -0.2601  0.0108  0.2477
16715SOL    HW150723   4.429   9.193   5.360 -0.8389 -1.1849  1.8645
16715SOL    HW250724   4.559   9.188   5.437  0.3203 -0.1783  0.0125
16716SOL     OW50725   7.360   2.228   9.052 -0.2891 -0.5703 -0.5141
16716SOL    HW150726   7.414   2.223   9.131 -0.7670 -1.5421 -0.2359
16716SOL    HW250727   7.422   2.224   8.979  0.3081  1.9188 -0.2309
16717SOL     OW50728   3.913   4.623   8.780  0.4233 -0.0439 -0.2812
16717SOL    HW150729   3.914   4.665   8.694 -2.1708  1.0514  0.1364
16717SOL    HW250730   4.005   4.625   8.808  1.2380  0.1522 -2.6967
16718SOL     OW50731   7.871   6.726   6.141 -0.5543 -0.0622  0.3112
16718SOL    HW150732   7.870   6.800   6.080 -2.9561 -0.2678  0.0078
16718SOL    HW250733   7.924   6.756   6.214 -2.1474  2.3417  0.5972
16719SOL     OW50734   6.054   1.981   7.427 -0.5621 -0.5461  0.1572
16719SOL    HW150735   6.011   2.013   7.348  0.1743  0.6015  0.1996
16719SOL    HW250736   6.017   1.894   7.441 -1.4760 -0.3390 -0.8503
16720SOL     OW50737   8.987   6.580   1.678 -0.1636 -0.2881 -0.1952
16720SOL    HW150738   8.985   6.594   1.583 -1.7354 -0.9947 -0.2925
16720SOL    HW250739   8.978   6.485   1.688 -3.7407 -0.0042  0.6643
16721SOL     OW50740   1.958   7.501   5.447 -0.2373 -0.1184  0.5094
16721SOL    HW150741   1.945   7.457   5.363  1.4496  0.8266 -0.3058
16721SOL    HW250742   1.890   7.568   5.450  0.8343  1.1119 -1.0462
16722SOL     OW50743   1.245   6.624   6.862 -0.5990  0.3800 -0.3174
16722SOL    HW150744   1.198   6.699   6.827 -1.2676 -0.0244 -0.3054
16722SOL    HW250745   1.333   6.657   6.880 -0.3073  0.6939 -2.0876
16723SOL     OW50746   0.854   4.645   8.312  0.6674 -0.2251 -0.2719
16723SOL    HW150747   0.909   4.605   8.379  0.8639 -0.9251 -0.8476
16723SOL    HW250748   0.915   4.697   8.259  0.3735  1.1448  0.6600
16724SOL     OW50749   5.935   9.542   7.468  0.4217 -0.0150 -0.3883
16724SOL    HW150750   5.986   9.463   7.487  0.2648  0.1190  0.6534
16724SOL    HW250751   5.911   9.576   7.554 -1.8412 -0.3175 -0.8466
16725SOL     OW50752   5.215   4.119   7.583  0.3107  0.3430  0.2628
16725SOL    HW150753   5.168   4.199   7.608  0.0003 -0.2585  1.6816
16725SOL    HW250754   5.198   4.058   7.654  0.1564 -1.1711 -1.0197
16726SOL     OW50755   1.548   6.236   9.370  0.7466  0.3432  0.1246
16726SOL    HW150756   1.577   6.185   9.445 -0.4593 -0.2466  0.2215
16726SOL    HW250757   1.626   6.247   9.316  0.9906 -1.9044 -0.0741
16727SOL     OW50758   2.053   7.667   8.161 -0.6770 -0.1026 -0.2412
16727SOL    HW150759   2.101   7.584   8.161 -0.6066 -0.0660 -1.0111
16727SOL    HW250760   2.046   7.691   8.253 -0.1479 -0.6481 -0.0590
16728SOL     OW50761   0.616   6.674   4.795  0.4681 -0.0877 -0.6433
16728SOL    HW150762   0.614   6.607   4.863 -0.2182 -0.2943 -0.8577
16728SOL    HW250763   0.537   6.726   4.810  0.5078  0.0992 -1.0528
16729SOL     OW50764   8.055   2.520   9.488 -0.6244 -0.4665 -0.2515
16729SOL    HW150765   8.049   2.568   9.406  1.1895  0.2837  0.0014
16729SOL    HW250766   8.131   2.464   9.478 -1.1583 -1.3408  0.4436
16730SOL     OW50767   4.211   7.224   9.390 -0.4979  0.4888 -0.1161
16730SOL    HW150768   4.134   7.268   9.427 -0.6167 -0.7922  1.2210
16730SOL    HW250769   4.186   7.204   9.300 -1.2934  1.1177 -0.0441
16731SOL     OW50770   4.256   2.356   0.524 -0.6772  0.2418  0.3007
16731SOL    HW150771   4.272   2.337   0.616  0.1363 -0.0772  0.1005
16731SOL    HW250772   4.326   2.311   0.477 -1.0243  0.4798 -0.4683
16732SOL     OW50773   3.658   6.324   5.112 -0.1562 -0.0235  0.7709
16732SOL    HW150774   3.665   6.414   5.143 -1.1662  0.4108 -0.2062
16732SOL    HW250775   3.701   6.272   5.180  0.1018  1.1530  1.5343
16733SOL     OW50776   0.909   3.129   7.897 -0.2203  0.1382  0.2916
16733SOL    HW150777   0.947   3.213   7.870 -0.8667  0.1591 -0.5989
16733SOL    HW250778   0.967   3.063   7.858  1.9356  0.0708  3.2651
16734SOL     OW50779   2.442   3.846   3.586 -0.2274  0.0656 -0.5394
16734SOL    HW150780   2.405   3.788   3.653 -0.2652  0.4125 -0.2585
16734SOL    HW250781   2.469   3.924   3.634 -0.0658  0.2328 -0.8997
16735SOL     OW50782   3.977   7.810   6.673  0.3515  0.4345  0.2756
16735SOL    HW150783   4.020   7.724   6.674  0.4935  0.5007 -0.1097
16735SOL    HW250784   4.038   7.867   6.626 -0.2470  0.4827 -0.4561
16736SOL     OW50785   8.864   2.043   5.362 -0.4880  0.1886  0.0754
16736SOL    HW150786   8.933   2.016   5.302  0.9005  2.3045  0.6087
16736SOL    HW250787   8.794   2.077   5.306  0.2084  0.8625 -0.3849
16737SOL     OW50788   8.886   2.548   3.488  0.1400  0.2112  0.1855
16737SOL    HW150789   8.923   2.467   3.453  0.0203  0.0834  0.3579
16737SOL    HW250790   8.798   2.525   3.515  0.1475  0.3699  0.3480
16738SOL     OW50791   9.555   2.905   0.477  0.8635  0.1171  0.3846
16738SOL    HW150792   9.539   2.990   0.435 -0.0117  0.5743  1.6069
16738SOL    HW250793   9.647   2.886   0.458  1.7563  2.4211  1.9645
16739SOL     OW50794   3.290   3.274   0.087  0.5394  0.2738 -0.2602
16739SOL    HW150795   3.325   3.358   0.058  0.9683  0.1444 -0.1182
16739SOL    HW250796   3.363   3.232   0.133  1.4178 -1.5418 -3.0273
16740SOL     OW50797   9.804   0.293   1.013 -0.6431 -0.3711 -0.1005
16740SOL    HW150798   9.770   0.334   0.933 -0.8313 -0.4803 -0.0790
16740SOL    HW250799   9.727   0.286   1.071 -0.2469  0.8930  0.6048
16741SOL     OW50800   7.501   8.472   0.549 -0.2435 -0.3722  0.6111
16741SOL    HW150801   7.584   8.488   0.594  0.1089 -0.1960 -0.0952
16741SOL    HW250802   7.464   8.396   0.594  1.2217 -1.6915 -0.3083
16742SOL     OW50803   4.908   5.318   9.078 -0.1687  0.2014 -0.1697
16742SOL    HW150804   4.882   5.358   8.994 -1.1561 -2.5674 -1.2833
16742SOL    HW250805   4.846   5.353   9.141  0.3316  2.0191 -0.6147
16743SOL     OW50806   0.264   0.997   2.072  0.4953  0.4081  0.1433
16743SOL    HW150807   0.329   1.065   2.090 -0.0369  1.0425 -0.2818
16743SOL    HW250808   0.213   0.991   2.153  2.5095 -1.7692  1.3756
16744SOL     OW50809   2.961   5.810   1.108 -0.2650  0.1911  0.5496
16744SOL    HW150810   2.903   5.771   1.042  0.7025 -0.9033  0.3056
16744SOL    HW250811   2.936   5.768   1.190  0.5152 -0.7098  0.3514
16745SOL     OW50812   6.340   5.470   9.347  0.1137 -0.0420  0.1118
16745SOL    HW150813   6.294   5.538   9.397  1.1965  0.1216  0.9193
16745SOL    HW250814   6.276   5.399   9.339 -0.9184  0.9116 -0.4371
16746SOL     OW50815   1.267   0.521   9.171 -0.1260  0.0507 -0.4000
16746SOL    HW150816   1.313   0.580   9.230  1.5768 -2.1596  0.6486
16746SOL    HW250817   1.306   0.538   9.085  3.0314 -1.8828  0.4789
16747SOL     OW50818   4.579   8.376   5.247 -0.0698 -0.1888  0.1749
16747SOL    HW150819   4.513   8.310   5.226 -1.1020  0.9234 -0.2304
16747SOL    HW250820   4.528   8.449   5.283  0.9173  0.7734 -0.3467
16748SOL     OW50821   9.580   2.075   6.979  0.2879 -0.3586  0.3526
16748SOL    HW150822   9.559   2.106   6.891 -1.2849  0.2041  0.8991
16748SOL    HW250823   9.666   2.113   6.998  1.4178 -1.8006 -1.5226
16749SOL     OW50824   2.334   1.382   8.488  0.5014 -0.4526  0.3405
16749SOL    HW150825   2.243   1.410   8.501  0.2999 -0.6776 -0.5326
16749SOL    HW250826   2.357   1.416   8.401  2.0557  1.6853  1.4968
16750SOL     OW50827   3.865   9.349   4.174  0.0748  0.6120  0.0415
16750SOL    HW150828   3.769   9.342   4.177  0.1093 -0.2505 -0.6007
16750SOL    HW250829   3.886   9.411   4.244 -0.9914  1.2565 -0.1765
16751SOL     OW50830   6.472   6.800   9.921  0.7481 -0.5179 -0.8402
16751SOL    HW150831   6.550   6.812   9.975  0.0445 -0.4787  0.2120
16751SOL    HW250832   6.489   6.851   9.842  1.4263  0.2148 -0.2410
16752SOL     OW50833   2.426   4.962   1.523 -0.0643  0.2147  0.2331
16752SOL    HW150834   2.505   4.986   1.474  0.7494  0.1546  1.4499
16752SOL    HW250835   2.403   5.042   1.570 -0.9061  0.3121 -0.3462
16753SOL     OW50836   9.602   7.821   2.153  0.0649  0.3998  0.4938
16753SOL    HW150837   9.585   7.913   2.131 -1.9656  0.2141  1.1572
16753SOL    HW250838   9.671   7.795   2.092 -0.5674  1.8540 -0.9155
16754SOL     OW50839   2.807   6.039   5.266 -0.7879 -0.6901 -0.4761
16754SOL    HW150840   2.748   6.109   5.294 -0.6059 -0.9481  0.5758
16754SOL    HW250841   2.799   6.038   5.170 -3.6635 -1.6779 -0.3444
16755SOL     OW50842   0.476   4.586   5.300 -0.5347  0.2160 -0.4243
16755SOL    HW150843   0.490   4.681   5.293 -2.3675  0.5991  0.6004
16755SOL    HW250844   0.396   4.577   5.351  0.3249 -1.9328  0.6557
16756SOL     OW50845   4.998   7.720   7.348  0.7093  0.2773  0.3571
16756SOL    HW150846   5.001   7.647   7.409 -1.2619 -2.6958 -2.7377
16756SOL    HW250847   4.908   7.753   7.353  0.6941  0.3924 -0.4355
16757SOL     OW50848   8.819   3.051   0.406  0.1330  0.0657 -0.3033
16757SOL    HW150849   8.817   3.059   0.311  0.7708 -0.7322 -0.3932
16757SOL    HW250850   8.897   3.099   0.433 -1.2774  2.3221  0.0690
16758SOL     OW50851   1.760   8.462   0.200 -0.5767 -0.1394 -0.0086
16758SOL    HW150852   1.794   8.500   0.119  0.9447 -1.0136  0.1925
16758SOL    HW250853   1.731   8.374   0.176 -0.9674 -0.0779  0.2185
16759SOL     OW50854   2.254   5.840   5.864  0.2283 -1.0148  0.6837
16759SOL    HW150855   2.168   5.799   5.864  0.2046 -0.9685  1.1304
16759SOL    HW250856   2.261   5.882   5.950  0.5311 -0.6756  0.4975
16760SOL     OW50857   8.928   2.023   2.158 -0.1517 -0.2274  0.4115
16760SOL    HW150858   8.843   1.983   2.174 -0.7818  0.7691 -0.3655
16760SOL    HW250859   8.983   1.951   2.126 -1.5442 -0.3288 -1.9394
16761SOL     OW50860   6.772   5.205   9.684 -0.2544  0.3075 -0.1028
16761SOL    HW150861   6.678   5.222   9.690 -0.4362 -0.6910  0.1044
16761SOL    HW250862   6.813   5.282   9.723 -0.9997  0.6448  0.0271
16762SOL     OW50863   6.018   4.934   8.586  0.0705  0.0172 -0.2229
16762SOL    HW150864   5.980   5.000   8.644  0.1538 -0.1126 -0.0197
16762SOL    HW250865   6.071   4.984   8.524 -0.6374  0.2213 -0.6735
16763SOL     OW50866   6.321   8.307   3.168 -0.4068 -0.4198 -0.2631
16763SOL    HW150867   6.362   8.372   3.111 -0.0949 -0.9543 -0.6647
16763SOL    HW250868   6.320   8.227   3.115 -0.4636 -0.8262  0.3455
16764SOL     OW50869   7.846   7.606   3.791  0.0828  0.2716 -0.3264
16764SOL    HW150870   7.821   7.556   3.713  0.7215  0.6578 -0.7887
16764SOL    HW250871   7.871   7.692   3.757  0.5129  0.3936  0.2949
16765SOL     OW50872   9.924   6.517   8.580 -0.0247 -0.3291 -0.3862
16765SOL    HW150873   9.898   6.609   8.582  0.1343 -0.1280 -3.2797
16765SOL    HW250874   9.906   6.489   8.491 -1.3429 -3.5467  0.7508
16766SOL     OW50875   1.081   0.300   4.221 -0.2129 -0.1955  0.2371
16766SOL    HW150876   1.097   0.274   4.131 -1.1236 -0.1100  0.0386
16766SOL    HW250877   1.059   0.218   4.266  1.6464 -0.4661  0.7342
16767SOL     OW50878   8.276   1.998   7.453  0.1569 -0.4546 -0.2681
16767SOL    HW150879   8.239   2.006   7.364 -0.7717  0.5616  0.1767
16767SOL    HW250880   8.220   1.933   7.495  0.5321 -0.8593 -0.3925
16768SOL     OW50881   0.711   6.719   1.023 -0.2842 -0.0442  0.5413
16768SOL    HW150882   0.662   6.637   1.026  1.4032 -1.1098  0.1984
16768SOL    HW250883   0.741   6.733   1.112 -0.2079 -0.0236  0.5124
16769SOL     OW50884   6.846   1.538   5.220 -0.0007  0.8349  0.0725
16769SOL    HW150885   6.911   1.490   5.272  0.7627  0.3258 -1.2928
16769SOL    HW250886   6.872   1.630   5.228  1.5322  0.5599 -1.2387
16770SOL     OW50887   3.573   2.430   7.198 -0.3596 -0.5697  0.0020
16770SOL    HW150888   3.578   2.523   7.219  0.3763 -0.4691 -0.5621
16770SOL    HW250889   3.586   2.426   7.103  1.3553 -1.3490  0.2138
16771SOL     OW50890   9.935   4.111   7.281 -0.0858  1.2322 -0.0670
16771SOL    HW150891   9.916   4.202   7.258 -1.6095  1.0244  0.2358
16771SOL    HW250892   9.874   4.060   7.227  1.4138  0.3188 -0.9455
16772SOL     OW50893   7.193   3.221   3.481  0.9613  0.0669 -0.1565
16772SOL    HW150894   7.271   3.205   3.534  2.2516 -0.8652 -2.2096
16772SOL    HW250895   7.224   3.214   3.391 -1.5685 -0.5607 -1.0414
16773SOL     OW50896   3.446   5.028   5.295  0.2511  0.4060  0.2708
16773SOL    HW150897   3.379   5.089   5.327  1.7258  2.0083  0.3969
16773SOL    HW250898   3.441   5.035   5.199 -1.0798 -1.0193  0.1767
16774SOL     OW50899   0.425   4.138   8.927 -0.1794  0.1588  0.5988
16774SOL    HW150900   0.502   4.172   8.973  0.5392 -0.3429 -0.2104
16774SOL    HW250901   0.434   4.043   8.934  1.2115 -0.0517 -2.5244
16775SOL     OW50902   9.267   1.502   5.331 -0.0800  0.3058  0.0413
16775SOL    HW150903   9.344   1.559   5.325 -0.8867  1.3336 -0.9943
16775SOL    HW250904   9.228   1.525   5.416  2.2680 -2.3139  2.0152
16776SOL     OW50905   3.362   3.962   9.666 -0.1116  0.4668 -0.2537
16776SOL    HW150906   3.414   3.883   9.654 -0.7156  0.1793 -1.0645
16776SOL    HW250907   3.306   3.966   9.589 -2.2642  0.0334  1.2025
16777SOL     OW50908   8.200   2.256   2.203 -0.1296  0.2125 -0.0460
16777SOL    HW150909   8.111   2.271   2.171  0.0774 -0.4520 -0.9664
16777SOL    HW250910   8.224   2.338   2.246 -1.4608  0.1389  0.9098
16778SOL     OW50911   2.160   8.735   9.363  0.4639 -0.5379 -0.0618
16778SOL    HW150912   2.081   8.681   9.367  0.9222 -1.6080 -3.0378
16778SOL    HW250913   2.193   8.735   9.453 -1.2836 -2.5872  0.6776
16779SOL     OW50914   1.683   7.298   1.014 -0.4151  0.6617  0.2502
16779SOL    HW150915   1.704   7.207   0.993 -0.5766  0.7189 -0.1781
16779SOL    HW250916   1.626   7.326   0.943 -0.8776  0.9072  0.7121
16780SOL     OW50917   8.991   3.499   4.203  0.0934  0.2903 -0.0493
16780SOL    HW150918   8.951   3.530   4.121 -0.9845  1.7143  0.9715
16780SOL    HW250919   9.061   3.563   4.220  0.3497 -0.0368  0.1274
16781SOL     OW50920   3.323   0.481   6.421 -0.2956  0.3193  0.2365
16781SOL    HW150921   3.295   0.485   6.330  0.0745 -0.0707  0.0956
16781SOL    HW250922   3.325   0.572   6.451  0.3888  0.5256 -0.4040
16782SOL     OW50923   0.491   3.789   6.797  0.3543  0.5875  0.2010
16782SOL    HW150924   0.508   3.790   6.702 -0.2519 -0.1071  0.0760
16782SOL    HW250925   0.577   3.771   6.836  0.5330  0.4608 -0.2399
16783SOL     OW50926   4.559   6.757   1.575 -0.7559  0.3773  0.2598
16783SOL    HW150927   4.512   6.807   1.509  0.2027 -1.4385 -1.9352
16783SOL    HW250928   4.652   6.774   1.557 -0.4393 -1.3783  0.0579
16784SOL     OW50929   0.255   7.179   4.668 -0.4671 -0.3998 -0.6271
16784SOL    HW150930   0.275   7.240   4.597 -0.1889 -1.0641 -1.1327
16784SOL    HW250931   0.240   7.095   4.624 -1.5695 -0.5462 -0.0037
16785SOL     OW50932   3.287   5.766   7.036  0.7761 -0.1487  0.3502
16785SOL    HW150933   3.360   5.772   6.974 -0.6291 -0.6890 -1.4745
16785SOL    HW250934   3.268   5.857   7.059  0.4591  0.2147 -1.1702
16786SOL     OW50935   2.679   9.353   7.957 -0.3616  0.2755  0.0013
16786SOL    HW150936   2.626   9.356   7.877 -1.4705  3.0823  0.7200
16786SOL    HW250937   2.768   9.372   7.928 -0.6789  0.8520 -0.6199
16787SOL     OW50938   4.427   4.863   2.904  0.1717  0.6115  0.3816
16787SOL    HW150939   4.412   4.946   2.859 -0.8091  0.5289  0.5361
16787SOL    HW250940   4.371   4.866   2.981  1.1541  0.3676  1.1389
16788SOL     OW50941   7.710   8.626   4.475 -0.5808  0.4127  0.6534
16788SOL    HW150942   7.675   8.643   4.563  0.4595  0.1767  1.1181
16788SOL    HW250943   7.698   8.709   4.429 -0.7806  0.6581  1.1366
16789SOL     OW50944   1.447   2.082   3.468 -0.3735  0.0495  0.1029
16789SOL    HW150945   1.529   2.118   3.500  0.5301 -0.7200 -1.2613
16789SOL    HW250946   1.386   2.092   3.541  1.0019  0.3658  1.2397
16790SOL     OW50947   8.369   1.997   9.826 -0.2179 -0.3965  0.3261
16790SOL    HW150948   8.420   2.078   9.824 -3.7201  2.0258 -0.5263
16790SOL    HW250949   8.339   1.991   9.917  1.7500 -2.0382  0.9289
16791SOL     OW50950   7.139   7.152   8.597  0.5698  0.1650 -0.0431
16791SOL    HW150951   7.094   7.082   8.644 -0.8917  0.9371 -0.2562
16791SOL    HW250952   7.094   7.158   8.513  0.6671  1.3586 -0.0284
16792SOL     OW50953   5.897   5.360   9.722 -0.1675  0.5867 -0.5191
16792SOL    HW150954   5.802   5.352   9.734 -0.3343  0.3435 -1.8173
16792SOL    HW250955   5.920   5.440   9.769 -0.9654  0.4952  0.0480
16793SOL     OW50956   7.549   2.233   4.765 -0.1888  0.0568  0.4781
16793SOL    HW150957   7.550   2.211   4.672 -0.1471 -1.9407  0.9045
16793SOL    HW250958   7.467   2.196   4.798  0.1800  0.0167  1.3905
16794SOL     OW50959   9.883   8.611   5.178 -0.6645 -0.1042 -0.6281
16794SOL    HW150960   9.793   8.643   5.171 -0.5517  0.4241  0.2677
16794SOL    HW250961   9.905   8.620   5.271 -0.2075 -1.6531 -0.5599
16795SOL     OW50962   8.036   7.391   8.573  0.3598  0.3349 -0.1874
16795SOL    HW150963   8.035   7.417   8.665 -0.4294 -0.4760  0.0438
16795SOL    HW250964   8.039   7.474   8.525 -0.3530  0.8086  0.5529
16796SOL     OW50965   0.639   3.075   3.863  0.7927 -0.1021 -0.0193
16796SOL    HW150966   0.645   3.021   3.784  0.4188  0.6828 -0.5916
16796SOL    HW250967   0.678   3.020   3.932  0.5947 -1.0243 -0.6176
16797SOL     OW50968   5.105   1.282   7.634 -0.3532  0.5604 -0.0814
16797SOL    HW150969   5.065   1.265   7.549 -0.1741 -0.5538  0.0504
16797SOL    HW250970   5.084   1.206   7.687  0.5801  0.6740  0.4856
16798SOL     OW50971   8.113   5.146   3.383  0.4518  0.0686 -0.0421
16798SOL    HW150972   8.099   5.172   3.474 -2.5553  2.9376 -1.1283
16798SOL    HW250973   8.062   5.066   3.373 -2.3156  1.6873  0.0659
16799SOL     OW50974   4.533   0.875   0.460  0.2827 -0.8796 -0.1426
16799SOL    HW150975   4.591   0.798   0.460  0.1499 -0.9827  0.3194
16799SOL    HW250976   4.484   0.868   0.378  1.5901 -0.2804 -0.9990
16800SOL     OW50977   7.563   6.684   7.572 -0.4216  0.2790  0.1377
16800SOL    HW150978   7.492   6.622   7.550 -0.6330  0.1749  1.0876
16800SOL    HW250979   7.641   6.629   7.579 -0.0804  0.4869 -1.6199
16801SOL     OW50980   1.898   8.422   7.692 -0.5156 -0.3771  0.0203
16801SOL    HW150981   1.958   8.472   7.747 -1.2696  0.5666  0.0010
16801SOL    HW250982   1.879   8.343   7.742 -0.5496  0.0918  0.7533
16802SOL     OW50983   4.220   5.081   7.008  0.1212  0.0590 -0.1747
16802SOL    HW150984   4.233   5.073   7.102  0.4321  2.1116  0.0014
16802SOL    HW250985   4.125   5.085   6.996  0.0957  1.6779  0.2906
16803SOL     OW50986   7.865   3.990   1.745  0.5869  0.2410  0.0092
16803SOL    HW150987   7.876   4.015   1.653  1.4038  0.0599  0.0513
16803SOL    HW250988   7.813   3.910   1.742 -0.8641  1.1543 -0.1989
16804SOL     OW50989   4.399   7.594   5.127  0.6423  0.0142 -0.0670
16804SOL    HW150990   4.466   7.539   5.086  1.4006  0.9318 -0.1156
16804SOL    HW250991   4.429   7.684   5.109 -0.9587  0.4580 -0.6824
16805SOL     OW50992   9.023   0.715   2.382  0.6643 -0.0301  0.3232
16805SOL    HW150993   9.042   0.744   2.293  1.9672 -1.5036  0.0609
16805SOL    HW250994   9.023   0.795   2.435  0.4726  0.7940 -0.8895
16806SOL     OW50995   7.467   1.407   4.152 -0.7518  0.0214  0.2898
16806SOL    HW150996   7.463   1.411   4.248  0.6586  0.4442  0.3503
16806SOL    HW250997   7.440   1.495   4.124 -0.2949  0.1804  0.3415
16807SOL     OW50998   0.964   9.662   6.325  0.3261 -0.1388  0.3618
16807SOL    HW150999   0.963   9.652   6.421 -4.4021 -0.9988  0.4521
16807SOL    HW251000   0.943   9.754   6.311  0.6139 -0.1086  0.1210
16808SOL     OW51001   7.280   9.929   4.896 -0.4209  0.1507  0.0576
16808SOL    HW151002   7.196   9.917   4.941 -0.9009 -0.9898 -1.0731
16808SOL    HW251003   7.345   9.896   4.958 -0.8096  0.9825  0.9175
16809SOL     OW51004   6.578   9.447   5.249 -0.2843 -0.5344  0.6933
16809SOL    HW151005   6.586   9.527   5.301 -2.8474 -0.4237  1.0494
16809SOL    HW251006   6.517   9.392   5.298 -0.5933 -1.6134 -0.8019
16810SOL     OW51007   4.506   8.809   9.574  0.0775  0.2744  0.2453
16810SOL    HW151008   4.505   8.750   9.649 -0.0324  0.2958  0.2605
16810SOL    HW251009   4.469   8.758   9.502  3.2185 -0.9696 -0.6942
16811SOL     OW51010   2.515   5.068   9.139  0.4749 -0.2423  0.5351
16811SOL    HW151011   2.560   5.129   9.080 -0.1396 -0.6483 -0.3801
16811SOL    HW251012   2.502   5.117   9.220 -0.3056  0.9756 -0.2960
16812SOL     OW51013   4.765   0.459   0.675  0.2505 -0.4379  0.4808
16812SOL    HW151014   4.709   0.510   0.617 -0.3917  1.2792  2.4908
16812SOL    HW251015   4.709   0.387   0.706  0.2164 -0.6518 -0.0767
16813SOL     OW51016   1.152   3.739   2.292  0.4490  0.0108 -0.1406
16813SOL    HW151017   1.102   3.678   2.346  0.6859  1.0053  1.2455
16813SOL    HW251018   1.117   3.727   2.203 -0.0336 -1.5619  0.2431
16814SOL     OW51019   2.310   3.052   6.250  0.1493  0.1461 -0.0702
16814SOL    HW151020   2.348   3.139   6.240 -0.6291  0.3466 -1.6319
16814SOL    HW251021   2.386   2.993   6.253  0.7467  0.9056  2.2368
16815SOL     OW51022   9.361   2.055   7.299  0.0949 -0.2812  0.6192
16815SOL    HW151023   9.277   2.056   7.254  0.4594  1.9807 -0.1410
16815SOL    HW251024   9.364   1.970   7.344 -1.8977 -1.0401 -0.5794
16816SOL     OW51025   1.496   1.985   9.109  0.0084  0.0424  0.4869
16816SOL    HW151026   1.473   1.954   9.021  1.2368  0.3512  0.0447
16816SOL    HW251027   1.589   1.964   9.118 -0.1755 -0.2472  1.8320
16817SOL     OW51028   8.087   4.651   9.155 -0.2719  0.1012 -0.2186
16817SOL    HW151029   8.093   4.697   9.238 -0.0155 -1.1126  0.4694
16817SOL    HW251030   8.171   4.606   9.146 -1.0476 -1.4385 -0.0901
16818SOL     OW51031   9.759   9.576   0.062  0.2089  0.1144 -0.0761
16818SOL    HW151032   9.686   9.610   0.010  0.8426  1.6069 -0.0285
16818SOL    HW251033   9.719   9.515   0.124 -0.8462  0.0829 -0.7782
16819SOL     OW51034   5.296   7.879   4.894  0.6658  0.2757 -0.1884
16819SOL    HW151035   5.279   7.967   4.926 -0.8256 -0.5875  1.6180
16819SOL    HW251036   5.223   7.859   4.836 -0.8188 -0.8212  1.8913
16820SOL     OW51037   7.189   1.221   3.906  0.1189 -0.5317 -0.2579
16820SOL    HW151038   7.131   1.164   3.957  0.1607 -1.3892 -1.1507
16820SOL    HW251039   7.274   1.212   3.948  0.0000 -0.6862 -0.0472
16821SOL     OW51040   0.524   0.462   9.345 -0.0002  0.3521 -0.1813
16821SOL    HW151041   0.436   0.482   9.376 -0.1151 -0.4580  0.0397
16821SOL    HW251042   0.521   0.481   9.251 -0.4420  0.2573 -0.1907
16822SOL     OW51043   5.214   6.774   0.311  0.0289  0.5917  0.4103
16822SOL    HW151044   5.183   6.750   0.224 -1.7339  0.8180  0.9389
16822SOL    HW251045   5.135   6.778   0.365  0.9279  1.6749  1.7321
16823SOL     OW51046   1.294   0.128   8.590  0.3928 -0.4485 -0.2437
16823SOL    HW151047   1.251   0.189   8.649  0.4825 -1.3380  0.7810
16823SOL    HW251048   1.387   0.146   8.600  0.3534  0.1697 -0.9848
16824SOL     OW51049   4.204   3.339   0.307 -0.3624  0.4150  0.0105
16824SOL    HW151050   4.285   3.362   0.353 -0.7550  1.3235  0.2630
16824SOL    HW251051   4.221   3.252   0.270 -0.1152 -0.4684  2.0847
16825SOL     OW51052   8.472   7.000   2.325  0.1741 -0.3117 -0.4251
16825SOL    HW151053   8.425   6.920   2.302  0.0080 -0.2448 -0.3189
16825SOL    HW251054   8.555   6.970   2.363  0.0755 -0.4338 -0.3098
16826SOL     OW51055   6.716   3.110   4.117 -0.4229 -0.0928  0.5528
16826SOL    HW151056   6.663   3.114   4.197 -0.8238 -0.0472  0.2916
16826SOL    HW251057   6.683   3.182   4.063  0.0083  0.0274  0.4449
16827SOL     OW51058   5.091   3.079   8.589 -0.3400 -0.2850  0.3648
16827SOL    HW151059   5.037   3.127   8.651 -0.9369  1.9852 -1.7729
16827SOL    HW251060   5.178   3.117   8.598 -0.4524  0.1242 -0.2367
16828SOL     OW51061   5.178   0.376   3.911 -0.1824  0.0771 -0.5073
16828SOL    HW151062   5.202   0.464   3.883  1.2127 -0.1884 -0.2138
16828SOL    HW251063   5.260   0.327   3.908 -0.7428 -0.9409  0.3284
16829SOL     OW51064   9.759   7.040   4.551 -0.2620  0.1006 -0.1353
16829SOL    HW151065   9.681   7.051   4.606  0.3181 -0.7482  0.9126
16829SOL    HW251066   9.778   7.127   4.518  0.6200  1.1680  2.8137
16830SOL     OW51067   5.660   1.210   7.497  0.3566 -0.2898 -0.0260
16830SOL    HW151068   5.605   1.152   7.549 -1.8196  0.5392 -1.2480
16830SOL    HW251069   5.658   1.294   7.544  0.3857 -0.1985 -0.1858
16831SOL     OW51070   5.847   7.236   8.806 -0.1962 -0.1608  0.6247
16831SOL    HW151071   5.791   7.184   8.749  0.9487  0.2478 -0.9087
16831SOL    HW251072   5.920   7.179   8.829  0.0057  0.0939  0.6290
16832SOL     OW51073   6.829   0.514   8.126  0.4650 -0.6337 -0.1394
16832SOL    HW151074   6.844   0.455   8.052 -0.8812  0.1152 -1.0587
16832SOL    HW251075   6.787   0.591   8.087 -0.2415 -0.2043  1.3891
16833SOL     OW51076   0.209   8.674   7.224  0.1074  0.4477  0.2883
16833SOL    HW151077   0.207   8.765   7.196 -0.1634  1.1736  2.4475
16833SOL    HW251078   0.136   8.665   7.285 -0.5214 -1.5190 -0.6592
16834SOL     OW51079   4.633   1.487   7.323 -0.2635 -0.4319  0.3167
16834SOL    HW151080   4.689   1.445   7.257  1.3739  0.3972  1.1069
16834SOL    HW251081   4.668   1.575   7.331 -0.3332 -0.5443  2.3762
16835SOL     OW51082   8.674   6.303   1.093 -0.0778  0.5560  0.0480
16835SOL    HW151083   8.631   6.224   1.127 -0.7310  0.5825 -0.7010
16835SOL    HW251084   8.650   6.372   1.155 -2.2506  0.8564 -1.0564
16836SOL     OW51085   0.488   9.504   7.233 -0.2895 -0.6623  0.8700
16836SOL    HW151086   0.395   9.482   7.225  0.1529 -2.7487  0.7773
16836SOL    HW251087   0.506   9.495   7.327  0.0886 -1.6566  0.7200
16837SOL     OW51088   0.631   6.841   3.301 -0.3281  0.4934 -0.2082
16837SOL    HW151089   0.562   6.843   3.234 -0.1671  0.7954 -0.3647
16837SOL    HW251090   0.697   6.903   3.269 -0.1920  0.5405  0.1661
16838SOL     OW51091   3.100   6.617   9.672 -0.2704 -0.0343 -0.1725
16838SOL    HW151092   3.027   6.666   9.709 -1.0176 -0.3958 -1.1380
16838SOL    HW251093   3.066   6.528   9.659  0.0621  0.0035 -1.4042
16839SOL     OW51094   0.793   4.225   8.741 -0.4762  0.0945  0.0008
16839SOL    HW151095   0.740   4.160   8.788 -0.4272  0.7366  0.9641
16839SOL    HW251096   0.866   4.244   8.800  1.4701 -1.5397 -1.7190
16840SOL     OW51097   4.970   2.648   2.823 -0.6176  0.3523 -0.0318
16840SOL    HW151098   4.882   2.631   2.855 -0.6400  0.4747 -0.0286
16840SOL    HW251099   4.965   2.736   2.785 -1.0991 -0.5239 -2.1376
16841SOL     OW51100   6.026   0.337   7.783 -0.1482 -0.0601 -0.3695
16841SOL    HW151101   5.954   0.302   7.835  0.1071  0.0121  0.0428
16841SOL    HW251102   6.035   0.275   7.710 -0.6402 -0.0527 -0.4410
16842SOL     OW51103   0.374   7.915   2.980  0.1956  0.2354 -0.4769
16842SOL    HW151104   0.376   7.819   2.983  1.7915  0.2534  0.6467
16842SOL    HW251105   0.316   7.940   3.051  1.0567  0.0948  0.2947
16843SOL     OW51106   7.216   7.897   8.294 -0.3512 -0.2144 -0.7157
16843SOL    HW151107   7.185   7.862   8.377 -1.9071 -0.8851 -1.5423
16843SOL    HW251108   7.241   7.820   8.243  1.0292  0.2155 -0.7313
16844SOL     OW51109   8.180   1.241   0.814  0.2813  0.3620  0.4720
16844SOL    HW151110   8.199   1.227   0.721  0.7263 -2.3802  0.8658
16844SOL    HW251111   8.085   1.243   0.819  0.2473  0.2194 -0.0378
16845SOL     OW51112   4.525   0.808   8.582  0.3938 -0.4984 -0.0961
16845SOL    HW151113   4.486   0.890   8.613  1.0984  0.0158 -0.5324
16845SOL    HW251114   4.612   0.806   8.623  0.1772 -1.3070  0.3517
16846SOL     OW51115   9.387   4.607   0.597  0.5589 -0.3043 -0.0648
16846SOL    HW151116   9.371   4.699   0.619  0.6244  0.0480 -1.3922
16846SOL    HW251117   9.478   4.606   0.567  0.2139 -0.5698 -1.1471
16847SOL     OW51118   7.944   7.535   5.160  0.1116  0.0268  0.0816
16847SOL    HW151119   8.014   7.587   5.201 -0.0108  0.8558 -0.7412
16847SOL    HW251120   7.898   7.495   5.234  1.5960 -0.7422  0.6367
16848SOL     OW51121   1.332   0.520   3.729 -0.1327 -0.4606  0.0856
16848SOL    HW151122   1.390   0.482   3.796  0.8107  0.0504 -0.4209
16848SOL    HW251123   1.245   0.515   3.768  0.3410 -0.5760  1.1764
16849SOL     OW51124   3.725   7.812   0.278 -0.1812 -0.0424  0.4853
16849SOL    HW151125   3.778   7.891   0.291  0.2964 -0.2245 -0.3004
16849SOL    HW251126   3.635   7.844   0.274  0.0485  0.5337 -0.3735
16850SOL     OW51127   5.190   3.070   1.953 -0.0255 -0.2928  0.0254
16850SOL    HW151128   5.206   3.128   2.027  0.5851 -1.2757  0.6944
16850SOL    HW251129   5.095   3.062   1.950 -0.0937  0.3506  0.2253
16851SOL     OW51130   3.157   4.359   5.177 -0.1470  0.2033  0.0512
16851SOL    HW151131   3.221   4.295   5.208  1.3345  2.3826  1.8349
16851SOL    HW251132   3.188   4.443   5.213 -3.0923  1.6236 -0.4538
16852SOL     OW51133   1.179   6.787   6.554  0.0550 -0.0228  0.5036
16852SOL    HW151134   1.209   6.824   6.471  0.3577  0.0091  0.6248
16852SOL    HW251135   1.252   6.803   6.614 -1.1669  2.3816  1.4869
16853SOL     OW51136   5.664   4.607   4.540 -0.2066  0.3199  0.1253
16853SOL    HW151137   5.735   4.645   4.593  0.0575  0.9630 -0.6658
16853SOL    HW251138   5.638   4.528   4.588  0.7581  0.3053  0.6521
16854SOL     OW51139   7.052   2.265   3.085 -0.4588 -0.0973  0.2708
16854SOL    HW151140   6.983   2.208   3.051  0.8989 -1.6491 -0.0458
16854SOL    HW251141   7.121   2.204   3.113  1.2454  1.3947 -0.4965
16855SOL     OW51142   2.133   0.522   6.536 -0.6120  0.3620 -0.0874
16855SOL    HW151143   2.045   0.484   6.541 -0.7775  0.8841  2.2390
16855SOL    HW251144   2.190   0.457   6.577  0.2919 -0.3196 -2.2713
16856SOL     OW51145   1.230   9.958   4.934 -0.0055 -0.6466  0.0995
16856SOL    HW151146   1.278  10.004   5.003  2.3439  0.1877 -1.9223
16856SOL    HW251147   1.226   9.867   4.964 -1.0784  0.0681  2.2988
16857SOL     OW51148   7.269   3.383   6.298  0.3225  0.7906  0.0391
16857SOL    HW151149   7.256   3.311   6.360  0.3613 -0.9139 -1.7836
16857SOL    HW251150   7.183   3.424   6.290 -0.9058 -1.8572 -2.0030
16858SOL     OW51151   2.458   2.006   1.224  0.2990 -0.0438 -0.7657
16858SOL    HW151152   2.523   2.012   1.154  0.6686 -3.0605 -0.8184
16858SOL    HW251153   2.387   1.952   1.187 -1.8207  2.2763 -0.3547
16859SOL     OW51154   7.445   3.852   9.498 -0.3690  0.8412  0.0294
16859SOL    HW151155   7.472   3.944   9.491 -1.4488  1.3443  1.6862
16859SOL    HW251156   7.416   3.829   9.410  1.2400  1.6304 -0.7498
16860SOL     OW51157   1.116   6.939   7.605 -0.5255 -0.0981 -0.3390
16860SOL    HW151158   1.121   6.899   7.518 -2.3185  0.2944 -0.6598
16860SOL    HW251159   1.208   6.955   7.629  0.1430 -2.2415 -1.1752
16861SOL     OW51160   4.177   1.808   7.384 -0.1465 -0.1261 -0.0089
16861SOL    HW151161   4.191   1.822   7.477 -1.8793 -2.9248  0.8114
16861SOL    HW251162   4.260   1.832   7.343  0.3209  2.1878  2.0677
16862SOL     OW51163   4.258   8.070   0.153 -0.2239  0.0856  0.2841
16862SOL    HW151164   4.169   8.085   0.119  0.0627  0.8945 -0.1450
16862SOL    HW251165   4.244   8.038   0.242 -0.9827 -1.6260 -0.4103
16863SOL     OW51166   0.589   6.325   5.481 -0.7298 -0.4364 -0.1085
16863SOL    HW151167   0.570   6.233   5.468  0.6837 -0.9777  1.3357
16863SOL    HW251168   0.652   6.327   5.553  0.1039  1.5809 -0.8148
16864SOL     OW51169   0.716   5.309   0.628  0.1402 -0.1970 -0.4509
16864SOL    HW151170   0.659   5.263   0.690  1.0112 -1.1869 -0.3630
16864SOL    HW251171   0.723   5.398   0.664  1.3629 -0.9914  1.3950
16865SOL     OW51172   5.422   9.171   1.527 -0.1035 -0.2902  0.0800
16865SOL    HW151173   5.376   9.093   1.559 -1.2861 -0.2412 -1.4364
16865SOL    HW251174   5.437   9.155   1.434  0.3712  0.9560 -0.0843
16866SOL     OW51175   6.849   4.875   7.859  0.6505  0.4128  0.0001
16866SOL    HW151176   6.862   4.899   7.767  0.3157  2.2496  0.3996
16866SOL    HW251177   6.757   4.852   7.865  0.3679  1.5135  0.1065
16867SOL     OW51178   4.956   6.978   5.824 -0.0776 -0.0151  0.0745
16867SOL    HW151179   5.034   6.984   5.769  0.6411 -0.4805  1.0265
16867SOL    HW251180   4.955   7.059   5.874 -0.9448  0.5819 -0.8781
16868SOL     OW51181   4.375   0.433   7.193 -0.1757 -0.0255 -0.5700
16868SOL    HW151182   4.425   0.352   7.188 -0.9254 -0.4879 -0.7226
16868SOL    HW251183   4.342   0.447   7.104  0.8111  1.0182 -0.7955
16869SOL     OW51184   5.608   0.478   0.137  0.4323 -0.1703  0.0094
16869SOL    HW151185   5.656   0.558   0.113  0.5694  0.1078  1.1353
16869SOL    HW251186   5.536   0.509   0.191  0.6852 -0.8269  0.7425
16870SOL     OW51187   3.415   0.907   6.274 -0.9793 -0.1372  0.4081
16870SOL    HW151188   3.485   0.922   6.337  0.0656 -1.8646 -0.2772
16870SOL    HW251189   3.335   0.908   6.326 -0.5370  2.2698  1.1525
16871SOL     OW51190   5.596   2.682   2.259 -0.6894 -0.5210  0.7560
16871SOL    HW151191   5.507   2.701   2.228 -0.2964  0.8581  0.4474
16871SOL    HW251192   5.584   2.649   2.348 -1.4317  0.9248  1.2157
16872SOL     OW51193   7.200   7.381   3.854  0.2225 -0.2360 -0.6912
16872SOL    HW151194   7.182   7.470   3.823 -0.0641  0.2522  0.7910
16872SOL    HW251195   7.289   7.386   3.889 -0.6331  0.1830  1.6496
16873SOL     OW51196   7.318   5.371   6.168  0.1650 -0.3066 -0.1683
16873SOL    HW151197   7.372   5.425   6.225 -0.3651  0.2033 -0.1410
16873SOL    HW251198   7.275   5.310   6.227 -0.2163  0.0787 -0.0423
16874SOL     OW51199   8.542   3.459   8.689  0.2270  0.8628 -0.4921
16874SOL    HW151200   8.462   3.451   8.637  0.3078  2.3807 -0.8897
16874SOL    HW251201   8.541   3.382   8.746 -1.6270  0.9482 -0.3476
16875SOL     OW51202   4.505   8.183   7.669  0.2047 -0.1229  0.0474
16875SOL    HW151203   4.462   8.268   7.657 -0.8021 -0.4790  0.9744
16875SOL    HW251204   4.472   8.129   7.597  0.4087  0.0895 -0.2114
16876SOL     OW51205   2.864   9.919   3.232  0.5977  0.6458  0.1383
16876SOL    HW151206   2.827  10.004   3.255  0.8087  0.1438  2.7258
16876SOL    HW251207   2.884   9.879   3.317  1.7232 -1.4453 -1.0411
16877SOL     OW51208   0.816   1.169   7.528 -0.4145  0.2902 -0.4385
16877SOL    HW151209   0.720   1.179   7.528 -0.4257  0.5040 -2.1574
16877SOL    HW251210   0.831   1.077   7.549 -1.1048 -0.2360 -2.1321
16878SOL     OW51211   0.670   9.295   1.511 -0.5823  0.0857  0.7150
16878SOL    HW151212   0.584   9.275   1.474 -0.2252 -0.3273  0.0893
16878SOL    HW251213   0.655   9.295   1.606 -1.6581  1.8561  0.6039
16879SOL     OW51214   7.620   1.972   2.826  0.3234  0.5988 -0.3044
16879SOL    HW151215   7.662   2.055   2.803 -2.8233  1.8194 -2.5285
16879SOL    HW251216   7.650   1.910   2.759  0.4408  0.7807 -0.4203
16880SOL     OW51217   5.021   3.284   6.627  0.1313 -0.1701  0.2496
16880SOL    HW151218   5.098   3.324   6.588  0.0147 -0.6316 -0.4531
16880SOL    HW251219   4.950   3.345   6.607  0.1933 -0.0575  0.3634
16881SOL     OW51220   3.155   4.910   5.202 -0.3081 -0.2340 -0.3991
16881SOL    HW151221   3.060   4.915   5.194 -0.3229 -1.5956 -1.6018
16881SOL    HW251222   3.175   4.955   5.284 -2.0208 -0.2352  0.0608
16882SOL     OW51223   0.667   9.685   4.403 -0.7646  0.0781 -0.3165
16882SOL    HW151224   0.726   9.687   4.478 -0.3417 -0.8313 -0.6122
16882SOL    HW251225   0.712   9.631   4.338 -1.1899  0.7387 -1.1754
16883SOL     OW51226   5.343   0.950   5.576 -0.0993  0.0302 -0.2780
16883SOL    HW151227   5.286   0.887   5.532 -0.1347 -0.0727 -0.0855
16883SOL    HW251228   5.284   1.018   5.609 -0.1386 -0.2073  0.1435
16884SOL     OW51229   3.759   1.982   4.521 -0.0937 -0.5023  0.2423
16884SOL    HW151230   3.705   1.939   4.587 -0.3001  0.0101  0.4116
16884SOL    HW251231   3.747   1.930   4.442  0.3277 -1.2493  0.6568
16885SOL     OW51232   2.717   9.488   8.767  0.0081 -0.1668  0.3930
16885SOL    HW151233   2.665   9.446   8.836  1.6295 -1.0033  1.1752
16885SOL    HW251234   2.709   9.429   8.692 -0.8005  0.1241  0.2434
16886SOL     OW51235   6.460   7.391   5.300 -0.5101  0.0863  0.1667
16886SOL    HW151236   6.365   7.382   5.298 -0.6047  0.7953  0.8122
16886SOL    HW251237   6.475   7.485   5.285  0.0952 -0.0688 -0.2158
16887SOL     OW51238   0.067   1.361   2.803 -0.1167  0.2064  0.4160
16887SOL    HW151239   0.047   1.452   2.822 -0.6237  0.0327  0.7219
16887SOL    HW251240   0.091   1.323   2.887  2.3325  0.5911 -0.0239
16888SOL     OW51241   6.720   4.774   7.035 -0.4852  0.1048 -0.4031
16888SOL    HW151242   6.631   4.809   7.026 -0.8091 -0.8138 -0.8300
16888SOL    HW251243   6.714   4.710   7.105 -0.0400  0.3917 -0.0937
16889SOL     OW51244   0.041   8.627   4.380  0.2572 -0.0528 -0.2278
16889SOL    HW151245   0.102   8.569   4.425  0.3604  1.1676  1.2819
16889SOL    HW251246  -0.038   8.625   4.434 -0.2623  0.0798 -0.9691
16890SOL     OW51247   6.904   5.598   5.003 -0.3783 -0.0640 -0.0798
16890SOL    HW151248   6.842   5.629   5.068 -1.4216 -0.0338 -1.0518
16890SOL    HW251249   6.985   5.643   5.024 -0.4284 -0.7118  1.7096
16891SOL     OW51250   3.446   8.035   7.196 -0.7398  0.0867  0.4007
16891SOL    HW151251   3.438   7.946   7.162 -0.1992  0.1646  0.0523
16891SOL    HW251252   3.442   8.025   7.291  0.0940 -0.4026  0.3944
16892SOL     OW51253   8.408   5.550   2.278 -0.0965  0.2629 -0.8411
16892SOL    HW151254   8.462   5.529   2.202  0.5437  0.6555 -0.5041
16892SOL    HW251255   8.357   5.471   2.294 -0.7284  0.3930 -2.0751
16893SOL     OW51256   2.105   5.953   6.559 -0.1781 -0.0274  0.1233
16893SOL    HW151257   2.174   5.897   6.593 -1.2889 -0.4428  1.8458
16893SOL    HW251258   2.116   6.036   6.606 -0.2424  0.2447 -0.3354
16894SOL     OW51259   5.691   8.744   2.581 -0.1911 -0.1546 -0.7611
16894SOL    HW151260   5.650   8.658   2.592 -0.8672  0.2357 -0.1449
16894SOL    HW251261   5.751   8.733   2.506 -0.6503 -1.0149 -1.0126
16895SOL     OW51262   0.265   7.374   9.951 -0.0888 -0.6052 -0.2447
16895SOL    HW151263   0.238   7.282   9.955  0.3105 -0.8191 -1.6456
16895SOL    HW251264   0.351   7.371   9.908  0.8473  0.2889  1.4440
16896SOL     OW51265   4.053   9.707   7.044 -0.3779  0.1074  0.7013
16896SOL    HW151266   4.137   9.709   7.090 -0.3693  0.9350  0.6622
16896SOL    HW251267   3.990   9.741   7.107 -0.6196 -0.1211  0.5879
16897SOL     OW51268   6.772   6.352   3.394  0.0078 -0.1944  0.0297
16897SOL    HW151269   6.794   6.282   3.455 -3.9381 -1.2167  0.5417
16897SOL    HW251270   6.757   6.307   3.310 -0.2867  0.3409 -0.2141
16898SOL     OW51271   5.664   5.561   2.670 -0.3232  0.0555  0.3498
16898SOL    HW151272   5.631   5.538   2.583 -0.8737 -0.3454  0.6591
16898SOL    HW251273   5.651   5.656   2.676  1.0781  0.3378 -0.5656
16899SOL     OW51274   8.945   0.279   9.063 -0.8875 -0.8023  0.0689
16899SOL    HW151275   8.861   0.276   9.018 -0.2368  0.9051 -1.3489
16899SOL    HW251276   8.926   0.319   9.148 -1.7258 -1.8454  0.3932
16900SOL     OW51277   0.672   0.044   8.622 -0.1959 -0.0776 -0.2961
16900SOL    HW151278   0.706   0.004   8.541 -2.9660  2.4088 -2.9317
16900SOL    HW251279   0.725   0.123   8.633  0.2679 -0.4836  0.4749
16901SOL     OW51280   4.274   2.299   0.784 -0.1082  0.0328  0.1320
16901SOL    HW151281   4.271   2.365   0.854 -1.1464 -1.7346  1.8634
16901SOL    HW251282   4.307   2.220   0.827 -0.1085 -0.9308 -1.5648
16902SOL     OW51283   8.773   5.227   3.629 -0.2095  0.3389 -0.0168
16902SOL    HW151284   8.698   5.210   3.571 -0.2873 -1.0059  0.4362
16902SOL    HW251285   8.824   5.293   3.583  0.5634 -1.7849 -2.4547
16903SOL     OW51286   2.789   7.792   5.613 -0.1305  0.5112  1.0906
16903SOL    HW151287   2.696   7.796   5.594  0.0368  0.2111  0.1485
16903SOL    HW251288   2.796   7.816   5.706 -1.0135  1.7193  0.8689
16904SOL     OW51289   9.527   7.856   8.130 -0.0658  0.0210 -0.7554
16904SOL    HW151290   9.443   7.864   8.085 -0.0252 -0.3644 -0.9044
16904SOL    HW251291   9.554   7.947   8.147 -0.9626  0.1316  0.1493
16905SOL     OW51292   5.299   6.495   3.212 -0.0386 -0.0964 -0.1122
16905SOL    HW151293   5.282   6.579   3.253  0.3195 -0.1797  0.2154
16905SOL    HW251294   5.391   6.498   3.187 -0.4932  0.3424 -1.8485
16906SOL     OW51295   2.554   0.157   4.573 -0.0355 -0.1191 -0.3299
16906SOL    HW151296   2.527   0.191   4.488 -0.3710 -0.3475 -0.3184
16906SOL    HW251297   2.650   0.159   4.571 -0.0340 -0.7069 -0.9481
16907SOL     OW51298   0.770   4.564   7.768 -0.2593 -0.1041  0.7377
16907SOL    HW151299   0.759   4.473   7.739 -0.1925  0.2343 -0.3963
16907SOL    HW251300   0.700   4.577   7.832 -0.8144 -0.7023  0.2741
16908SOL     OW51301   9.658   4.270   6.072  0.0082  0.1036  0.4099
16908SOL    HW151302   9.586   4.250   6.012 -0.6158  0.0253  1.1694
16908SOL    HW251303   9.628   4.239   6.158  0.5749  0.8827  0.9113
16909SOL     OW51304   2.048   5.590   1.862 -0.4885  0.1002 -0.4725
16909SOL    HW151305   2.087   5.635   1.937 -0.8007 -2.6947  1.5036
16909SOL    HW251306   1.956   5.612   1.866 -0.3828  0.5571 -0.5055
16910SOL     OW51307   5.600   0.890   5.621 -0.2589 -0.6673 -0.5257
16910SOL    HW151308   5.514   0.905   5.582 -0.6398 -1.1769  0.0866
16910SOL    HW251309   5.600   0.943   5.701  0.6032  0.5558 -1.2908
16911SOL     OW51310   1.914   3.831   5.589 -0.4526 -0.1500  0.9460
16911SOL    HW151311   1.906   3.754   5.532 -3.0199  0.4021  0.4362
16911SOL    HW251312   1.850   3.815   5.659  0.1509  0.8048  1.7374
16912SOL     OW51313   1.580   3.273   6.386 -0.0200 -1.0588  0.9559
16912SOL    HW151314   1.579   3.178   6.400 -3.2937 -1.1891  0.6287
16912SOL    HW251315   1.514   3.306   6.446  0.6285  0.9795  0.6174
16913SOL     OW51316   0.635   2.848   1.737  0.2751  0.2010  0.4876
16913SOL    HW151317   0.595   2.774   1.781  0.7238  0.0955  0.7202
16913SOL    HW251318   0.614   2.836   1.645 -0.3832  0.2459  0.6266
16914SOL     OW51319   8.564   9.668   3.286 -0.5084  0.0685 -0.2987
16914SOL    HW151320   8.538   9.615   3.361  2.9257 -1.2281  0.1527
16914SOL    HW251321   8.560   9.758   3.318  1.6238 -0.4769  1.8419
16915SOL     OW51322   9.099   6.233   5.469 -0.1759 -0.3220 -0.1456
16915SOL    HW151323   9.062   6.181   5.398  2.6436 -0.4032 -1.6698
16915SOL    HW251324   9.154   6.172   5.518  0.7885  0.5305 -0.1316
16916SOL     OW51325   7.160   7.834   1.969 -0.1201 -0.3502  0.0037
16916SOL    HW151326   7.106   7.898   2.015  2.3326  2.0918 -0.2359
16916SOL    HW251327   7.163   7.866   1.879  1.2640 -0.6991 -0.0944
16917SOL     OW51328   7.362   1.100   9.693 -0.1082  0.2779  0.4245
16917SOL    HW151329   7.335   1.053   9.614  2.9463  0.4125 -0.8436
16917SOL    HW251330   7.422   1.040   9.738 -0.7636  0.7278  1.9707
16918SOL     OW51331   5.182   0.158   5.498 -0.0600  0.0111  0.5952
16918SOL    HW151332   5.265   0.119   5.525 -0.0936 -0.1932  0.4055
16918SOL    HW251333   5.164   0.120   5.412  0.2463  0.9589  0.1023
16919SOL     OW51334   7.704   2.888   0.031  0.4101  0.4584  0.1041
16919SOL    HW151335   7.692   2.978   0.064  1.5376  0.6517  0.0156
16919SOL    HW251336   7.794   2.866   0.054 -0.4323 -1.4095  1.9209
16920SOL     OW51337   6.394   5.677   1.818 -0.2514 -0.2011  0.1576
16920SOL    HW151338   6.464   5.742   1.819 -0.2671 -0.1308 -1.2507
16920SOL    HW251339   6.434   5.598   1.852  0.1976  0.1388  0.4328
16921SOL     OW51340   2.718   4.743   7.847 -0.1189  0.0497  0.2453
16921SOL    HW151341   2.776   4.721   7.920  0.1733  2.7683  0.9520
16921SOL    HW251342   2.712   4.838   7.849 -2.3711  0.0415 -1.5814
16922SOL     OW51343   5.159   7.898   1.145  0.1226 -0.8572  0.2601
16922SOL    HW151344   5.082   7.842   1.135  0.0110 -0.8580  1.0487
16922SOL    HW251345   5.179   7.894   1.239  1.1306 -0.9190  0.0499
16923SOL     OW51346   5.874   3.400   6.102  0.3700  0.8375  0.4454
16923SOL    HW151347   5.935   3.470   6.125  1.0841  0.0654  0.9227
16923SOL    HW251348   5.836   3.373   6.185  0.3526  0.4197  0.3026
16924SOL     OW51349   9.612   9.766   4.208 -0.2212 -0.1120  0.3273
16924SOL    HW151350   9.701   9.732   4.221 -0.1843 -0.2244 -0.1904
16924SOL    HW251351   9.618   9.859   4.229 -0.1700 -0.2839  1.0978
16925SOL     OW51352   3.784   1.820   7.334  0.1822 -0.9047 -1.0181
16925SOL    HW151353   3.831   1.753   7.284  0.0511 -0.8945 -1.1547
16925SOL    HW251354   3.692   1.799   7.321  0.1366 -0.5813 -1.2206
16926SOL     OW51355   4.472   7.364   8.757  0.0670 -0.3690  0.0998
16926SOL    HW151356   4.529   7.339   8.830 -0.0202  1.7745  0.9737
16926SOL    HW251357   4.404   7.419   8.797 -0.8813 -0.4104 -1.3727
16927SOL     OW51358   4.046   3.578   0.243 -0.3545  0.0085 -0.2046
16927SOL    HW151359   4.063   3.502   0.298 -1.4862 -0.5970 -0.6436
16927SOL    HW251360   3.999   3.639   0.300  2.2126  1.2625  0.7184
16928SOL     OW51361   3.400   3.145   1.777 -0.2355 -0.4373 -0.5128
16928SOL    HW151362   3.426   3.170   1.688 -0.6263 -3.1231 -1.4980
16928SOL    HW251363   3.467   3.081   1.804  1.2649  2.0356  2.2015
16929SOL     OW51364   3.399   8.808   0.848  0.3915 -0.0905 -0.1787
16929SOL    HW151365   3.404   8.894   0.807  0.2721  0.2707  0.5495
16929SOL    HW251366   3.471   8.759   0.809  1.8048  1.0193  0.9102
16930SOL     OW51367   3.849   3.961   4.780  0.1859 -0.0507  0.9643
16930SOL    HW151368   3.931   4.009   4.769  0.5665 -0.9881 -0.6154
16930SOL    HW251369   3.823   3.938   4.691 -0.8212 -1.3861  1.5666
16931SOL     OW51370   9.235   4.638   5.830 -0.4476  0.1987  0.2827
16931SOL    HW151371   9.281   4.562   5.866 -0.0005  1.2777  2.1098
16931SOL    HW251372   9.183   4.603   5.757  2.1661 -1.3053 -1.0031
16932SOL     OW51373   2.347   5.643   9.602  0.7945 -0.2197 -0.1355
16932SOL    HW151374   2.362   5.619   9.693  0.2848  0.6734  0.1996
16932SOL    HW251375   2.434   5.671   9.570  0.7928  0.3915  0.3753
16933SOL     OW51376   7.327   3.049   1.728 -0.1091 -0.3352 -0.7195
16933SOL    HW151377   7.307   3.001   1.648  0.9141 -0.2946 -1.0164
16933SOL    HW251378   7.423   3.049   1.732 -0.1543 -0.4736  0.5941
16934SOL     OW51379   0.828   5.498   8.114 -0.1599 -0.1849  0.5050
16934SOL    HW151380   0.792   5.511   8.026  0.5742 -1.9383 -0.0934
16934SOL    HW251381   0.793   5.414   8.142  0.9456 -0.4318  1.1990
16935SOL     OW51382   6.539   0.566   4.706  0.3263  0.1803  0.1254
16935SOL    HW151383   6.533   0.601   4.795  1.5767 -0.2114  0.3877
16935SOL    HW251384   6.453   0.583   4.668  0.2522  1.7484  0.8890
16936SOL     OW51385   4.539   2.318   6.362  0.1156  0.4687  0.0663
16936SOL    HW151386   4.543   2.402   6.408 -1.3564  0.3827  0.3992
16936SOL    HW251387   4.484   2.263   6.417 -0.6779 -0.0320 -1.1830
16937SOL     OW51388   9.360   2.679   1.769  0.2264 -0.3777  0.0593
16937SOL    HW151389   9.280   2.701   1.817  0.5888  0.8084  0.1696
16937SOL    HW251390   9.419   2.645   1.837  0.0062 -0.7360  0.0735
16938SOL     OW51391   5.226   4.677   0.710 -0.0135  0.4156 -0.4274
16938SOL    HW151392   5.260   4.673   0.621  2.3174  0.3994  0.4022
16938SOL    HW251393   5.303   4.667   0.766 -1.6937 -2.3135  1.6484
16939SOL     OW51394   9.415   7.045   7.425  0.6436 -0.4942  0.0087
16939SOL    HW151395   9.502   7.011   7.402  1.4786 -0.6157  2.9717
16939SOL    HW251396   9.365   6.967   7.450 -0.6034 -0.4993 -2.2587
16940SOL     OW51397   9.489   7.315   9.110 -0.1961 -0.2604 -0.1707
16940SOL    HW151398   9.456   7.404   9.126  1.1483  0.1775  0.3072
16940SOL    HW251399   9.502   7.312   9.015  1.6088  0.7831 -0.0080
16941SOL     OW51400   8.524   3.163   1.779  0.0794  0.7705  0.7814
16941SOL    HW151401   8.469   3.104   1.726  1.8706  0.0064 -0.3366
16941SOL    HW251402   8.561   3.224   1.715 -0.8525  2.4462  1.7786
16942SOL     OW51403   8.495   2.099   9.540 -0.0709  0.0609 -0.8119
16942SOL    HW151404   8.430   2.031   9.525 -1.4404  1.0700  0.3324
16942SOL    HW251405   8.454   2.159   9.602  2.5792 -0.1752  1.3447
16943SOL     OW51406   8.947   7.311   8.539  0.7213  0.3958 -0.6001
16943SOL    HW151407   9.026   7.286   8.587  0.1569  1.0843  0.7075
16943SOL    HW251408   8.942   7.247   8.467  2.3975  0.2802 -0.6470
16944SOL     OW51409   6.775   1.474   6.886 -0.4528 -0.4255 -0.5044
16944SOL    HW151410   6.833   1.449   6.958  2.8832  3.6432 -1.4046
16944SOL    HW251411   6.779   1.400   6.825  1.0056 -1.7343  1.0906
16945SOL     OW51412   7.819   9.462   0.138 -0.7977  0.0976  0.1737
16945SOL    HW151413   7.882   9.416   0.195 -2.2653 -1.4028  0.6810
16945SOL    HW251414   7.855   9.451   0.050 -0.3406 -0.7374  0.4489
16946SOL     OW51415   2.252   7.039   6.239 -0.0639  0.1252 -0.3824
16946SOL    HW151416   2.268   6.962   6.294 -1.3354  0.1873  0.1109
16946SOL    HW251417   2.219   7.105   6.301 -2.5000 -0.1183 -1.3460
16947SOL     OW51418   5.656   7.124   8.616 -0.1507  0.4445 -0.3481
16947SOL    HW151419   5.570   7.159   8.595 -0.3324  0.0794 -0.2222
16947SOL    HW251420   5.645   7.029   8.613  0.4782  0.3866 -1.3068
16948SOL     OW51421   3.306   8.401   7.611  0.2565  0.0243 -0.1072
16948SOL    HW151422   3.267   8.357   7.535  0.7373 -0.7408  0.0737
16948SOL    HW251423   3.257   8.367   7.686 -0.2168  0.7769 -0.0631
16949SOL     OW51424   3.054   5.269   3.533 -0.3145  0.6189 -0.3955
16949SOL    HW151425   3.111   5.342   3.558  0.0037  1.0768 -2.2812
16949SOL    HW251426   3.082   5.247   3.444  0.1784 -2.3864  0.4053
16950SOL     OW51427   5.145   1.543   8.900 -0.5162  0.4503 -0.1782
16950SOL    HW151428   5.050   1.536   8.892 -0.6559  2.8495 -1.9116
16950SOL    HW251429   5.179   1.465   8.855 -1.7151  1.0108 -2.2107
16951SOL     OW51430   2.179   1.146   8.199 -0.4941  0.2179 -0.6198
16951SOL    HW151431   2.184   1.238   8.172 -0.8368  0.2808 -0.4706
16951SOL    HW251432   2.167   1.150   8.294 -0.8663  0.0241 -0.6603
16952SOL     OW51433   5.360   6.082   1.595  0.2753  0.3582 -0.2277
16952SOL    HW151434   5.347   6.175   1.579  1.2814  0.1322 -2.8497
16952SOL    HW251435   5.432   6.058   1.537 -0.2419 -2.1523  0.0633
16953SOL     OW51436   4.236   1.221   1.344  0.7785 -0.6342  0.0087
16953SOL    HW151437   4.154   1.199   1.389  0.3410  0.4906 -0.2008
16953SOL    HW251438   4.217   1.302   1.297  1.6925 -0.9375 -0.9496
16954SOL     OW51439   8.411   4.739   1.606  0.3308 -0.0204 -0.8638
16954SOL    HW151440   8.383   4.671   1.545  0.4110  1.0718 -2.1518
16954SOL    HW251441   8.504   4.751   1.588  1.2826 -2.0949  1.9094
16955SOL     OW51442   1.192   0.943   8.182  0.1501  0.6765  0.0157
16955SOL    HW151443   1.250   0.895   8.124  0.3975  0.5652  0.3488
16955SOL    HW251444   1.126   0.879   8.209 -0.1249  0.8021 -0.3597
16956SOL     OW51445   3.376   5.854   0.200  0.0582 -0.0643 -0.3941
16956SOL    HW151446   3.378   5.832   0.293 -1.1004  0.1878 -0.2887
16956SOL    HW251447   3.454   5.907   0.185  0.4404 -0.4053  0.3471
16957SOL     OW51448   7.393   0.679   0.931 -0.2177  0.7864 -0.1758
16957SOL    HW151449   7.387   0.588   0.902  0.3478  0.6661  0.0628
16957SOL    HW251450   7.447   0.722   0.865  1.9616  0.2736  1.1648
16958SOL     OW51451   8.722   9.109   2.213 -0.2657  0.1245  0.7503
16958SOL    HW151452   8.751   9.096   2.303  1.0865  1.4359  0.5386
16958SOL    HW251453   8.738   9.201   2.195 -1.2427  0.0688 -0.6001
16959SOL     OW51454   3.594   8.598   5.986 -0.1635 -0.4068  0.2436
16959SOL    HW151455   3.575   8.510   5.955 -0.3742 -0.0665 -0.6423
16959SOL    HW251456   3.588   8.593   6.081 -0.4029 -1.2906  0.1847
16960SOL     OW51457   5.135   3.602   9.540  0.4373  0.3893  0.0188
16960SOL    HW151458   5.086   3.684   9.532 -0.4002  0.0324  1.1719
16960SOL    HW251459   5.203   3.607   9.473 -0.3063  1.5292 -0.6650
16961SOL     OW51460   0.150   4.606   2.038  0.1631 -0.3489  0.0582
16961SOL    HW151461   0.082   4.674   2.042  0.6418  0.1266  0.2768
16961SOL    HW251462   0.129   4.556   1.960  0.5999  0.9209 -0.9154
16962SOL     OW51463   6.216   2.691   4.706  0.1132  1.1089  0.1101
16962SOL    HW151464   6.232   2.742   4.627  0.8675 -1.9142 -1.8704
16962SOL    HW251465   6.302   2.665   4.736 -0.2658 -0.2925  0.0701
16963SOL     OW51466   6.376   8.499   1.429  0.6865 -0.2985 -0.5659
16963SOL    HW151467   6.344   8.465   1.512  0.2725  0.6224 -0.3300
16963SOL    HW251468   6.460   8.455   1.416  0.8368 -0.3320  0.4310
16964SOL     OW51469   5.937   6.461   9.634  0.8121  0.5257  0.6285
16964SOL    HW151470   5.940   6.371   9.603 -2.5118  0.3549  0.4824
16964SOL    HW251471   5.967   6.456   9.725  0.0755 -0.8489  0.8119
16965SOL     OW51472   1.550   9.834   2.326 -0.6098  0.2250 -0.6293
16965SOL    HW151473   1.570   9.873   2.411  1.4931  0.1800 -1.0535
16965SOL    HW251474   1.463   9.870   2.303 -0.1649  2.1341  0.4466
16966SOL     OW51475   9.689   7.729   4.408 -0.1612  0.0747  0.4709
16966SOL    HW151476   9.642   7.812   4.400  0.6704  0.4605 -0.9607
16966SOL    HW251477   9.782   7.754   4.405  0.1329 -1.0024 -2.2840
16967SOL     OW51478   7.447   3.146   1.314 -0.3600 -0.0893 -0.1436
16967SOL    HW151479   7.420   3.155   1.223 -1.0239 -1.6283 -0.1310
16967SOL    HW251480   7.505   3.070   1.314 -0.8876 -0.5035  0.8167
16968SOL     OW51481   3.504   9.257   9.254  0.0580 -1.1021  0.3196
16968SOL    HW151482   3.584   9.298   9.223  0.5177 -2.5762 -0.5499
16968SOL    HW251483   3.479   9.197   9.184 -0.6400 -2.2221  1.4812
16969SOL     OW51484   8.363   4.322   7.842 -1.0049 -0.0593 -0.1964
16969SOL    HW151485   8.308   4.291   7.770 -1.1142  0.6006 -0.4080
16969SOL    HW251486   8.304   4.327   7.917 -0.7155 -1.5031  0.1546
16970SOL     OW51487   3.992   2.195   2.330  0.5671  0.8547 -0.0383
16970SOL    HW151488   3.929   2.267   2.330  0.3923  0.7718 -2.0706
16970SOL    HW251489   4.064   2.227   2.275  0.0108 -0.8569 -1.8639
16971SOL     OW51490   1.775   2.101   5.885 -0.3059 -0.0161 -0.0027
16971SOL    HW151491   1.866   2.098   5.856 -0.5190  0.6026 -0.7592
16971SOL    HW251492   1.760   2.193   5.907 -0.9585  0.0204 -0.5808
16972SOL     OW51493   5.135   8.357   5.469 -0.8310  0.2932  0.0758
16972SOL    HW151494   5.143   8.382   5.377 -2.0268  0.3455 -0.0334
16972SOL    HW251495   5.222   8.374   5.506  1.0443 -3.6506 -1.9334
16973SOL     OW51496   2.813   2.512   0.760 -0.0924 -0.0611 -0.4702
16973SOL    HW151497   2.876   2.442   0.744  0.3599  0.5462 -1.4772
16973SOL    HW251498   2.779   2.495   0.848 -0.5917 -1.9855 -0.9978
16974SOL     OW51499   0.037   3.179   4.845 -0.3078 -0.7003  0.2781
16974SOL    HW151500   0.075   3.242   4.905 -0.5613 -2.2794  2.1833
16974SOL    HW251501  -0.030   3.228   4.798  2.2053  1.4571 -1.3160
16975SOL     OW51502   9.120   6.959   0.865  0.2664 -0.0410 -0.5451
16975SOL    HW151503   9.134   7.048   0.835 -1.0805  0.3204 -0.1703
16975SOL    HW251504   9.026   6.945   0.856  0.4236 -1.3478 -0.3787
16976SOL     OW51505   7.811   3.995   7.531  0.9533  0.3341  0.1718
16976SOL    HW151506   7.859   3.912   7.532  2.9260  1.3770 -1.1495
16976SOL    HW251507   7.784   4.006   7.439 -1.0572  0.2406  0.7042
16977SOL     OW51508   9.404   0.314   8.182 -0.1361  0.4608 -0.2839
16977SOL    HW151509   9.364   0.227   8.169  0.8741 -0.1074  0.3260
16977SOL    HW251510   9.348   0.373   8.132 -0.6817 -0.5834 -0.9493
16978SOL     OW51511   5.301   0.380   7.502 -0.5574  0.2585 -0.2995
16978SOL    HW151512   5.231   0.434   7.537  0.0031  0.3683  0.6861
16978SOL    HW251513   5.256   0.305   7.462 -1.3740  1.6321 -2.1048
16979SOL     OW51514   6.880   1.018   8.363  0.0782 -0.4474  0.0452
16979SOL    HW151515   6.880   0.941   8.307 -0.6735 -1.5474  1.5068
16979SOL    HW251516   6.883   1.092   8.302 -1.0889 -1.5837 -1.4614
16980SOL     OW51517   7.727   5.825   2.094  0.2877  0.0166 -0.0485
16980SOL    HW151518   7.744   5.760   2.162  1.9740 -0.0167 -0.4683
16980SOL    HW251519   7.718   5.907   2.142 -0.1655 -0.2494  0.3361
16981SOL     OW51520   3.669   8.746   9.416 -0.3224  0.6552 -0.2187
16981SOL    HW151521   3.653   8.835   9.386 -1.2486  0.4832 -0.2646
16981SOL    HW251522   3.611   8.735   9.492 -0.8520 -0.1789 -0.7268
16982SOL     OW51523   2.079   7.307   2.030 -0.4424 -0.2010  0.1889
16982SOL    HW151524   2.128   7.269   2.102 -0.6817 -0.2629  0.3165
16982SOL    HW251525   2.017   7.239   2.003  0.7921 -0.8463 -1.2032
16983SOL     OW51526   6.934   0.431   4.912 -0.3118 -0.1453  0.1624
16983SOL    HW151527   6.969   0.506   4.865 -0.6621 -0.2937 -0.3391
16983SOL    HW251528   7.011   0.389   4.951 -0.1961  0.9591  1.1799
16984SOL     OW51529   3.386   1.884   3.040 -0.2819  1.1125 -0.0952
16984SOL    HW151530   3.474   1.846   3.032 -1.1837 -0.9698 -1.0509
16984SOL    HW251531   3.384   1.956   2.977  0.3903  0.4225 -0.9281
16985SOL     OW51532   8.543   1.549   1.623 -0.0405 -0.3251  0.1632
16985SOL    HW151533   8.487   1.483   1.583  0.6288 -0.4892 -0.5313
16985SOL    HW251534   8.601   1.500   1.682  0.8537 -0.4575 -0.7951
16986SOL     OW51535   0.708   2.765   1.269 -0.4065  0.4133 -0.1055
16986SOL    HW151536   0.638   2.785   1.331  0.1687  0.0405  0.6774
16986SOL    HW251537   0.664   2.760   1.184 -1.0047  2.1537  0.0725
16987SOL     OW51538   6.693   8.204   4.916 -0.2000  0.1536  0.0230
16987SOL    HW151539   6.747   8.130   4.942  0.8231  1.4399  1.7278
16987SOL    HW251540   6.642   8.226   4.994 -0.9927  0.8427 -0.6597
16988SOL     OW51541   0.671   1.676   3.911 -0.0262  0.4154  0.3054
16988SOL    HW151542   0.644   1.764   3.939  3.1594  1.8586 -0.7106
16988SOL    HW251543   0.671   1.681   3.815 -0.4156 -0.9374  0.2189
16989SOL     OW51544   7.811   0.136   5.814 -0.3656 -0.2558 -0.6935
16989SOL    HW151545   7.729   0.183   5.829  0.7958  1.3867  0.8611
16989SOL    HW251546   7.850   0.180   5.738 -0.2507 -0.0555 -0.5207
16990SOL     OW51547   0.969   6.001   2.392 -0.4045 -0.2316  0.4313
16990SOL    HW151548   0.874   5.998   2.408 -0.3086 -2.7887  0.9169
16990SOL    HW251549   0.985   5.928   2.333  1.1522  0.8691 -0.5607
16991SOL     OW51550   6.986   4.427   1.066  0.2351  0.0919 -0.7489
16991SOL    HW151551   7.012   4.512   1.100 -2.2030  1.2392 -1.5083
16991SOL    HW251552   6.970   4.374   1.144 -3.3383  2.0619  0.0976
16992SOL     OW51553   9.472   0.332   3.800 -0.0607  0.0263  0.1743
16992SOL    HW151554   9.484   0.237   3.809 -0.6780 -0.1856 -1.0674
16992SOL    HW251555   9.561   0.367   3.793  0.1861 -0.4126  0.9700
16993SOL     OW51556   3.257   3.563   1.078  0.5274 -0.2836 -0.1303
16993SOL    HW151557   3.170   3.601   1.084  0.2984 -0.9099  1.0751
16993SOL    HW251558   3.248   3.491   1.016  0.1535 -0.3833  0.0349
16994SOL     OW51559   2.391   3.814   7.714  0.6832  0.0142  0.0217
16994SOL    HW151560   2.309   3.863   7.708  1.7554  1.9361  0.2856
16994SOL    HW251561   2.364   3.722   7.714 -1.4664  0.5903  0.2581
16995SOL     OW51562   6.479   2.452   4.542  0.4601 -0.6325  0.2135
16995SOL    HW151563   6.517   2.366   4.562  0.2341 -0.3020  2.2561
16995SOL    HW251564   6.395   2.431   4.501  0.8366 -1.3627 -0.2287
16996SOL     OW51565   6.085   0.245   1.383  0.3044 -0.2413  0.0207
16996SOL    HW151566   6.086   0.155   1.352  0.3409 -0.0118 -0.6704
16996SOL    HW251567   5.994   0.274   1.370  0.1480 -0.3640  0.8057
16997SOL     OW51568   1.518   0.253   9.897 -0.2300 -0.1779 -0.0664
16997SOL    HW151569   1.456   0.302   9.843 -0.0740  0.8502  0.6618
16997SOL    HW251570   1.517   0.298   9.982  3.7074  1.7970 -0.8348
16998SOL     OW51571   9.876   8.808   0.339  0.3643 -0.1663 -0.4624
16998SOL    HW151572   9.781   8.813   0.351  0.6392  1.9198  1.7488
16998SOL    HW251573   9.904   8.736   0.396  0.1368 -0.7755 -1.1068
16999SOL     OW51574   5.974   7.770   9.444  0.4146 -0.3277  0.1746
16999SOL    HW151575   6.053   7.767   9.498  1.4135 -0.8809 -1.2666
16999SOL    HW251576   5.907   7.805   9.503  1.4965 -0.6857  1.7036
17000SOL     OW51577   7.491   9.875   5.050  0.0999 -0.2561  0.4066
17000SOL    HW151578   7.558   9.942   5.060  0.1833 -0.3829  0.7262
17000SOL    HW251579   7.495   9.825   5.132 -1.4524  0.6937  1.1034
17001SOL     OW51580   5.098   7.114   1.234  0.1649 -0.5455 -0.1333
17001SOL    HW151581   5.175   7.058   1.223  1.5053  1.4148 -1.3698
17001SOL    HW251582   5.133   7.198   1.263 -1.4921  0.4826 -0.9445
17002SOL     OW51583   3.448   5.066   0.304  0.0097 -0.1641 -0.0035
17002SOL    HW151584   3.400   5.122   0.243  0.5885 -0.7931 -1.0430
17002SOL    HW251585   3.539   5.074   0.278  0.6342  1.5036  2.3375
17003SOL     OW51586   2.437   7.700   9.738  0.1258  0.2887 -0.1997
17003SOL    HW151587   2.502   7.710   9.669  0.7128 -1.5979  0.0256
17003SOL    HW251588   2.486   7.665   9.812 -0.8352  0.5313  0.5797
17004SOL     OW51589   1.743   5.973   7.729 -0.3859 -0.0617  0.4554
17004SOL    HW151590   1.804   5.991   7.801  0.6627  0.9823 -0.6433
17004SOL    HW251591   1.743   5.878   7.722 -0.6636 -0.1996  1.9446
17005SOL     OW51592   8.573   2.656   9.196  0.3297 -0.1314 -0.0292
17005SOL    HW151593   8.610   2.610   9.271 -0.5416 -0.8942 -0.0444
17005SOL    HW251594   8.547   2.586   9.136 -0.1452  0.4183 -0.4764
17006SOL     OW51595   6.696   1.474   8.524  0.0524 -0.3385  0.1112
17006SOL    HW151596   6.630   1.439   8.585  1.2713  0.1213  1.7842
17006SOL    HW251597   6.757   1.401   8.511  0.0331 -0.2969 -0.2012
17007SOL     OW51598   7.715   1.848   3.063  0.0878 -0.0501  0.1842
17007SOL    HW151599   7.744   1.914   3.125  0.3845  0.3101 -0.3341
17007SOL    HW251600   7.693   1.897   2.983 -0.5176 -0.4760  0.0739
17008SOL     OW51601   9.542   7.490   6.144 -0.7240  0.4972 -0.5845
17008SOL    HW151602   9.498   7.494   6.229  1.2979  2.0715  0.4577
17008SOL    HW251603   9.523   7.401   6.113 -0.7470 -0.4757  1.9422
17009SOL     OW51604   6.660   5.007   3.136  0.1529  0.2842 -0.1474
17009SOL    HW151605   6.633   5.094   3.167  0.4606  0.5975 -0.7391
17009SOL    HW251606   6.753   5.003   3.154 -0.3988 -1.3066  3.1048
17010SOL     OW51607   4.847   9.175   0.981 -0.6462  0.2610  0.9231
17010SOL    HW151608   4.886   9.248   0.933  0.2617 -0.3599  0.6809
17010SOL    HW251609   4.880   9.096   0.937 -1.3428 -0.2999  1.3743
17011SOL     OW51610   0.603   6.468   5.258  0.4479 -0.2586  0.0577
17011SOL    HW151611   0.509   6.482   5.265  0.6527  0.9587  0.6382
17011SOL    HW251612   0.622   6.393   5.314  0.1716  1.1080  2.0694
17012SOL     OW51613   8.031   0.602   4.266 -0.0691 -0.2743  0.0654
17012SOL    HW151614   8.120   0.581   4.238 -1.0350 -3.7355 -0.8608
17012SOL    HW251615   7.977   0.589   4.188 -1.8968 -2.7447  1.5973
17013SOL     OW51616   5.759   9.527   7.058  0.0440 -0.0762  0.5430
17013SOL    HW151617   5.845   9.549   7.094  0.9379  1.3392 -2.1660
17013SOL    HW251618   5.760   9.432   7.050  1.1211 -0.1210  1.0703
17014SOL     OW51619   4.566   1.929   7.704  0.1851  0.4689  0.4048
17014SOL    HW151620   4.492   1.985   7.728 -1.2761 -0.8040 -0.8782
17014SOL    HW251621   4.544   1.896   7.616  1.1097 -1.8476  0.9669
17015SOL     OW51622   8.112   7.868   6.521  0.6499 -0.0987 -0.1408
17015SOL    HW151623   8.116   7.773   6.518  1.9764 -0.0588 -0.2296
17015SOL    HW251624   8.133   7.890   6.612  0.0128  0.1062 -0.0375
17016SOL     OW51625   2.696   7.641   8.177 -0.0259  0.1164 -0.9603
17016SOL    HW151626   2.675   7.550   8.159  0.6056 -0.0964 -0.6425
17016SOL    HW251627   2.717   7.644   8.270  1.0965  0.3535 -1.2043
17017SOL     OW51628   7.364   8.904   8.082  0.1238  0.2185  0.0074
17017SOL    HW151629   7.408   8.827   8.118 -0.3869 -0.2144 -0.2861
17017SOL    HW251630   7.324   8.873   8.000  1.2995  1.1941 -0.9737
17018SOL     OW51631   1.903   2.296   9.805 -0.0718  0.0122  0.3118
17018SOL    HW151632   1.897   2.238   9.729 -0.4579 -1.2428  1.2563
17018SOL    HW251633   1.980   2.264   9.853 -0.3780  0.1810  0.9244
17019SOL     OW51634   0.257   9.676   7.885  0.3672 -0.5493  0.2067
17019SOL    HW151635   0.334   9.692   7.831  0.6480 -1.6420  0.2555
17019SOL    HW251636   0.262   9.740   7.955 -0.1325  1.0606 -1.1761
17020SOL     OW51637   3.320   9.864   9.219  0.0763 -0.1553 -0.0260
17020SOL    HW151638   3.365   9.814   9.287  0.5415 -0.5970 -0.6513
17020SOL    HW251639   3.280   9.798   9.163 -0.5400  0.2161 -0.0372
17021SOL     OW51640   7.151   6.519   4.802  0.2617  0.1528 -0.1670
17021SOL    HW151641   7.196   6.604   4.798 -1.7933  1.3982  1.0171
17021SOL    HW251642   7.119   6.513   4.892  0.2086 -1.8421 -0.2719
17022SOL     OW51643   2.038   0.738   3.719  0.3622  0.1538  0.0890
17022SOL    HW151644   1.951   0.740   3.758  0.5262 -1.0689  0.5490
17022SOL    HW251645   2.058   0.830   3.700 -0.4862  0.5773  1.1667
17023SOL     OW51646   9.211   4.159   9.252 -0.5898 -0.4707  0.2761
17023SOL    HW151647   9.177   4.069   9.251 -0.4324 -0.5386  0.8320
17023SOL    HW251648   9.204   4.187   9.343  2.1556 -1.0100  0.7687
17024SOL     OW51649   7.201   4.603   7.513  0.0040  0.3239 -0.0934
17024SOL    HW151650   7.291   4.633   7.501  0.1003 -0.5715 -2.0034
17024SOL    HW251651   7.148   4.661   7.458 -0.4961  0.3340  0.3816
17025SOL     OW51652   0.939   4.103   7.734  0.2180  0.1558 -0.3020
17025SOL    HW151653   0.901   4.015   7.740  0.1576  0.2485  0.8252
17025SOL    HW251654   0.950   4.131   7.825  1.0568  0.9703 -0.6395
17026SOL     OW51655   9.955   4.262   5.396 -0.1723 -0.1966  0.5525
17026SOL    HW151656   9.950   4.182   5.448  1.7765 -0.8741 -0.2016
17026SOL    HW251657  10.027   4.246   5.334  0.3637  2.1726  0.4670
17027SOL     OW51658   5.518   9.079   5.698  0.1440 -0.3487 -0.0896
17027SOL    HW151659   5.475   9.031   5.770  0.6785 -1.1530 -0.2888
17027SOL    HW251660   5.446   9.118   5.649 -0.2511 -0.1160  0.6624
17028SOL     OW51661   2.493   1.358   4.553 -0.7182  0.4284 -0.6157
17028SOL    HW151662   2.495   1.421   4.625  0.7470 -1.1763  0.8340
17028SOL    HW251663   2.478   1.411   4.475  0.7517  2.6111  0.4852
17029SOL     OW51664   3.695   3.446   9.775  0.2800  0.2239  0.5669
17029SOL    HW151665   3.703   3.483   9.863 -1.1342  0.0919  0.7708
17029SOL    HW251666   3.715   3.519   9.716  1.0487  0.3606  0.9805
17030SOL     OW51667   6.342   5.054   0.182  0.5798 -0.4399 -0.3348
17030SOL    HW151668   6.306   4.990   0.243  1.4931  0.3802  1.1398
17030SOL    HW251669   6.296   5.038   0.100  1.4604 -3.6387 -0.3480
17031SOL     OW51670   4.130   9.887   4.162  0.5153  0.0331  0.0570
17031SOL    HW151671   4.062   9.829   4.127  0.3077  0.1352  0.2886
17031SOL    HW251672   4.082   9.956   4.208  0.7858 -0.3042  0.8781
17032SOL     OW51673   5.577   3.417   0.408 -0.3042 -0.7326 -0.0209
17032SOL    HW151674   5.598   3.464   0.327 -1.5935 -2.5188 -1.5041
17032SOL    HW251675   5.541   3.483   0.467 -0.0261  0.5029 -1.2021
17033SOL     OW51676   5.902   0.358   7.206  0.3563  0.0020 -0.3952
17033SOL    HW151677   5.991   0.386   7.185  0.4892 -1.4020 -1.8920
17033SOL    HW251678   5.851   0.438   7.204  1.4021  0.6912 -0.5156
17034SOL     OW51679   4.234   4.300   4.881  0.0986 -0.2490 -0.0463
17034SOL    HW151680   4.298   4.243   4.924 -2.1250 -2.8234  0.0890
17034SOL    HW251681   4.193   4.347   4.954  1.0100  0.5866 -0.0439
17035SOL     OW51682   6.955   0.090   1.475 -0.7165  0.3760 -0.0352
17035SOL    HW151683   6.974   0.143   1.398 -1.0056 -1.8262 -1.6944
17035SOL    HW251684   7.039   0.049   1.498 -0.7193  0.7015  0.5882
17036SOL     OW51685   7.098   2.966   8.212  0.1809  0.0023 -0.5953
17036SOL    HW151686   7.169   3.008   8.260 -0.4918  0.8309 -0.3083
17036SOL    HW251687   7.028   2.955   8.276 -0.4674  0.4806 -1.2013
17037SOL     OW51688   6.290   3.926   9.229 -0.4323 -0.3363  1.1027
17037SOL    HW151689   6.374   3.960   9.197 -0.1771 -0.0082  2.0793
17037SOL    HW251690   6.289   3.950   9.322 -1.3851 -0.7874  1.2150
17038SOL     OW51691   2.459   4.790   5.131 -0.0651  0.1819 -0.1543
17038SOL    HW151692   2.529   4.725   5.124 -1.6929 -1.6539 -0.2819
17038SOL    HW251693   2.479   4.854   5.062  1.1526 -0.6287 -0.5935
17039SOL     OW51694   1.820   0.214   2.661  0.0530 -0.1750  0.2039
17039SOL    HW151695   1.830   0.294   2.712 -0.7291 -0.7526  1.2981
17039SOL    HW251696   1.814   0.144   2.726  0.5616 -1.1168 -0.7243
17040SOL     OW51697   5.371   5.808   5.704 -0.2332 -0.3278  0.2220
17040SOL    HW151698   5.447   5.764   5.744 -0.7315 -1.9558 -0.5421
17040SOL    HW251699   5.297   5.780   5.757 -0.3901  0.9549  0.7247
17041SOL     OW51700   8.892   6.224   0.002  0.1346  0.2652  0.4019
17041SOL    HW151701   8.892   6.320   0.001 -1.2747  0.2878  1.0826
17041SOL    HW251702   8.819   6.200   0.058 -0.7024 -1.2214 -1.2160
17042SOL     OW51703   8.760   7.645   6.418 -0.3906 -0.2395  0.1210
17042SOL    HW151704   8.801   7.598   6.345  0.4718 -0.1232  0.5156
17042SOL    HW251705   8.814   7.723   6.429 -1.1542  0.2803  0.1960
17043SOL     OW51706   7.699   2.787   8.036 -0.1710  0.0702 -0.2974
17043SOL    HW151707   7.757   2.811   8.108  0.8176 -0.0754 -1.0265
17043SOL    HW251708   7.675   2.696   8.054  1.4527 -0.5307 -1.0275
17044SOL     OW51709   6.498   4.085   9.078  0.0152  0.0545  0.5923
17044SOL    HW151710   6.573   4.065   9.134  0.1411 -3.2412 -0.5277
17044SOL    HW251711   6.536   4.115   8.996  0.1437 -1.1117  0.2052
17045SOL     OW51712   7.360   6.081   7.666  0.4814 -0.5569 -0.1329
17045SOL    HW151713   7.350   6.070   7.572 -0.6294 -2.7177  0.1747
17045SOL    HW251714   7.297   6.020   7.704  2.2195 -1.1777  2.0079
17046SOL     OW51715   6.414   9.299   5.712  1.1932  0.0978 -0.1620
17046SOL    HW151716   6.329   9.306   5.668  0.9464 -4.4445 -0.8984
17046SOL    HW251717   6.403   9.346   5.794 -2.3544 -0.9243  0.1090
17047SOL     OW51718   4.528   1.804   3.890 -0.3092  0.4892 -0.1276
17047SOL    HW151719   4.553   1.736   3.953 -0.9135 -0.2960 -0.7067
17047SOL    HW251720   4.435   1.787   3.872  0.2040 -0.2708 -2.3574
17048SOL     OW51721   3.122   2.261   6.819 -0.9640 -0.2687  0.8146
17048SOL    HW151722   3.165   2.210   6.750 -0.4714  1.4059 -0.1855
17048SOL    HW251723   3.194   2.306   6.863 -1.4507  0.3737  0.9666
17049SOL     OW51724   8.991   5.848   8.231  0.7178  0.1706 -0.1197
17049SOL    HW151725   8.935   5.775   8.206  1.0724  0.0612 -0.6167
17049SOL    HW251726   8.931   5.918   8.254  0.3556  0.3596 -1.5496
17050SOL     OW51727   9.227   6.627   4.531 -0.6243  0.3485  0.3834
17050SOL    HW151728   9.246   6.570   4.606 -0.3528  0.3698  0.3329
17050SOL    HW251729   9.300   6.689   4.530  0.4541 -0.8370 -1.0643
17051SOL     OW51730   9.036   6.589   0.819  0.3964 -0.5487 -1.0051
17051SOL    HW151731   8.964   6.526   0.826 -0.0918 -0.0212 -1.2182
17051SOL    HW251732   9.001   6.670   0.855  1.3905 -0.6801  0.3511
17052SOL     OW51733   0.546   9.363   5.550 -0.2641  0.3103 -0.3427
17052SOL    HW151734   0.611   9.400   5.491  0.3489 -0.7711 -0.3794
17052SOL    HW251735   0.545   9.269   5.529 -0.4656  0.0042  0.9354
17053SOL     OW51736   0.784   7.399   7.005 -0.0373  0.0196 -0.4873
17053SOL    HW151737   0.778   7.311   6.969  0.4078 -0.3061  0.2070
17053SOL    HW251738   0.838   7.448   6.942  1.3688 -0.7412  0.0915
17054SOL     OW51739   3.910   7.877   2.506 -0.6227 -0.1930 -0.1278
17054SOL    HW151740   3.890   7.905   2.417  0.0382  0.1069 -0.1847
17054SOL    HW251741   3.981   7.813   2.496 -0.7022 -0.3295  0.1619
17055SOL     OW51742   9.669   2.220   4.361  0.0712 -0.1255  0.0156
17055SOL    HW151743   9.648   2.283   4.292 -0.4409 -0.4048 -0.0860
17055SOL    HW251744   9.722   2.270   4.423  3.3820 -0.6526 -2.1173
17056SOL     OW51745   7.048   7.461   5.677 -0.5208  0.0288  0.0940
17056SOL    HW151746   7.065   7.506   5.760 -0.6632 -0.3801  0.3447
17056SOL    HW251747   7.042   7.369   5.700  0.2054 -0.1723 -0.4902
17057SOL     OW51748   4.450   5.196   9.435  0.7673 -0.5138 -0.3834
17057SOL    HW151749   4.442   5.164   9.345 -2.4398 -1.6902  0.1860
17057SOL    HW251750   4.512   5.136   9.476  1.3056 -0.7349 -1.4789
17058SOL     OW51751   8.000   7.595   8.078  0.4922 -0.1002 -0.0768
17058SOL    HW151752   7.951   7.653   8.136  0.8588  1.5390 -1.3482
17058SOL    HW251753   7.932   7.544   8.033  0.0725  0.4558 -0.0883
17059SOL     OW51754   4.691   5.596   0.554  0.4259  0.0478  0.2779
17059SOL    HW151755   4.642   5.547   0.488  0.8626 -0.5241  0.3695
17059SOL    HW251756   4.778   5.607   0.515  0.2159  1.1420  0.0724
17060SOL     OW51757   3.747   0.139   0.478 -0.2515 -0.2740  0.2286
17060SOL    HW151758   3.784   0.053   0.495  0.3049  0.0755  0.8532
17060SOL    HW251759   3.774   0.192   0.553 -2.4433 -0.1153  0.9815
17061SOL     OW51760   9.359   3.246   5.241 -0.3507  0.6437 -0.0516
17061SOL    HW151761   9.368   3.171   5.299  0.2854  0.1901 -0.7139
17061SOL    HW251762   9.271   3.280   5.258 -0.7594 -0.4362  0.0377
17062SOL     OW51763   3.022   9.451   5.240 -0.0922  0.0537 -0.6640
17062SOL    HW151764   2.953   9.429   5.302  0.6375 -0.6011 -0.0679
17062SOL    HW251765   3.087   9.498   5.292 -0.6040  1.7510 -1.4634
17063SOL     OW51766   3.011   6.349   8.369  0.1737 -0.5099  0.2558
17063SOL    HW151767   2.933   6.318   8.323  0.4512 -1.0967  0.1665
17063SOL    HW251768   3.078   6.354   8.301  0.3360 -0.4671  0.4184
17064SOL     OW51769   7.569   2.005   6.599 -0.0688  0.1922  0.2492
17064SOL    HW151770   7.544   1.996   6.691  1.7777 -0.2293  0.7412
17064SOL    HW251771   7.662   1.983   6.597 -0.1062  0.0655 -1.7525
17065SOL     OW51772   8.403   5.097   7.191 -0.5035 -0.0935  0.3730
17065SOL    HW151773   8.402   5.084   7.097 -0.3736 -1.2702  0.5145
17065SOL    HW251774   8.317   5.135   7.211 -0.7964 -0.4748 -0.1392
17066SOL     OW51775   6.993   8.235   8.537 -0.0506  0.4874  0.4039
17066SOL    HW151776   7.021   8.317   8.578 -0.6864  1.3954 -0.8843
17066SOL    HW251777   6.993   8.254   8.443  2.5225 -1.8617 -0.2122
17067SOL     OW51778   3.413   0.464   8.229 -0.9914 -0.4319 -0.5016
17067SOL    HW151779   3.379   0.526   8.165 -0.1314  3.8137  2.7065
17067SOL    HW251780   3.342   0.451   8.291  0.0429  0.6554  0.9873
17068SOL     OW51781   9.947   0.284   1.970  0.6168  0.6987  0.0276
17068SOL    HW151782   9.907   0.360   1.928 -2.1344 -0.2867  0.6939
17068SOL    HW251783   9.874   0.233   2.003  2.4589 -1.3119  1.2783
17069SOL     OW51784   1.441   9.034   3.132  0.3789  0.1467  0.0569
17069SOL    HW151785   1.444   9.075   3.218 -3.3308 -0.2430  0.5256
17069SOL    HW251786   1.468   9.102   3.071 -1.6003  2.0330  1.1744
17070SOL     OW51787   9.472   0.844   8.362 -0.1322  0.2854  0.0395
17070SOL    HW151788   9.435   0.888   8.285  0.4210 -1.5330 -1.3366
17070SOL    HW251789   9.567   0.845   8.347 -0.0949 -1.1812  0.0434
17071SOL     OW51790   2.612   7.082   6.975  0.0046 -0.2421  0.2672
17071SOL    HW151791   2.656   7.044   7.051  1.9876 -0.1479 -0.7857
17071SOL    HW251792   2.681   7.098   6.912 -1.0462  2.7988 -0.3206
17072SOL     OW51793   5.871   6.619   0.336  0.5735  0.1704  0.2034
17072SOL    HW151794   5.897   6.540   0.384 -2.0626 -0.3653  0.8691
17072SOL    HW251795   5.891   6.691   0.395 -0.1843 -0.2826  1.0349
17073SOL     OW51796   9.710   5.806   6.418  0.1429 -0.2177 -0.0929
17073SOL    HW151797   9.684   5.853   6.340  1.1273 -1.2102 -1.0558
17073SOL    HW251798   9.727   5.874   6.483 -1.0462  0.5954 -0.6066
17074SOL     OW51799   1.873   2.783   6.918  0.3452  0.0635 -0.3964
17074SOL    HW151800   1.964   2.754   6.926  0.0642 -1.1784 -1.4227
17074SOL    HW251801   1.871   2.838   6.840  0.4371  1.1300  0.3266
17075SOL     OW51802   1.989   5.514   6.118  0.1342 -0.7638 -0.4033
17075SOL    HW151803   2.042   5.557   6.186 -0.1818 -0.9339 -0.0448
17075SOL    HW251804   1.985   5.578   6.047  0.9901 -0.8307 -0.5192
17076SOL     OW51805   5.662   4.440   3.940 -0.1926  0.0039  0.1315
17076SOL    HW151806   5.652   4.534   3.924 -1.0044 -0.2628 -1.1062
17076SOL    HW251807   5.583   4.401   3.903  1.0841 -1.3651 -1.3379
17077SOL     OW51808   3.099   8.900   2.435  0.4250  0.0258 -0.4733
17077SOL    HW151809   3.118   8.817   2.391  2.6188  0.5869 -0.6971
17077SOL    HW251810   3.058   8.954   2.367  0.6870 -0.2641 -0.8682
17078SOL     OW51811   6.741   0.614   2.047 -0.6807 -0.3293 -0.1921
17078SOL    HW151812   6.765   0.598   1.955  0.9133 -0.7511  0.2569
17078SOL    HW251813   6.649   0.640   2.044 -0.5249  0.1626 -1.9586
17079SOL     OW51814   7.702   6.468   3.077  0.0940  0.2825 -0.2546
17079SOL    HW151815   7.692   6.397   3.013  1.6515  1.0479 -1.4323
17079SOL    HW251816   7.797   6.482   3.082 -0.0769  1.0405  1.3792
17080SOL     OW51817   0.530   7.413   3.083 -0.4256  0.8093 -0.3995
17080SOL    HW151818   0.566   7.403   2.995  0.2270 -2.8837  0.1021
17080SOL    HW251819   0.602   7.391   3.142 -1.6622 -0.0738  0.8860
17081SOL     OW51820   6.262   9.667   8.329  0.0699  0.6500  0.0788
17081SOL    HW151821   6.330   9.710   8.277  0.2690  1.9583  1.3644
17081SOL    HW251822   6.296   9.579   8.346 -0.3948 -0.1947 -2.7009
17082SOL     OW51823   3.035   2.246   6.183 -0.2263 -0.3536  0.0298
17082SOL    HW151824   3.108   2.258   6.243 -0.1665  0.4941 -0.1905
17082SOL    HW251825   3.011   2.154   6.191  2.2464 -1.2286 -1.4799
17083SOL     OW51826   3.521   9.033   4.242  0.0072 -0.6326  0.1949
17083SOL    HW151827   3.462   9.058   4.171 -0.5032  2.5018  1.5294
17083SOL    HW251828   3.602   9.079   4.223  0.0917 -0.3155  1.2405
17084SOL     OW51829   3.227   8.342   5.299  0.9174  0.3509  0.7354
17084SOL    HW151830   3.221   8.259   5.346  1.6593 -0.3811 -0.4371
17084SOL    HW251831   3.186   8.325   5.214 -1.1449  1.8827  1.3496
17085SOL     OW51832   0.225   9.730   2.331 -0.1828 -0.5735  0.4018
17085SOL    HW151833   0.240   9.801   2.393 -0.0280  0.2431 -0.5322
17085SOL    HW251834   0.272   9.655   2.367 -0.4648 -0.2415  1.4793
17086SOL     OW51835   0.842   7.661   7.780 -0.1388 -0.5194 -0.1118
17086SOL    HW151836   0.813   7.706   7.701  3.6600  1.0768 -0.8633
17086SOL    HW251837   0.904   7.595   7.748  1.1208 -0.1611  1.4717
17087SOL     OW51838   9.222   7.109   0.044  0.4962  0.4771  0.1415
17087SOL    HW151839   9.230   7.014   0.058 -0.4112  0.2255 -0.8807
17087SOL    HW251840   9.295   7.147   0.093  0.0549 -0.6450  1.7263
17088SOL     OW51841   0.280   9.959   8.101  0.1494  0.2901 -0.2701
17088SOL    HW151842   0.217   9.903   8.146 -1.3594  0.3601 -2.1288
17088SOL    HW251843   0.252  10.048   8.121  1.1888  0.3803  0.8758
17089SOL     OW51844   6.164   2.080   6.853  0.0319  0.2553  0.7782
17089SOL    HW151845   6.225   2.136   6.804 -0.2435  0.5869  0.8133
17089SOL    HW251846   6.091   2.066   6.793 -1.2456  2.2843  1.7483
17090SOL     OW51847   2.267   5.043   9.500  0.6359 -0.0036  0.2891
17090SOL    HW151848   2.258   4.954   9.533  0.4014  0.6279  2.0758
17090SOL    HW251849   2.207   5.095   9.554  2.6204  1.6332  1.0588
17091SOL     OW51850   0.260   9.108   4.905  0.0917 -0.0325 -0.0481
17091SOL    HW151851   0.331   9.070   4.853 -0.1795 -2.2915  1.1013
17091SOL    HW251852   0.254   9.051   4.982 -2.0982  0.8899  0.5302
17092SOL     OW51853   9.172   4.575   0.137  0.2271 -0.4280 -0.0471
17092SOL    HW151854   9.147   4.666   0.148  0.5490 -0.3254 -0.1677
17092SOL    HW251855   9.189   4.544   0.226  2.1801  0.2178 -0.1504
17093SOL     OW51856   5.594   8.860   0.703  0.4081 -0.0779 -0.8788
17093SOL    HW151857   5.615   8.879   0.794 -0.3428 -1.6421 -0.3360
17093SOL    HW251858   5.547   8.937   0.672 -1.7170 -0.5463  0.9160
17094SOL     OW51859   6.679   0.240   8.577  0.8068 -0.6381  0.7793
17094SOL    HW151860   6.610   0.179   8.604  0.3784 -1.8201 -2.4814
17094SOL    HW251861   6.757   0.211   8.625  0.4755 -3.5220 -0.1902
17095SOL     OW51862   4.644   1.592   8.838  0.5598 -0.0658 -0.7117
17095SOL    HW151863   4.616   1.662   8.779 -0.4011 -0.2589 -0.4943
17095SOL    HW251864   4.597   1.515   8.808  1.1312 -0.4848 -0.5500
17096SOL     OW51865   0.339   4.051   6.853 -0.1902  0.1536 -0.0141
17096SOL    HW151866   0.408   3.984   6.845  0.1206  0.4795 -0.0941
17096SOL    HW251867   0.288   4.043   6.773 -0.9893 -0.9017  0.5686
17097SOL     OW51868   9.716   5.512   4.285 -0.3071 -0.2991  0.6314
17097SOL    HW151869   9.758   5.599   4.287  0.4212 -0.6194 -0.1416
17097SOL    HW251870   9.774   5.459   4.231 -2.1231 -0.5532 -1.1861
17098SOL     OW51871   3.008   3.369   2.330 -0.4129  0.2579  0.1927
17098SOL    HW151872   3.076   3.418   2.375  0.8442 -1.0482 -0.2097
17098SOL    HW251873   3.044   3.281   2.321 -1.4535 -0.0406 -1.5396
17099SOL     OW51874   1.794   8.195   1.317  0.1963  0.2185  0.1163
17099SOL    HW151875   1.735   8.270   1.309  2.5054  2.2241  0.5661
17099SOL    HW251876   1.827   8.200   1.407  0.9367 -0.9183 -0.0680
17100SOL     OW51877   0.256   6.653   8.150 -0.2840  0.4744 -0.4106
17100SOL    HW151878   0.190   6.717   8.123 -1.4063 -0.6231 -0.3874
17100SOL    HW251879   0.234   6.632   8.241  0.1895  0.1920 -0.3558
17101SOL     OW51880   3.168   8.800   3.190 -0.6490  0.1729  0.0756
17101SOL    HW151881   3.182   8.849   3.110  0.1609  2.2338  1.4163
17101SOL    HW251882   3.073   8.798   3.201 -0.7668 -0.1561 -0.9132
17102SOL     OW51883   5.298   4.031   6.309 -0.1725  0.5644  0.4907
17102SOL    HW151884   5.315   4.068   6.396 -0.7171  0.3897  0.6782
17102SOL    HW251885   5.245   4.097   6.265 -1.8615 -0.2870  1.1214
17103SOL     OW51886   5.040   3.550   1.293 -0.4829  0.2865  0.6529
17103SOL    HW151887   5.031   3.553   1.388  0.5464  2.1132  0.7547
17103SOL    HW251888   5.064   3.460   1.274  0.7582  0.2103  2.3054
17104SOL     OW51889   2.550   9.828   8.247  0.4037 -0.6552 -0.6068
17104SOL    HW151890   2.592   9.782   8.175 -0.0151 -2.0603  0.0056
17104SOL    HW251891   2.494   9.762   8.288 -2.0772  0.9836 -1.1101
17105SOL     OW51892   4.334   1.100   4.483 -0.3142  0.1765 -0.2689
17105SOL    HW151893   4.361   1.145   4.403  0.3695  1.4115  0.6157
17105SOL    HW251894   4.398   1.030   4.495 -0.6349 -0.2498 -0.9809
17106SOL     OW51895   8.569   9.542   3.553  0.2720 -0.3857 -0.1389
17106SOL    HW151896   8.592   9.621   3.603  2.1331 -0.2942 -1.0563
17106SOL    HW251897   8.644   9.484   3.564  0.1245 -0.9155 -1.6875
17107SOL     OW51898   3.387   0.631   8.010  0.2232  0.2308  0.2433
17107SOL    HW151899   3.351   0.642   7.921  1.1926  0.2208 -0.1579
17107SOL    HW251900   3.451   0.701   8.019 -0.4396  0.7226  1.2494
17108SOL     OW51901   1.717   1.350   3.481 -0.4757  0.1524 -0.0851
17108SOL    HW151902   1.756   1.430   3.517 -0.5974  0.4006 -0.5012
17108SOL    HW251903   1.670   1.311   3.555  0.1299  0.1220  0.2867
17109SOL     OW51904   0.337   7.709   3.298  0.1346  0.1473  0.4438
17109SOL    HW151905   0.286   7.669   3.368 -0.5078  0.2365  0.0381
17109SOL    HW251906   0.278   7.774   3.260 -0.4621 -1.5750 -1.7775
17110SOL     OW51907   9.222   7.488   8.454 -0.2951  0.5373  0.8228
17110SOL    HW151908   9.200   7.463   8.365  1.2327  0.9573  0.2911
17110SOL    HW251909   9.308   7.449   8.469  0.6379  2.5890  1.1665
17111SOL     OW51910   9.364   9.857   8.539 -0.1938  0.3046 -0.3853
17111SOL    HW151911   9.383   9.791   8.606 -1.8553 -0.4051 -0.5710
17111SOL    HW251912   9.336   9.934   8.589  0.3124  0.3933 -0.2253
17112SOL     OW51913   7.971   6.582   5.900  0.2866 -0.3413  0.1241
17112SOL    HW151914   7.882   6.607   5.925  0.3021  0.4699 -0.5899
17112SOL    HW251915   8.027   6.648   5.942  0.4989 -0.4593  0.0274
17113SOL     OW51916   4.225   7.987   6.604  0.1740  0.1958 -0.2368
17113SOL    HW151917   4.303   8.007   6.656  0.4636  2.0131 -1.3101
17113SOL    HW251918   4.260   7.952   6.522 -0.2015 -0.2427 -0.2133
17114SOL     OW51919   7.626   9.729   4.779 -0.4764  0.2322 -0.4233
17114SOL    HW151920   7.604   9.724   4.872  1.0838 -1.5643 -0.1065
17114SOL    HW251921   7.564   9.793   4.744 -1.5376  0.4690  1.7067
17115SOL     OW51922   9.355   4.562   8.199 -0.3127 -0.2489 -0.3435
17115SOL    HW151923   9.401   4.478   8.201  1.4541  0.5630  4.2869
17115SOL    HW251924   9.266   4.542   8.228 -0.6424 -0.7549 -1.6272
17116SOL     OW51925   1.336   6.517   7.897  0.3658  0.3074  0.2207
17116SOL    HW151926   1.414   6.569   7.878 -0.4589  0.9369 -1.6869
17116SOL    HW251927   1.279   6.530   7.821 -0.4368 -2.3527  0.2745
17117SOL     OW51928   8.277   5.061   9.933  0.2564  0.0550  0.1876
17117SOL    HW151929   8.313   5.092   9.850 -1.2746 -0.2578 -0.6426
17117SOL    HW251930   8.251   4.971   9.915  0.3533 -0.1771  1.1638
17118SOL     OW51931   6.542   4.022   9.445 -0.0366  0.2842  0.0331
17118SOL    HW151932   6.577   3.965   9.513 -0.4745  0.4827  0.4373
17118SOL    HW251933   6.598   4.008   9.369  1.3411  1.1036  0.8499
17119SOL     OW51934   6.376   6.510   0.046  0.1571  0.1453 -0.3753
17119SOL    HW151935   6.359   6.554   0.130 -0.0178  0.5556 -0.6178
17119SOL    HW251936   6.363   6.579  -0.019  1.0625  0.0243 -0.6928
17120SOL     OW51937   5.878   2.021   5.599 -0.0830  0.4129  0.5939
17120SOL    HW151938   5.801   1.968   5.618  0.3949 -0.7077 -0.4742
17120SOL    HW251939   5.872   2.041   5.506 -0.5902  2.8720  1.0701
17121SOL     OW51940   6.988   2.911   0.767  0.7382 -0.1106  0.1962
17121SOL    HW151941   6.941   2.930   0.686  1.7446 -0.1763 -0.4263
17121SOL    HW251942   7.033   2.993   0.789 -0.3638  0.2267  1.2848
17122SOL     OW51943   0.246   3.526   5.954 -0.1120 -0.3245 -0.4306
17122SOL    HW151944   0.171   3.536   5.897 -0.8981  0.7416  0.7382
17122SOL    HW251945   0.286   3.443   5.927 -0.5170  0.0743 -2.3911
17123SOL     OW51946   9.811   1.084   6.596 -0.6714 -0.0440 -0.1343
17123SOL    HW151947   9.848   1.173   6.594  3.5667 -1.4566  2.2849
17123SOL    HW251948   9.850   1.041   6.520  0.3137 -0.7296  0.7274
17124SOL     OW51949   8.911   5.076   4.743 -0.3777  0.0252 -0.1135
17124SOL    HW151950   8.898   5.125   4.825  0.4737  0.4671 -0.2240
17124SOL    HW251951   8.989   5.023   4.759 -0.2282  0.0839 -0.6230
17125SOL     OW51952   9.816   4.152   9.065 -0.1999 -0.0393 -0.1725
17125SOL    HW151953   9.894   4.180   9.017 -0.8212 -0.7206 -1.6542
17125SOL    HW251954   9.830   4.059   9.083  0.6370  0.4903  2.2788
17126SOL     OW51955   3.118   5.974   7.119 -0.0565 -0.3651  0.3838
17126SOL    HW151956   3.054   5.905   7.100  0.5688 -0.6897 -0.6144
17126SOL    HW251957   3.065   6.045   7.157 -1.2235 -0.2182 -1.3649
17127SOL     OW51958   9.753   1.097   3.776  0.2854 -0.3069 -0.4818
17127SOL    HW151959   9.847   1.112   3.787 -0.0246 -0.1133  2.9371
17127SOL    HW251960   9.733   1.023   3.834 -1.8567  0.3891 -0.2323
17128SOL     OW51961   4.103   1.812   9.057 -0.2611  0.5608  0.2297
17128SOL    HW151962   4.112   1.772   9.143 -0.1386  0.4913  0.1859
17128SOL    HW251963   4.149   1.752   8.998 -0.3271  0.6179  0.1192
17129SOL     OW51964   9.118   6.081   7.682 -0.7057 -0.5612 -0.0833
17129SOL    HW151965   9.069   6.162   7.665  3.0070  1.6932 -1.5061
17129SOL    HW251966   9.112   6.068   7.776  0.4517  2.9330  0.6250
17130SOL     OW51967   1.096   2.115   1.715 -0.0510 -0.1811  0.2200
17130SOL    HW151968   1.142   2.167   1.650  0.3453 -0.0099  0.6272
17130SOL    HW251969   1.077   2.177   1.786  1.1314 -0.7466  1.0682
17131SOL     OW51970   1.522   0.504   1.649  0.1699 -0.0381 -0.3881
17131SOL    HW151971   1.594   0.448   1.677  0.7624  0.6689 -0.4671
17131SOL    HW251972   1.540   0.589   1.690  0.0330  0.4757 -1.3671
17132SOL     OW51973   9.025   7.197   3.336 -0.2486  0.1920  0.1709
17132SOL    HW151974   8.952   7.215   3.394  0.2651  1.6626  0.4077
17132SOL    HW251975   9.062   7.284   3.316  0.3304 -0.3723 -1.3656
17133SOL     OW51976   9.237   0.771   3.388  0.5475  0.2148 -0.2184
17133SOL    HW151977   9.234   0.829   3.313 -0.7140  1.6942  0.9109
17133SOL    HW251978   9.149   0.733   3.393  1.3482 -1.8649 -0.9438
17134SOL     OW51979   3.142   5.649   1.491 -0.3025 -0.4042 -0.0035
17134SOL    HW151980   3.139   5.720   1.556  0.8816  0.4819 -0.8804
17134SOL    HW251981   3.234   5.640   1.470 -0.7292 -0.0248 -2.2520
17135SOL     OW51982   1.649   1.217   7.413  0.4640 -0.3180  0.8362
17135SOL    HW151983   1.564   1.173   7.413 -0.8175  1.9854 -0.0666
17135SOL    HW251984   1.650   1.268   7.493  0.2975  0.8301  0.1369
17136SOL     OW51985   3.955   3.444   8.336 -0.4009 -0.1260  0.1278
17136SOL    HW151986   3.885   3.508   8.351 -0.7529 -0.9551  2.2905
17136SOL    HW251987   4.035   3.495   8.347 -0.6704  0.3197  0.0857
17137SOL     OW51988   0.784   7.113   6.970  0.1458  0.2702  0.6265
17137SOL    HW151989   0.796   7.125   7.064  0.0358 -0.5743  0.7574
17137SOL    HW251990   0.689   7.110   6.958 -0.0048 -4.1401  1.1775
17138SOL     OW51991   1.425   2.148   6.424  0.0442  0.1146  0.5028
17138SOL    HW151992   1.414   2.113   6.335  0.6781  0.4025  0.3040
17138SOL    HW251993   1.480   2.083   6.468  2.0787  1.2758 -0.1694
17139SOL     OW51994   5.661   9.795   2.662 -0.1193 -0.0058 -0.1246
17139SOL    HW151995   5.715   9.846   2.723 -0.0501  1.4518 -1.3657
17139SOL    HW251996   5.602   9.746   2.719  0.4222  0.7744  1.1553
17140SOL     OW51997   3.589   8.749   1.642 -0.6777  0.2260  0.3840
17140SOL    HW151998   3.580   8.806   1.565 -2.9710  1.9754  1.8245
17140SOL    HW251999   3.517   8.774   1.699  0.9398 -0.9832  3.1591
17141SOL     OW52000   6.566   9.710   9.371  0.2611 -0.1125  0.0559
17141SOL    HW152001   6.519   9.662   9.438  0.5450 -1.0144 -0.3704
17141SOL    HW252002   6.497   9.749   9.317  0.0328  0.4869  0.7598
17142SOL     OW52003   2.549   4.151   8.280  0.2988 -0.3598  0.3182
17142SOL    HW152004   2.510   4.122   8.362  1.2740 -0.4329  0.7671
17142SOL    HW252005   2.489   4.217   8.246 -0.3104 -0.6168  0.8867
17143SOL     OW52006   6.159   0.782   5.594 -0.0605  0.1530 -0.5963
17143SOL    HW152007   6.160   0.687   5.586  1.5476 -0.0833  1.5403
17143SOL    HW252008   6.096   0.800   5.663 -0.8822  0.7194 -1.4749
17144SOL     OW52009   6.919   4.293   4.265 -0.1254  0.1638  0.1477
17144SOL    HW152010   6.974   4.317   4.340  0.4443  1.7171 -0.7190
17144SOL    HW252011   6.964   4.219   4.224 -0.7790 -1.1351  1.6514
17145SOL     OW52012   8.599   2.042   0.432 -0.5515 -0.6898  0.1328
17145SOL    HW152013   8.682   2.088   0.445  1.2456 -3.7709  0.6930
17145SOL    HW252014   8.588   2.038   0.337 -0.6004  0.5843  0.0767
17146SOL     OW52015   2.807   8.555   2.496 -0.2407 -0.4078  0.6992
17146SOL    HW152016   2.713   8.537   2.497 -0.2264 -0.6561 -0.9726
17146SOL    HW252017   2.847   8.476   2.533 -0.7089  0.1972  2.6555
17147SOL     OW52018   8.569   0.791   3.888 -0.4185  0.2378  0.2201
17147SOL    HW152019   8.618   0.763   3.965 -2.3342 -0.9804  1.0847
17147SOL    HW252020   8.601   0.879   3.869  0.0374  0.6123  2.4876
17148SOL     OW52021   4.903   4.014   4.248  0.6043  0.2441  0.0010
17148SOL    HW152022   4.988   4.057   4.239  1.0507 -0.0674  2.1538
17148SOL    HW252023   4.922   3.920   4.240  0.6160  0.1284  1.1429
17149SOL     OW52024   8.270   1.270   2.944  0.3329  0.5956  0.1014
17149SOL    HW152025   8.241   1.198   2.998  0.2521  0.5743  0.0301
17149SOL    HW252026   8.323   1.325   3.002  3.3102 -1.2792 -0.6264
17150SOL     OW52027   6.518   6.021   6.169  0.2314 -0.1271 -0.4277
17150SOL    HW152028   6.530   6.114   6.150  1.1558  0.0380  0.8400
17150SOL    HW252029   6.596   5.996   6.218 -0.2035 -1.4686 -0.3846
17151SOL     OW52030   5.345   9.748   4.538 -0.0359  0.5926  0.5334
17151SOL    HW152031   5.421   9.693   4.519 -1.1344 -1.3636  1.4845
17151SOL    HW252032   5.373   9.802   4.612 -0.1726 -1.6413  2.3319
17152SOL     OW52033   8.078   0.883   7.844 -0.5977  0.1986  0.2542
17152SOL    HW152034   8.018   0.868   7.770 -0.8985 -0.8940  0.6981
17152SOL    HW252035   8.073   0.977   7.860  1.2844  0.9103 -2.6215
17153SOL     OW52036   8.109   5.979   6.317  0.5377 -0.2005  0.1770
17153SOL    HW152037   8.106   6.072   6.340  0.5129  0.0092 -0.6405
17153SOL    HW252038   8.023   5.960   6.280  1.3868  0.1241 -2.1061
17154SOL     OW52039   7.277   9.358   3.316 -0.3666 -0.1088 -0.1085
17154SOL    HW152040   7.316   9.277   3.285 -1.2393  0.2447 -2.3427
17154SOL    HW252041   7.238   9.335   3.400  0.3451 -1.7115 -0.1800
17155SOL     OW52042   4.228   0.753   4.703 -0.2406  0.1367 -0.2480
17155SOL    HW152043   4.185   0.675   4.738  0.1795 -0.2687 -0.6184
17155SOL    HW252044   4.318   0.725   4.687 -0.5712  0.0756 -2.3210
17156SOL     OW52045   3.929   7.225   3.472  0.1528  0.1170 -0.9134
17156SOL    HW152046   3.875   7.255   3.399  0.0742  1.8123 -0.2157
17156SOL    HW252047   3.880   7.251   3.550  1.3111  0.4323 -0.2679
17157SOL     OW52048   1.171   7.751   8.175  0.1485  0.4709  0.2666
17157SOL    HW152049   1.134   7.813   8.112  0.7146 -0.2092 -0.7733
17157SOL    HW252050   1.243   7.709   8.128 -0.1749 -0.9306  0.9495
17158SOL     OW52051   9.515   0.216   7.370  0.3241  0.1043 -0.2442
17158SOL    HW152052   9.572   0.208   7.447  0.2013  2.9020  0.2399
17158SOL    HW252053   9.524   0.132   7.325 -0.3258 -2.0452  3.2565
17159SOL     OW52054   7.464   3.959   2.491 -1.0031  0.3333 -0.2704
17159SOL    HW152055   7.372   3.932   2.497 -0.6630 -0.6498  1.2380
17159SOL    HW252056   7.485   3.989   2.580 -0.6843  3.4822 -1.3047
17160SOL     OW52057   0.162   4.119   9.768 -0.2814  0.0808  0.6207
17160SOL    HW152058   0.138   4.201   9.725 -1.5798  0.1056  1.3357
17160SOL    HW252059   0.167   4.055   9.698 -0.7517  0.4573  0.2402
17161SOL     OW52060   7.160   2.690   7.871  0.5033 -0.2375 -0.5400
17161SOL    HW152061   7.079   2.647   7.844 -0.5053  0.3365  1.4093
17161SOL    HW252062   7.229   2.631   7.841 -0.7289 -1.9546 -0.1717
17162SOL     OW52063   0.247   0.942   8.459 -0.1531 -0.1722 -0.2218
17162SOL    HW152064   0.217   0.976   8.374 -0.5213  0.4980  0.1620
17162SOL    HW252065   0.334   0.980   8.470  0.3062 -1.0648 -0.7477
17163SOL     OW52066   7.664   2.566   5.753  0.0245  0.2090 -0.0959
17163SOL    HW152067   7.668   2.661   5.760 -1.0007  0.2093  0.7443
17163SOL    HW252068   7.573   2.545   5.772  0.4102 -1.0007  0.4773
17164SOL     OW52069   5.675   1.486   7.152 -0.7382  0.4963 -0.0312
17164SOL    HW152070   5.764   1.469   7.185 -0.9425 -0.3488  0.1205
17164SOL    HW252071   5.635   1.542   7.218 -0.3416  0.8285 -0.0684
17165SOL     OW52072   8.789   9.981   4.622  0.0833  0.9275 -0.5029
17165SOL    HW152073   8.872   9.937   4.638  0.2233  0.9197 -1.2225
17165SOL    HW252074   8.727   9.937   4.681  1.0198  2.4731  1.8182
17166SOL     OW52075   5.163   2.142   0.248  0.6507 -0.5781 -0.1826
17166SOL    HW152076   5.118   2.216   0.206 -0.1785 -2.0783 -2.0530
17166SOL    HW252077   5.114   2.127   0.329  1.6632  1.7307  0.9536
17167SOL     OW52078   5.481   8.188   2.547  0.0614  0.8169  0.2092
17167SOL    HW152079   5.486   8.133   2.625  0.1812  1.1020  0.4060
17167SOL    HW252080   5.560   8.169   2.498 -0.5530 -0.2081 -0.4196
17168SOL     OW52081   9.679   4.937   7.200 -0.6720 -0.1723 -0.4433
17168SOL    HW152082   9.736   4.979   7.136  2.4721 -0.5476  1.8643
17168SOL    HW252083   9.604   4.997   7.207  0.6735  1.8093 -1.7411
17169SOL     OW52084   2.726   8.349   3.275 -0.1599 -0.0881  0.8654
17169SOL    HW152085   2.670   8.416   3.314 -1.2514  0.0361 -0.7847
17169SOL    HW252086   2.702   8.269   3.321 -2.3308 -0.1916 -0.2808
17170SOL     OW52087   8.810   8.550   2.860  0.0408 -0.4709  0.0657
17170SOL    HW152088   8.828   8.466   2.904  0.6018 -0.7420 -0.6506
17170SOL    HW252089   8.853   8.615   2.915 -2.1104 -0.3847  1.7423
17171SOL     OW52090   6.762   5.588   5.701  0.1507  0.2006 -0.6628
17171SOL    HW152091   6.784   5.585   5.608  0.7507 -0.1968 -0.5146
17171SOL    HW252092   6.840   5.554   5.745  1.2189  3.4119  0.1975
17172SOL     OW52093   5.633   8.446   3.532  0.4802  0.1320  0.6412
17172SOL    HW152094   5.560   8.440   3.594  1.6899 -0.4432  2.0939
17172SOL    HW252095   5.688   8.516   3.567  0.8524  0.2552 -0.1780
17173SOL     OW52096   9.057   2.907   3.296 -0.3239  0.2516  0.1384
17173SOL    HW152097   9.127   2.880   3.355  1.3258 -1.1308 -2.2429
17173SOL    HW252098   8.983   2.850   3.319 -0.3186  0.8935  1.8916
17174SOL     OW52099   5.177   3.993   9.812  0.5965  0.2165 -0.0465
17174SOL    HW152100   5.126   4.063   9.853 -0.0320  0.5678 -1.3910
17174SOL    HW252101   5.112   3.929   9.784  1.0340 -0.1335 -0.2769
17175SOL     OW52102   3.951   9.372   3.923  0.1520 -0.0900 -0.2088
17175SOL    HW152103   3.955   9.457   3.879 -2.6586 -0.2382 -0.9454
17175SOL    HW252104   3.937   9.393   4.015 -1.6902  0.3045 -0.5472
17176SOL     OW52105   0.283   3.567   3.908  0.2120 -0.0643 -0.3050
17176SOL    HW152106   0.349   3.578   3.976 -0.5311  0.5103  0.3429
17176SOL    HW252107   0.332   3.575   3.826  0.9886  0.0632  0.1576
17177SOL     OW52108   0.969   0.579   5.586 -0.3701 -0.8055 -0.2645
17177SOL    HW152109   0.886   0.621   5.608  0.0151  0.5062 -1.1998
17177SOL    HW252110   1.033   0.619   5.645 -0.2729 -1.3256 -0.0043
17178SOL     OW52111   0.105   9.045   9.138 -0.5443  0.1142  0.7172
17178SOL    HW152112   0.047   8.998   9.198  0.0147 -2.0446 -0.3070
17178SOL    HW252113   0.185   9.061   9.188 -0.7334 -0.0846  1.0828
17179SOL     OW52114   6.607   8.684   7.807  0.1519 -0.0195 -0.1643
17179SOL    HW152115   6.545   8.670   7.735  1.2147 -3.4217 -0.6211
17179SOL    HW252116   6.587   8.614   7.869  1.2273  1.0157  1.4233
17180SOL     OW52117   1.925   6.307   6.458  0.0239 -0.1235  0.3996
17180SOL    HW152118   2.009   6.287   6.417 -0.0326 -0.2672  0.3541
17180SOL    HW252119   1.895   6.224   6.494 -0.3452 -0.1878 -0.0393
17181SOL     OW52120   0.970   1.972   5.746  0.0613  0.1232  1.0891
17181SOL    HW152121   0.986   1.898   5.805  0.3537 -1.0618 -0.4148
17181SOL    HW252122   0.951   1.932   5.661 -3.3134  1.6822  0.9556
17182SOL     OW52123   0.251   3.826   2.001 -0.0140  0.1226  0.2992
17182SOL    HW152124   0.301   3.763   1.950  0.8999 -0.3296  1.7013
17182SOL    HW252125   0.301   3.907   1.995 -1.7378  1.1496 -2.4127
17183SOL     OW52126   6.782   0.922   0.227 -0.5296  0.2243  0.5104
17183SOL    HW152127   6.726   0.971   0.288  0.0541  2.0372 -0.3604
17183SOL    HW252128   6.841   0.987   0.190  1.1986 -1.3849  0.2805
17184SOL     OW52129   7.445   1.550   8.640  0.3287  0.5744 -0.3786
17184SOL    HW152130   7.530   1.511   8.661  0.6492  0.9404 -0.9871
17184SOL    HW252131   7.395   1.477   8.602  0.9880  0.7638 -1.6774
17185SOL     OW52132   4.390   5.630   5.083 -0.7276 -0.0023  0.2411
17185SOL    HW152133   4.409   5.702   5.024  0.1152 -0.3408  0.0921
17185SOL    HW252134   4.406   5.551   5.032 -0.8996 -0.2971  0.6320
17186SOL     OW52135   9.595   3.631   7.502 -0.2381  0.0181  0.7833
17186SOL    HW152136   9.552   3.691   7.563  0.0953  0.2960  0.7482
17186SOL    HW252137   9.647   3.573   7.559  0.7824  0.8376  0.7332
17187SOL     OW52138   8.593   7.966   8.981  0.4829  1.0778  0.1033
17187SOL    HW152139   8.600   8.001   8.892 -1.0127  0.0912 -0.4449
17187SOL    HW252140   8.676   7.920   8.996 -0.0076 -0.4491 -1.5791
17188SOL     OW52141   7.988   7.967   1.954  0.1866 -0.0049  0.4955
17188SOL    HW152142   8.017   7.876   1.950 -0.7117 -0.2765 -0.6436
17188SOL    HW252143   8.068   8.019   1.943  0.4643 -0.6977 -1.0172
17189SOL     OW52144   6.079   9.707   4.567  0.1088  0.6656  0.5081
17189SOL    HW152145   6.056   9.665   4.484  1.2076 -0.6885  0.8514
17189SOL    HW252146   6.154   9.762   4.546  0.6853 -0.0362  0.6559
17190SOL     OW52147   6.604   8.113   5.287 -0.1270  0.0126 -0.3150
17190SOL    HW152148   6.693   8.117   5.322 -0.1264 -0.3095 -0.2805
17190SOL    HW252149   6.601   8.031   5.237 -0.8633 -0.7719  0.9576
17191SOL     OW52150   5.732   8.570   4.850  0.5675 -0.4226 -0.4246
17191SOL    HW152151   5.778   8.616   4.780  0.8611  1.2907  0.8268
17191SOL    HW252152   5.703   8.640   4.909 -1.6852 -1.6130 -0.0031
17192SOL     OW52153   9.394   0.307   3.450  0.3416 -0.4159 -0.0142
17192SOL    HW152154   9.389   0.367   3.524 -0.1769 -0.6922  0.1814
17192SOL    HW252155   9.406   0.364   3.374  0.8721 -0.1295  0.2717
17193SOL     OW52156   3.497   7.758   1.150 -0.1255  0.2303 -0.1281
17193SOL    HW152157   3.422   7.805   1.115  0.6263  0.3394 -1.6731
17193SOL    HW252158   3.459   7.680   1.190 -0.9806 -1.0411 -3.0962
17194SOL     OW52159   3.344   7.760   3.391  0.2045 -0.0219 -0.2045
17194SOL    HW152160   3.352   7.744   3.297  2.3884  0.8257 -0.2060
17194SOL    HW252161   3.354   7.854   3.401  1.2433 -0.2386  0.9779
17195SOL     OW52162   2.088   4.220   9.326 -0.0263 -0.3544 -0.2829
17195SOL    HW152163   2.151   4.197   9.258 -0.5991  0.4119 -1.1158
17195SOL    HW252164   2.139   4.228   9.406  1.2290  1.7170 -1.2059
17196SOL     OW52165   7.112   9.803   8.832  0.5468 -0.2934 -0.1962
17196SOL    HW152166   7.055   9.740   8.876 -0.2829 -0.1242 -1.0105
17196SOL    HW252167   7.095   9.790   8.739  0.4588  1.0512 -0.3739
17197SOL     OW52168   1.730   4.392   5.713 -0.4745  0.2027  0.1795
17197SOL    HW152169   1.767   4.305   5.724 -2.6932 -0.9780 -1.0462
17197SOL    HW252170   1.765   4.424   5.630 -0.8632 -0.1908 -0.1375
17198SOL     OW52171   2.790   2.931   8.881 -0.3201  0.3346  0.0727
17198SOL    HW152172   2.870   2.892   8.917  1.4619  2.3744 -1.4136
17198SOL    HW252173   2.761   2.993   8.947 -0.8653 -0.5676  0.7121
17199SOL     OW52174   2.026   3.252   9.471  0.1478 -0.3048  0.2061
17199SOL    HW152175   1.991   3.300   9.396  0.7480 -0.1073  0.0500
17199SOL    HW252176   1.981   3.290   9.547 -0.6026 -0.6337 -0.0592
17200SOL     OW52177   6.741   5.154   4.546 -0.1978 -0.5451 -0.2076
17200SOL    HW152178   6.759   5.191   4.632 -0.6593 -2.7824  0.9286
17200SOL    HW252179   6.657   5.192   4.521 -0.7868 -0.9811  1.0226
17201SOL     OW52180   9.029   1.856   8.227  0.5732  0.3404 -0.5930
17201SOL    HW152181   8.951   1.806   8.252  1.3399 -0.4321  0.2971
17201SOL    HW252182   9.019   1.870   8.133  1.6253 -3.9582 -1.5592
17202SOL     OW52183   5.532   2.799   3.152  0.4305  0.2736  0.2031
17202SOL    HW152184   5.455   2.750   3.180  1.2866 -1.2866 -0.1062
17202SOL    HW252185   5.520   2.812   3.058  0.7145 -0.2862  0.0887
17203SOL     OW52186   6.989   9.223   5.055 -0.3465 -0.5553 -0.1314
17203SOL    HW152187   7.011   9.226   4.962  1.3607 -3.1644  0.0892
17203SOL    HW252188   7.072   9.212   5.099 -1.2089 -0.2143  1.6529
17204SOL     OW52189   7.651   3.383   6.056  0.7675  0.7681  0.3649
17204SOL    HW152190   7.600   3.440   5.998  0.3728  1.0541  0.9800
17204SOL    HW252191   7.704   3.444   6.108  1.6087  0.4821 -0.1376
17205SOL     OW52192   4.050   4.165   0.303 -0.4883  0.6112  0.4282
17205SOL    HW152193   4.116   4.202   0.245  0.7855 -1.6064  0.3535
17205SOL    HW252194   4.012   4.241   0.348 -0.9279  2.3468 -2.6168
17206SOL     OW52195   6.013   8.468   8.619  1.2827 -0.4034 -0.0637
17206SOL    HW152196   6.035   8.377   8.599  0.2183 -0.7020  0.0108
17206SOL    HW252197   6.061   8.519   8.555  3.7393 -0.8317  1.3221
17207SOL     OW52198   8.118   4.133   3.219  0.6839 -0.5207 -0.6727
17207SOL    HW152199   8.057   4.085   3.275 -0.3372 -0.4658 -1.7154
17207SOL    HW252200   8.063   4.180   3.157  1.6223  2.2341  0.4236
17208SOL     OW52201   6.982   9.144   8.568  0.3904  0.6076  0.0302
17208SOL    HW152202   6.974   9.168   8.475 -1.5349  2.8361  0.6806
17208SOL    HW252203   6.914   9.077   8.580  1.7432 -0.9214 -0.4613
17209SOL     OW52204   8.905   1.653   3.583  0.3740 -0.0122 -0.3654
17209SOL    HW152205   8.832   1.651   3.521  0.6326  2.2989 -0.8576
17209SOL    HW252206   8.982   1.661   3.528  0.8988 -1.1373  0.1913
17210SOL     OW52207   9.809   7.647   8.264 -0.7848  0.1937 -0.2510
17210SOL    HW152208   9.811   7.738   8.295 -0.4336 -0.5867  2.2229
17210SOL    HW252209   9.741   7.646   8.196 -1.4413  2.1039  0.3154
17211SOL     OW52210   3.442   9.919   4.284  0.2512 -0.1246 -0.1990
17211SOL    HW152211   3.459   9.966   4.365  0.2588  0.6552 -0.6415
17211SOL    HW252212   3.349   9.898   4.287  0.4328 -0.8979  0.4118
17212SOL     OW52213   3.329   1.265   5.830  0.6065 -0.0157 -0.2405
17212SOL    HW152214   3.339   1.340   5.772  0.6351 -0.1769 -0.4466
17212SOL    HW252215   3.241   1.273   5.866  0.6229  0.1350 -0.2340
17213SOL     OW52216   2.457   8.644   2.804 -0.2984 -0.1283 -0.3599
17213SOL    HW152217   2.369   8.672   2.829 -0.1209  0.1179 -0.0084
17213SOL    HW252218   2.503   8.725   2.781  0.8295  0.1537  2.5654
17214SOL     OW52219   8.654   9.273   7.041 -0.0418  0.1238  0.2166
17214SOL    HW152220   8.672   9.298   7.131 -1.2366  1.4724  0.1073
17214SOL    HW252221   8.721   9.319   6.990 -0.0746  0.2958  0.3269
17215SOL     OW52222   2.400   4.928   0.978  0.2085  0.3050  0.6881
17215SOL    HW152223   2.316   4.898   1.013 -0.5931  0.4279 -1.0096
17215SOL    HW252224   2.436   4.851   0.933  0.6610  0.4669  0.7674
17216SOL     OW52225   8.086   6.346   7.095  0.2606 -0.4408  0.0938
17216SOL    HW152226   8.153   6.299   7.045  0.5614  1.9295 -1.9432
17216SOL    HW252227   8.016   6.363   7.032 -0.4514  0.6250  1.1174
17217SOL     OW52228   9.075   0.542   7.630  0.3916  0.4539 -0.0764
17217SOL    HW152229   9.086   0.459   7.584  1.2333  0.0602  0.8018
17217SOL    HW252230   8.984   0.543   7.656 -0.0527  0.5871 -1.5369
17218SOL     OW52231   9.506   4.256   1.466  0.4745 -0.3360 -0.0202
17218SOL    HW152232   9.495   4.164   1.440 -0.5706 -0.1945 -0.1090
17218SOL    HW252233   9.600   4.271   1.458  0.2836 -0.2774 -3.8822
17219SOL     OW52234   1.171   5.360   9.538 -0.1803 -0.6108 -0.0205
17219SOL    HW152235   1.249   5.407   9.509 -1.5901  1.8914 -0.0501
17219SOL    HW252236   1.138   5.317   9.458  0.5876 -0.8385 -0.2254
17220SOL     OW52237   8.233   5.231   5.219 -0.2354 -0.3172  0.4740
17220SOL    HW152238   8.149   5.265   5.248  0.6318  1.2087  1.3214
17220SOL    HW252239   8.260   5.291   5.149  0.9554  0.3415  1.4575
17221SOL     OW52240   0.561   8.323   5.171 -0.2995  0.2136 -0.0746
17221SOL    HW152241   0.555   8.339   5.265 -0.1130  1.0118 -0.1879
17221SOL    HW252242   0.623   8.250   5.163 -0.5853 -0.0878  0.4372
17222SOL     OW52243   0.981   9.062   7.230  0.0742  0.3550 -0.1053
17222SOL    HW152244   1.008   8.976   7.197  1.5021  1.3746 -1.7680
17222SOL    HW252245   1.054   9.120   7.209 -1.3292  2.2349 -0.0820
17223SOL     OW52246   4.386   2.881   3.985  0.2300  0.5692 -0.0563
17223SOL    HW152247   4.311   2.938   3.972 -0.7646 -0.0070  2.6549
17223SOL    HW252248   4.450   2.934   4.033  0.7213  0.4225 -0.5308
17224SOL     OW52249   4.362   0.156   1.552  0.3561  0.0744  0.7282
17224SOL    HW152250   4.329   0.221   1.490  0.0559 -0.6965  0.0640
17224SOL    HW252251   4.293   0.148   1.618 -0.2543 -0.6177  0.0240
17225SOL     OW52252   1.998   3.377   3.536 -0.6012  0.2135 -0.0065
17225SOL    HW152253   2.039   3.454   3.576 -1.2634  0.3016  0.5221
17225SOL    HW252254   2.012   3.307   3.600 -2.9615  0.6901  1.1444
17226SOL     OW52255   1.943   9.110   1.517  0.7181 -0.0332 -1.1038
17226SOL    HW152256   1.985   9.180   1.567  2.5176 -0.5947 -1.7466
17226SOL    HW252257   1.984   9.029   1.548 -0.8299 -0.7570 -0.8654
17227SOL     OW52258   5.152   7.315   3.086  0.0158  0.1240  0.3669
17227SOL    HW152259   5.135   7.234   3.037 -0.1034  0.0165  0.5841
17227SOL    HW252260   5.111   7.383   3.035 -1.3185 -0.1653  1.0165
17228SOL     OW52261   1.927   5.559   9.092  0.3474  0.6603  0.1091
17228SOL    HW152262   1.901   5.629   9.031  0.6862  0.6626 -0.0393
17228SOL    HW252263   1.918   5.478   9.041 -1.6963  0.4037  0.8004
17229SOL     OW52264   9.405   6.476   5.180  0.0149 -0.2762 -0.4646
17229SOL    HW152265   9.325   6.425   5.191  0.3642 -0.9259 -0.8703
17229SOL    HW252266   9.420   6.516   5.266 -0.5052 -0.4970 -0.2687
17230SOL     OW52267   9.047   5.362   7.159  0.1742 -0.4011  0.1048
17230SOL    HW152268   8.985   5.290   7.155  1.1373 -1.7428  4.2322
17230SOL    HW252269   9.006   5.427   7.216  0.8407  0.6730 -0.5856
17231SOL     OW52270   1.840   4.940   9.077 -0.4662 -0.1043 -0.3635
17231SOL    HW152271   1.852   4.854   9.037  0.2041 -0.8974  1.4615
17231SOL    HW252272   1.896   4.998   9.026 -2.2615 -0.3007 -2.7720
17232SOL     OW52273   1.139   8.656   7.922  0.4515  0.0225 -0.1751
17232SOL    HW152274   1.183   8.641   8.005  2.1341 -5.3838 -1.6206
17232SOL    HW252275   1.210   8.674   7.860 -0.1967 -0.8797 -1.2178
17233SOL     OW52276   3.440   2.014   6.188 -0.4612 -0.3297 -0.7713
17233SOL    HW152277   3.466   2.003   6.096  2.5142 -1.1707  0.0752
17233SOL    HW252278   3.469   2.103   6.209  2.1908 -1.3330  0.2284
17234SOL     OW52279   8.787   5.334   8.830 -0.9017  0.2555 -0.2431
17234SOL    HW152280   8.789   5.273   8.756  0.4565 -1.0156  0.7631
17234SOL    HW252281   8.786   5.421   8.790  0.0202 -0.3960 -1.7615
17235SOL     OW52282   1.189   7.816   0.913 -0.4297  0.5854 -0.0308
17235SOL    HW152283   1.176   7.779   0.825  2.3333 -2.7530  0.7602
17235SOL    HW252284   1.229   7.902   0.897  1.8792 -0.7432 -2.1689
17236SOL     OW52285   8.865   6.500   0.035 -0.1508  0.0354 -0.3488
17236SOL    HW152286   8.864   6.582  -0.015  2.3685 -0.9911 -2.3704
17236SOL    HW252287   8.782   6.457   0.013 -1.5343  1.9850  0.7852
17237SOL     OW52288   4.031   4.180   9.520 -0.5589  0.2648 -0.6590
17237SOL    HW152289   4.104   4.120   9.539  0.1237  1.0488 -0.7229
17237SOL    HW252290   4.074   4.261   9.493 -1.4695  0.4150 -1.7445
17238SOL     OW52291   5.089   5.692   3.898  0.2398  0.1481 -0.3149
17238SOL    HW152292   5.171   5.677   3.851  0.5931  0.7504  0.0954
17238SOL    HW252293   5.096   5.782   3.930  0.2073 -0.3768  1.2662
17239SOL     OW52294   6.565   2.861   6.958  0.0379 -0.3650 -0.2157
17239SOL    HW152295   6.535   2.841   7.047 -0.3483  1.2757  0.0646
17239SOL    HW252296   6.486   2.860   6.905  0.2727 -1.3646 -0.5580
17240SOL     OW52297   9.162   6.660   7.690 -0.1500  0.6817  0.3926
17240SOL    HW152298   9.082   6.632   7.734  0.5107 -0.6051  0.8268
17240SOL    HW252299   9.210   6.710   7.757  0.9872 -1.5137  1.3261
17241SOL     OW52300   3.993   3.332   4.896  0.0522 -0.0719 -0.2586
17241SOL    HW152301   4.000   3.301   4.987  0.4451 -1.1084 -0.6268
17241SOL    HW252302   3.982   3.252   4.845  1.1265  0.3988 -1.2616
17242SOL     OW52303   1.620   6.483   5.383  0.6294 -0.0090  0.1979
17242SOL    HW152304   1.603   6.410   5.324 -0.9179  0.0028  0.5918
17242SOL    HW252305   1.633   6.558   5.324 -0.4357 -0.0848 -0.1526
17243SOL     OW52306   4.180   2.117   0.157 -0.3630  0.2233  0.1453
17243SOL    HW152307   4.274   2.137   0.158 -0.3621  0.2781 -0.4505
17243SOL    HW252308   4.137   2.202   0.151 -0.4859  0.2516  1.2793
17244SOL     OW52309   4.620   8.550   1.075 -0.1929 -0.5475  0.3165
17244SOL    HW152310   4.652   8.497   1.002 -2.2240 -2.8484  0.9748
17244SOL    HW252311   4.599   8.635   1.036  0.9725 -0.9503 -1.2658
17245SOL     OW52312   2.962   7.007   8.757 -0.1906 -0.1206  0.5156
17245SOL    HW152313   2.998   6.926   8.792 -1.7138 -0.6084  1.0474
17245SOL    HW252314   2.884   6.979   8.708 -0.1585  0.9246 -0.1652
17246SOL     OW52315   2.266   7.925   0.513 -0.0794  0.0523 -0.3101
17246SOL    HW152316   2.213   8.005   0.513  1.2020  0.9216  0.3422
17246SOL    HW252317   2.274   7.902   0.606 -0.1863 -0.6870 -0.4742
17247SOL     OW52318   3.563   7.239   9.862  0.2964  0.0358 -0.2131
17247SOL    HW152319   3.606   7.264   9.944  0.0205 -1.7796  0.5397
17247SOL    HW252320   3.634   7.240   9.797  0.9554 -0.4324  0.4773
17248SOL     OW52321   9.505   3.133   3.180 -0.6080 -0.0759  0.2084
17248SOL    HW152322   9.504   3.189   3.102  0.5399 -0.4502 -0.1005
17248SOL    HW252323   9.413   3.115   3.198 -0.8692 -1.5797 -2.2195
17249SOL     OW52324   7.100   7.655   1.276 -0.1680 -0.1890  0.2236
17249SOL    HW152325   7.180   7.701   1.251 -0.2813 -0.1372 -0.0447
17249SOL    HW252326   7.096   7.580   1.216 -0.5760  0.0774 -0.0846
17250SOL     OW52327   5.891   1.763   7.459  0.3439 -0.3920 -0.3130
17250SOL    HW152328   5.941   1.792   7.536  0.7745 -0.7399 -0.4610
17250SOL    HW252329   5.875   1.670   7.474 -0.1230 -0.3164 -0.3424
17251SOL     OW52330   3.464   9.104   2.887 -0.2684  0.3722 -0.0503
17251SOL    HW152331   3.500   9.054   2.961 -2.6714 -0.7202  0.4894
17251SOL    HW252332   3.480   9.048   2.811 -1.4223 -0.4837  0.3014
17252SOL     OW52333   0.932   7.432   3.323  0.6321  0.0801 -0.5999
17252SOL    HW152334   0.994   7.372   3.364 -0.2690  0.4217  1.3586
17252SOL    HW252335   0.946   7.515   3.367 -2.1046 -0.1595  0.9071
17253SOL     OW52336   6.513   9.343   1.927  0.0879  0.7696  0.1469
17253SOL    HW152337   6.543   9.298   1.848  0.0290  0.2120  0.4310
17253SOL    HW252338   6.423   9.313   1.939  0.1983  0.6095  0.5913
17254SOL     OW52339   4.134   8.161   2.782  0.2081  0.1595 -0.5287
17254SOL    HW152340   4.113   8.195   2.695  0.1411 -1.3619 -1.1293
17254SOL    HW252341   4.049   8.145   2.822  0.2401  0.4177 -0.3546
17255SOL     OW52342   9.405   3.555   1.436  0.2043 -0.3334 -0.2057
17255SOL    HW152343   9.329   3.610   1.456  0.3876 -0.1302 -0.0666
17255SOL    HW252344   9.368   3.475   1.401 -0.0693 -0.1513 -0.3341
17256SOL     OW52345   7.294   2.895   3.544  0.1223 -0.0074 -0.6496
17256SOL    HW152346   7.339   2.831   3.598 -0.7955  0.6706  0.9872
17256SOL    HW252347   7.212   2.914   3.591 -0.0879  1.6108 -1.5761
17257SOL     OW52348   9.329   0.225   5.526  0.0870 -0.3686 -0.2746
17257SOL    HW152349   9.345   0.180   5.610 -0.5192  0.4794  0.3112
17257SOL    HW252350   9.290   0.309   5.551 -1.3610 -0.6543 -1.4758
17258SOL     OW52351   8.372   8.571   8.952  0.2554 -0.1433 -0.1344
17258SOL    HW152352   8.334   8.577   8.865  3.3300 -2.8315 -1.8940
17258SOL    HW252353   8.429   8.648   8.959  0.0812  0.0236 -0.5720
17259SOL     OW52354   7.353   5.696   0.435  0.2855 -0.3631  0.6156
17259SOL    HW152355   7.438   5.699   0.391 -0.3834  2.4668 -0.7134
17259SOL    HW252356   7.308   5.622   0.394  0.5716  0.7514 -1.8705
17260SOL     OW52357   3.676   4.731   1.134 -0.0049 -0.5530  0.4995
17260SOL    HW152358   3.714   4.656   1.090  2.3530  0.8171  0.0199
17260SOL    HW252359   3.642   4.786   1.064  0.7653  0.0842  0.6111
17261SOL     OW52360   7.652   5.354   1.777  0.3485 -0.6758  0.0480
17261SOL    HW152361   7.724   5.382   1.833  1.3461  0.2224 -1.5955
17261SOL    HW252362   7.614   5.436   1.745 -0.1346 -1.1538 -0.6281
17262SOL     OW52363   2.491   1.832   0.434 -0.2505  0.2198  0.4582
17262SOL    HW152364   2.471   1.788   0.352  1.4824  0.7992 -0.3124
17262SOL    HW252365   2.584   1.818   0.448  0.1092  2.4816  0.8437
17263SOL     OW52366   7.615   8.196   9.669 -0.1436 -0.2593  0.5146
17263SOL    HW152367   7.530   8.182   9.711 -0.7287 -1.2933 -0.9074
17263SOL    HW252368   7.593   8.222   9.579  1.0596  0.7337  0.4807
17264SOL     OW52369   2.745   3.998   3.573  0.1345  0.2120 -0.0335
17264SOL    HW152370   2.817   4.032   3.519 -0.8380  0.3389 -1.3077
17264SOL    HW252371   2.775   3.913   3.603  0.7023  0.1230 -0.8178
17265SOL     OW52372   6.707   1.970   7.139 -0.3397  0.3759 -0.2416
17265SOL    HW152373   6.611   1.967   7.135 -0.3766 -1.4873  0.8443
17265SOL    HW252374   6.735   1.965   7.048 -1.3018 -1.8525 -0.4814
17266SOL     OW52375   0.453   1.086   8.923 -0.0420 -0.4714 -0.6060
17266SOL    HW152376   0.460   0.995   8.952  1.2513 -0.3891 -0.5914
17266SOL    HW252377   0.383   1.122   8.976 -0.3078 -1.3567 -0.3322
17267SOL     OW52378   9.001   7.496   8.245  0.6464  0.2302  0.0696
17267SOL    HW152379   9.000   7.411   8.287 -1.7411  0.2519  0.1538
17267SOL    HW252380   9.011   7.559   8.316 -1.6396  0.1747  0.5122
17268SOL     OW52381   2.911   0.795   7.112 -0.3546 -0.2016 -0.1478
17268SOL    HW152382   2.870   0.809   7.197  1.2647  0.8357  0.5076
17268SOL    HW252383   2.978   0.728   7.127 -0.2297 -0.2045 -0.6653
17269SOL     OW52384   2.134   3.705   5.714  0.2884 -0.7396 -0.1878
17269SOL    HW152385   2.060   3.765   5.708 -0.8949 -2.2295 -1.7807
17269SOL    HW252386   2.165   3.713   5.804 -2.4129 -0.7026  0.8198
17270SOL     OW52387   4.939   1.320   5.724 -0.2527  0.1054 -0.5894
17270SOL    HW152388   4.979   1.300   5.639 -0.6950  1.0789 -1.0358
17270SOL    HW252389   4.913   1.234   5.758 -0.4057 -0.2702 -1.5993
17271SOL     OW52390   6.060   4.303   7.750  0.2033  0.1796  0.0460
17271SOL    HW152391   6.103   4.240   7.692  0.1773  1.0072 -0.9116
17271SOL    HW252392   6.030   4.251   7.824  1.1662 -0.7390 -0.1731
17272SOL     OW52393   3.784   5.692   5.645  0.5865  0.0131  0.4216
17272SOL    HW152394   3.812   5.713   5.555  2.6573  1.0081  1.2353
17272SOL    HW252395   3.719   5.623   5.634  0.0467  0.7975 -1.9009
17273SOL     OW52396   6.873   0.732   9.771 -0.1257  0.3956  0.0269
17273SOL    HW152397   6.938   0.800   9.789 -1.1124  0.9097  1.9415
17273SOL    HW252398   6.801   0.751   9.831 -0.7901 -1.8524  0.0609
17274SOL     OW52399   4.944   0.316   7.770  0.0350 -0.1803  0.0099
17274SOL    HW152400   4.973   0.255   7.837 -3.3691 -0.8381  1.0641
17274SOL    HW252401   4.965   0.403   7.806  1.4932 -0.5926  0.2086
17275SOL     OW52402   6.987   2.285   2.289  0.4518 -0.3887 -0.1604
17275SOL    HW152403   7.076   2.294   2.254 -0.4485 -3.6387 -3.9232
17275SOL    HW252404   6.947   2.371   2.273  2.8862  1.3711  2.1849
17276SOL     OW52405   3.654   2.687   2.320 -0.0475 -0.2217  0.1625
17276SOL    HW152406   3.717   2.682   2.393  0.5627 -0.4159 -0.3680
17276SOL    HW252407   3.618   2.598   2.314  0.8031 -0.5279 -0.5498
17277SOL     OW52408   8.530   6.007   8.403 -0.4678  0.1545  0.3778
17277SOL    HW152409   8.543   6.050   8.318 -1.4013  1.3574  0.8174
17277SOL    HW252410   8.557   6.072   8.468 -0.3977 -0.5133  1.0332
17278SOL     OW52411   0.696   3.607   1.677 -0.3003 -0.1036 -0.3882
17278SOL    HW152412   0.693   3.629   1.770 -0.3500  2.4100 -0.9027
17278SOL    HW252413   0.788   3.588   1.660  0.3967  2.7414 -0.3980
17279SOL     OW52414   2.560   6.297   1.326 -0.2728 -0.1101  0.4973
17279SOL    HW152415   2.508   6.358   1.380  1.1976 -0.0411  1.9300
17279SOL    HW252416   2.649   6.334   1.328  0.0775 -0.8201 -0.9494
17280SOL     OW52417   2.062   6.565   1.202 -0.3594  0.4092  0.2388
17280SOL    HW152418   2.119   6.620   1.149  0.7137  0.3545  1.2849
17280SOL    HW252419   2.043   6.619   1.279  0.1453 -0.3974  0.9533
17281SOL     OW52420   0.413   6.527   6.154 -0.0907 -0.3863 -0.0944
17281SOL    HW152421   0.439   6.438   6.177  0.1773 -0.5587 -1.0251
17281SOL    HW252422   0.336   6.545   6.209 -0.5146 -1.4141 -0.3278
17282SOL     OW52423   0.913   5.738   0.027  0.4178 -0.0734  0.4286
17282SOL    HW152424   0.985   5.773   0.081  0.8436 -0.0356 -0.1575
17282SOL    HW252425   0.957   5.692  -0.045 -0.1285  1.5635 -0.9981
17283SOL     OW52426   8.068   9.392   4.384  0.2106 -0.1296 -0.1195
17283SOL    HW152427   7.993   9.416   4.330  0.5987  2.3467  0.3174
17283SOL    HW252428   8.098   9.475   4.421  3.2393 -1.0243 -0.3498
17284SOL     OW52429   5.036   4.184   9.952  0.0462  0.2177  0.2055
17284SOL    HW152430   5.015   4.236  10.029  0.3927 -0.3782  0.7141
17284SOL    HW252431   4.995   4.231   9.879 -1.0658  0.3007  0.8648
17285SOL     OW52432   2.149   3.010   5.503  0.7650  0.0048  0.1057
17285SOL    HW152433   2.233   2.993   5.546  0.8860  0.4539  0.0536
17285SOL    HW252434   2.152   3.103   5.482  0.8246 -0.2615 -1.1332
17286SOL     OW52435   6.443   8.907   7.885  0.1822 -0.5380 -0.6563
17286SOL    HW152436   6.492   8.838   7.840  0.0087 -1.4694  0.5342
17286SOL    HW252437   6.376   8.860   7.934  0.9403  0.3479  1.3233
17287SOL     OW52438   5.834   9.716   3.499  0.1126  0.1655  0.3690
17287SOL    HW152439   5.757   9.659   3.497  1.1007 -1.2590  1.3277
17287SOL    HW252440   5.907   9.659   3.474  1.0695  1.1042  0.9496
17288SOL     OW52441   6.871   2.795   2.324 -0.1157  0.5328 -0.6107
17288SOL    HW152442   6.916   2.818   2.406 -0.6019 -1.2695  0.2084
17288SOL    HW252443   6.789   2.844   2.328 -0.6038 -0.3212  0.5167
17289SOL     OW52444   2.808   8.758   6.828  0.3762 -0.0859  0.4606
17289SOL    HW152445   2.734   8.754   6.888 -1.4647  1.1861 -1.5816
17289SOL    HW252446   2.804   8.676   6.778  0.9746 -0.4485  0.9862
17290SOL     OW52447   4.949   9.773   2.024 -0.4524 -0.3671  0.5028
17290SOL    HW152448   4.862   9.737   2.043  0.7155 -1.9913  3.6521
17290SOL    HW252449   5.007   9.697   2.030  1.2439  0.6638 -1.6394
17291SOL     OW52450   2.163   0.142   5.808  0.4714  0.4956 -0.3347
17291SOL    HW152451   2.085   0.128   5.862 -0.1055 -0.2664 -1.3443
17291SOL    HW252452   2.234   0.103   5.860 -0.4020 -2.1968 -1.0034
17292SOL     OW52453   6.569   8.975   0.705 -0.2855  0.0796  0.3635
17292SOL    HW152454   6.548   8.933   0.622  0.4671 -0.0989  0.2588
17292SOL    HW252455   6.664   8.986   0.704  0.0081 -1.6488  1.9750
17293SOL     OW52456   9.653   5.172   3.002 -0.1217  0.6249 -0.3286
17293SOL    HW152457   9.731   5.162   2.948 -0.1283 -1.4637 -0.0575
17293SOL    HW252458   9.584   5.125   2.954 -0.9051  1.3677  0.0395
17294SOL     OW52459   8.216   8.644   7.456 -0.1034  0.6493  0.5285
17294SOL    HW152460   8.233   8.694   7.376  2.6343 -0.8611  0.0329
17294SOL    HW252461   8.166   8.704   7.512 -0.3328  2.4808 -1.5167
17295SOL     OW52462   2.641   2.233   4.695  0.3367 -0.1691 -0.6071
17295SOL    HW152463   2.722   2.245   4.645  1.4808 -1.3054  0.8646
17295SOL    HW252464   2.640   2.307   4.756 -0.2972  0.4207 -1.3245
17296SOL     OW52465   5.505   3.007   9.049 -0.5680  0.0714 -0.3053
17296SOL    HW152466   5.558   3.080   9.018 -1.0452  0.4448 -0.2457
17296SOL    HW252467   5.534   2.993   9.139 -0.1201 -0.1457 -0.4811
17297SOL     OW52468   9.404   6.012   7.580  0.5692  0.0806 -0.5080
17297SOL    HW152469   9.366   6.064   7.651 -0.1036 -0.7973 -0.2157
17297SOL    HW252470   9.430   6.077   7.514  2.4916  1.0450  1.0918
17298SOL     OW52471   1.199   1.302   5.147  0.2137 -0.1150  0.6572
17298SOL    HW152472   1.211   1.353   5.227  0.3253  3.0201 -1.1870
17298SOL    HW252473   1.104   1.291   5.140 -0.1096  2.5154 -0.3125
17299SOL     OW52474   2.148   5.182   2.481 -0.2534  0.1037  0.0039
17299SOL    HW152475   2.171   5.092   2.504  1.2698  0.5946  0.5294
17299SOL    HW252476   2.227   5.218   2.441 -1.2305  0.8585 -1.3425
17300SOL     OW52477   6.687   2.543   1.873  0.5559  0.1855  0.6025
17300SOL    HW152478   6.746   2.615   1.852 -0.5005  1.2620  1.1766
17300SOL    HW252479   6.744   2.470   1.894  1.6542  0.5861 -0.8730
17301SOL     OW52480   3.700   3.499   2.181  0.2889  0.2065  0.2514
17301SOL    HW152481   3.696   3.407   2.206  0.8283  0.1587  0.1655
17301SOL    HW252482   3.649   3.504   2.100 -0.2870  0.1077  0.5978
17302SOL     OW52483   6.309   6.951   1.693 -0.3673 -0.3739 -0.0095
17302SOL    HW152484   6.304   7.046   1.693  0.1085 -0.3479  0.0346
17302SOL    HW252485   6.319   6.928   1.601 -1.7093 -0.4555 -0.1548
17303SOL     OW52486   9.208   1.407   3.272  0.3863 -0.0645  0.3957
17303SOL    HW152487   9.301   1.385   3.277  1.0736  2.3853 -0.1313
17303SOL    HW252488   9.188   1.401   3.178  0.4951  1.0511  0.2882
17304SOL     OW52489   7.750   1.415   6.358  0.0306 -0.5100 -0.6834
17304SOL    HW152490   7.821   1.479   6.350  1.0786 -1.3751  1.0296
17304SOL    HW252491   7.691   1.436   6.286  1.5931  0.7849 -1.6745
17305SOL     OW52492   7.145   9.532   4.733  0.0397 -0.2852  0.6152
17305SOL    HW152493   7.086   9.463   4.701  0.0186  0.0282 -0.0388
17305SOL    HW252494   7.232   9.491   4.733  0.1772 -0.0334 -0.6963
17306SOL     OW52495   1.643   2.274   3.530  0.8795 -0.2155  0.1294
17306SOL    HW152496   1.702   2.340   3.495  1.0240 -1.3039 -1.8743
17306SOL    HW252497   1.624   2.302   3.619  3.1973  0.9710  0.3116
17307SOL     OW52498   7.566   3.144   2.017  0.3907 -0.3558 -0.6729
17307SOL    HW152499   7.574   3.138   1.922  0.0205  1.3105 -0.8258
17307SOL    HW252500   7.656   3.139   2.049  0.8247  2.1397 -1.3362
17308SOL     OW52501   1.625   1.662   1.571  0.0201 -0.0306  0.0169
17308SOL    HW152502   1.617   1.573   1.538  0.1860 -0.1961  0.4159
17308SOL    HW252503   1.616   1.653   1.666  0.4074  0.3304  0.0886
17309SOL     OW52504   9.054   6.929   6.413 -0.3983 -0.1100 -0.1933
17309SOL    HW152505   8.990   6.993   6.442  0.5912  0.5670  0.5838
17309SOL    HW252506   9.054   6.862   6.482 -0.8571 -0.5566 -0.6117
17310SOL     OW52507   9.453   1.070   5.440  0.6967 -0.2197  0.1672
17310SOL    HW152508   9.437   1.106   5.353 -0.8121  0.5432  0.7240
17310SOL    HW252509   9.368   1.072   5.483  1.0450 -2.2117  1.0852
17311SOL     OW52510   7.124   5.946   3.105  0.9401 -0.2916  0.2510
17311SOL    HW152511   7.084   5.982   3.026  2.5305 -0.7351 -0.7985
17311SOL    HW252512   7.146   5.856   3.082  2.3537 -0.1166  0.8355
17312SOL     OW52513   6.310   5.656   6.470 -0.2142 -0.2222 -0.0413
17312SOL    HW152514   6.392   5.653   6.519 -0.7734 -0.3318  0.9272
17312SOL    HW252515   6.322   5.726   6.406  1.3628 -1.5702 -1.3049
17313SOL     OW52516   2.270   0.285   7.627 -0.0483  0.4959  0.1303
17313SOL    HW152517   2.231   0.325   7.550 -0.7103 -0.9627 -0.3264
17313SOL    HW252518   2.360   0.319   7.628 -0.3957  1.4862 -0.5710
17314SOL     OW52519   5.734   3.726   6.203 -0.1324 -0.1668 -0.3916
17314SOL    HW152520   5.691   3.675   6.135 -1.7889  1.5904 -0.7608
17314SOL    HW252521   5.662   3.764   6.254  1.0553  0.1060  1.1541
17315SOL     OW52522   4.736   4.965   4.771  0.0822  0.6177 -0.1973
17315SOL    HW152523   4.816   4.931   4.732 -1.3598 -1.9942 -1.1283
17315SOL    HW252524   4.757   4.975   4.864  1.5588  0.2775 -0.4701
17316SOL     OW52525   1.192   4.165   2.119 -0.0815  0.0232 -0.4948
17316SOL    HW152526   1.190   4.129   2.207 -0.2803  2.7991  0.7544
17316SOL    HW252527   1.100   4.181   2.097  0.0782  2.3774  0.2563
17317SOL     OW52528   5.092   5.310   3.712 -0.5893 -0.0668 -0.6298
17317SOL    HW152529   5.110   5.287   3.803 -2.7008  0.6317  0.0333
17317SOL    HW252530   5.128   5.398   3.703 -2.9043  1.1095  0.5227
17318SOL     OW52531   6.566   8.036   7.711  0.7178 -0.5263 -0.4384
17318SOL    HW152532   6.620   8.112   7.691 -0.3136  0.2750 -0.2835
17318SOL    HW252533   6.541   8.002   7.625 -0.0150  0.2089 -0.5341
17319SOL     OW52534   7.821   1.654   1.590 -0.0934 -0.5668  0.4593
17319SOL    HW152535   7.804   1.704   1.669  0.3725  0.4380 -0.0495
17319SOL    HW252536   7.854   1.570   1.621 -1.4992 -0.8175  1.3445
17320SOL     OW52537   5.336   1.960   1.253  0.1849 -0.2072 -0.4361
17320SOL    HW152538   5.318   1.911   1.334  1.1309 -1.0734 -0.7335
17320SOL    HW252539   5.373   2.042   1.283  2.5167 -1.3456  0.0253
17321SOL     OW52540   4.418   4.225   8.693  0.3012 -0.2450 -0.3149
17321SOL    HW152541   4.500   4.237   8.741  0.4712 -1.2043 -0.3443
17321SOL    HW252542   4.352   4.212   8.762 -0.1274  2.0155 -0.2249
17322SOL     OW52543   1.557   4.846   4.067 -0.1648  0.2660 -0.8271
17322SOL    HW152544   1.634   4.794   4.045  0.4386  0.8532 -0.1176
17322SOL    HW252545   1.521   4.803   4.145 -1.1210 -0.5734 -1.6897
17323SOL     OW52546   9.483   1.581   4.549 -0.3084  0.1013  0.2910
17323SOL    HW152547   9.439   1.634   4.616  0.4499  0.4163  0.5611
17323SOL    HW252548   9.556   1.636   4.521 -1.5233  0.6590 -1.9653
17324SOL     OW52549   5.630   5.039   4.266 -0.5187 -0.4619  0.2541
17324SOL    HW152550   5.626   4.946   4.246  2.1462 -0.3981 -0.8589
17324SOL    HW252551   5.620   5.083   4.181  2.8838  0.0418 -0.0165
17325SOL     OW52552   1.580   2.385   8.994 -0.6742  0.4548 -0.4001
17325SOL    HW152553   1.582   2.342   9.080  4.6869  0.4004 -0.2182
17325SOL    HW252554   1.571   2.478   9.014  0.9202  0.4824  0.3615
17326SOL     OW52555   3.188   7.906   0.161  0.0955  0.4212  0.1233
17326SOL    HW152556   3.167   7.821   0.201 -0.7543 -0.9181 -2.8959
17326SOL    HW252557   3.106   7.955   0.167  0.0143  0.2875  0.1211
17327SOL     OW52558   7.935   4.002   0.827  0.1464 -0.2809  0.2698
17327SOL    HW152559   7.841   3.992   0.814 -0.6751  1.9808  3.3931
17327SOL    HW252560   7.959   4.078   0.773 -0.4805  0.8973  1.5874
17328SOL     OW52561   9.665   8.870   4.796  0.1310 -0.4490 -0.1190
17328SOL    HW152562   9.675   8.950   4.745  0.0392  1.3205  2.4081
17328SOL    HW252563   9.729   8.810   4.760  0.9648  1.1381 -1.4259
17329SOL     OW52564   5.216   1.812   8.886 -0.5130  0.2430 -0.2567
17329SOL    HW152565   5.292   1.824   8.941 -2.0740  0.0302  2.0831
17329SOL    HW252566   5.187   1.722   8.903 -1.5906  0.4930 -0.6495
17330SOL     OW52567   0.032   1.393   8.209 -0.0352 -0.0711  0.0413
17330SOL    HW152568   0.090   1.437   8.147 -1.0545  1.3909  0.0681
17330SOL    HW252569   0.002   1.463   8.267 -2.5503 -0.5740 -0.5438
17331SOL     OW52570   9.192   9.815   4.100 -0.2591  0.4174 -0.2251
17331SOL    HW152571   9.240   9.880   4.049  0.2191 -0.6178 -1.1199
17331SOL    HW252572   9.212   9.731   4.059 -1.5985 -0.2185  0.3368
17332SOL     OW52573   3.116   8.554   4.194 -0.5228 -0.0246 -0.1667
17332SOL    HW152574   3.099   8.628   4.253  0.9174 -1.1278  1.7486
17332SOL    HW252575   3.138   8.595   4.110  0.2023  1.7409  0.8210
17333SOL     OW52576   3.477   0.087   5.237  0.1939  0.4567 -0.0913
17333SOL    HW152577   3.516   0.077   5.324  0.3063  0.1566 -0.1747
17333SOL    HW252578   3.390   0.124   5.254 -0.0894 -0.3258  0.2116
17334SOL     OW52579   6.747   5.926   6.276 -0.3735  0.1526  0.2386
17334SOL    HW152580   6.793   5.955   6.355 -0.0244  0.7036 -0.1579
17334SOL    HW252581   6.745   5.831   6.284 -1.2787  0.2476  1.4197
17335SOL     OW52582   4.660   0.967   0.688  0.3399  0.3585  0.4036
17335SOL    HW152583   4.598   0.956   0.760  0.2251 -0.2365  0.2230
17335SOL    HW252584   4.613   0.931   0.612  0.4548  0.9876  0.0324
17336SOL     OW52585   8.037   1.981   8.565 -0.2738  0.5581  0.0317
17336SOL    HW152586   7.975   1.961   8.636  0.7813  0.4103  0.9386
17336SOL    HW252587   8.011   1.924   8.493 -2.4948  1.9548 -0.4020
17337SOL     OW52588   1.395   5.434   9.407 -0.0929  0.1568  0.2588
17337SOL    HW152589   1.454   5.506   9.385 -0.7336  0.7561  0.4356
17337SOL    HW252590   1.433   5.357   9.365  0.5645  0.6178  0.0004
17338SOL     OW52591   0.395   6.137   3.128  0.1385  1.2260 -0.7836
17338SOL    HW152592   0.410   6.196   3.203 -0.3202 -2.0233  2.1259
17338SOL    HW252593   0.482   6.111   3.101  0.2900  1.4114 -0.4881
17339SOL     OW52594   6.459   1.833   3.985  0.7758  0.0316 -0.3364
17339SOL    HW152595   6.515   1.859   4.058  0.2447  0.8115 -0.1855
17339SOL    HW252596   6.413   1.914   3.961 -1.8569 -0.9832  0.9017
17340SOL     OW52597   2.126   6.985   9.306  0.7930 -0.1358  1.1494
17340SOL    HW152598   2.129   7.012   9.397  1.8655  1.0180  0.7929
17340SOL    HW252599   2.033   6.984   9.284  0.5279 -0.3871  2.2299
17341SOL     OW52600   2.243   3.538   1.180 -0.0522 -0.5876 -0.4640
17341SOL    HW152601   2.316   3.558   1.122 -1.3454 -1.3034 -2.4067
17341SOL    HW252602   2.202   3.461   1.143 -2.0838  0.0549  0.2984
17342SOL     OW52603   4.974   9.835   2.295 -0.1165 -0.1092 -0.0833
17342SOL    HW152604   4.964   9.875   2.208  1.5215  0.3131 -0.1159
17342SOL    HW252605   4.887   9.804   2.318 -0.7105  0.3655 -1.5992
17343SOL     OW52606   3.305   5.639   4.472  0.5834  0.3660 -0.0219
17343SOL    HW152607   3.304   5.585   4.393 -1.8499 -1.4482  1.1186
17343SOL    HW252608   3.249   5.713   4.451  0.5244  0.2600 -0.2423
17344SOL     OW52609   2.517   6.402   8.764 -0.4582  0.0694  0.3302
17344SOL    HW152610   2.430   6.435   8.788 -0.5150  1.6788 -1.7949
17344SOL    HW252611   2.504   6.308   8.753 -1.7756  0.1740  0.7422
17345SOL     OW52612   2.451   3.048   9.937  0.4539  0.1395 -0.6862
17345SOL    HW152613   2.544   3.069   9.937  0.6984 -0.8783 -0.1166
17345SOL    HW252614   2.408   3.129   9.910  1.3761  1.1534  0.7754
17346SOL     OW52615   1.412   5.817   2.109 -0.6701  0.5726  0.3057
17346SOL    HW152616   1.445   5.905   2.126  2.7392 -0.5534  0.1659
17346SOL    HW252617   1.411   5.809   2.014 -0.8823  0.3994  0.3207
17347SOL     OW52618   8.203   2.950   4.121 -0.7856 -0.7449 -0.4065
17347SOL    HW152619   8.237   2.902   4.198  2.1503 -0.0905 -1.1761
17347SOL    HW252620   8.269   2.936   4.053  0.0036  3.8410 -0.8854
17348SOL     OW52621   2.706   0.369   3.750  0.5904 -0.1464 -0.1958
17348SOL    HW152622   2.750   0.302   3.801 -1.5929 -0.4276  1.4602
17348SOL    HW252623   2.712   0.448   3.804 -2.7431 -0.7186  1.2352
17349SOL     OW52624   8.440   1.253   0.879  0.1097 -0.6463  0.0963
17349SOL    HW152625   8.435   1.300   0.962 -0.1772  3.0646 -1.8051
17349SOL    HW252626   8.349   1.226   0.861  0.0468 -0.7786  0.6023
17350SOL     OW52627   4.016   2.002   6.353  0.6944  0.1082 -0.2316
17350SOL    HW152628   4.062   1.918   6.361 -0.9259 -0.9309 -1.2953
17350SOL    HW252629   4.002   2.012   6.259 -3.0219 -0.6718  0.1042
17351SOL     OW52630   6.891   2.011   2.324 -0.4430 -0.4424 -0.0401
17351SOL    HW152631   6.978   1.983   2.297  0.4744 -0.2312  2.4255
17351SOL    HW252632   6.899   2.106   2.335 -0.7928 -0.4993  0.7798
17352SOL     OW52633   8.811   6.908   1.948 -0.0154  0.0376  0.0706
17352SOL    HW152634   8.796   6.821   1.911  0.4349 -0.2269  0.5061
17352SOL    HW252635   8.741   6.962   1.911 -0.0706 -0.4175 -0.5063
17353SOL     OW52636   9.736   5.572   1.845  0.1259  0.3843 -0.4884
17353SOL    HW152637   9.741   5.493   1.791  1.0427  0.2079 -0.1729
17353SOL    HW252638   9.705   5.640   1.786  0.1684 -0.0241 -0.9858
17354SOL     OW52639   6.759   4.958   2.261 -0.1369 -0.3950 -0.0616
17354SOL    HW152640   6.848   4.961   2.225  0.0624 -1.2557  0.3227
17354SOL    HW252641   6.712   5.027   2.215  0.2837 -1.0225 -1.5061
17355SOL     OW52642   0.215   9.514   7.495 -0.6572 -0.2295 -0.1628
17355SOL    HW152643   0.235   9.421   7.487 -0.8196 -0.2498 -0.3485
17355SOL    HW252644   0.300   9.556   7.508 -0.3159 -0.1572 -2.2737
17356SOL     OW52645   7.400   5.482   2.543 -0.1913  0.0460 -0.8079
17356SOL    HW152646   7.381   5.505   2.634  1.2390  0.0199 -0.4787
17356SOL    HW252647   7.444   5.397   2.549 -0.1891 -0.0114 -1.5439
17357SOL     OW52648   2.345   3.633   9.101  0.1601 -0.3688 -0.5229
17357SOL    HW152649   2.349   3.612   9.007 -1.9046 -2.3814 -0.2624
17357SOL    HW252650   2.263   3.682   9.111 -0.9714 -2.3658  0.5192
17358SOL     OW52651   5.729   8.136   7.283 -0.0600  0.3211  0.6185
17358SOL    HW152652   5.704   8.229   7.286  0.3771  0.4160  1.6682
17358SOL    HW252653   5.764   8.124   7.194 -1.1823  0.8685  0.0744
17359SOL     OW52654   6.732   0.519   7.550 -0.0925  0.1943 -0.5803
17359SOL    HW152655   6.768   0.531   7.462  1.0931  0.6266 -0.0527
17359SOL    HW252656   6.739   0.605   7.591  2.2158 -0.6202  0.9536
17360SOL     OW52657   7.124   4.655   0.874 -0.7264  0.7988  0.5291
17360SOL    HW152658   7.096   4.744   0.853  1.1058  1.3366  0.2159
17360SOL    HW252659   7.109   4.647   0.968 -1.3661  1.2652  0.4714
17361SOL     OW52660   8.535   4.052   4.200  0.1390  0.3857  0.1405
17361SOL    HW152661   8.508   4.032   4.289 -0.8473  0.1731 -0.1943
17361SOL    HW252662   8.631   4.046   4.202  0.0373 -1.5172  0.7295
17362SOL     OW52663   0.923   6.014   4.647 -0.2049  0.2406  0.0598
17362SOL    HW152664   0.907   5.992   4.738 -1.1011  2.6444  0.5619
17362SOL    HW252665   0.983   6.088   4.650 -0.1090  0.2490 -1.3056
17363SOL     OW52666   9.179   6.093   9.425  0.4225  0.5720 -0.1004
17363SOL    HW152667   9.224   6.116   9.344  2.5356 -1.4520  0.3497
17363SOL    HW252668   9.233   6.023   9.462  0.5139  2.4766  3.8898
17364SOL     OW52669   2.133   6.057   1.358  0.4743 -0.2428  0.2020
17364SOL    HW152670   2.226   6.034   1.359  0.3052 -1.0817 -1.1751
17364SOL    HW252671   2.132   6.151   1.378  1.4941 -0.5103  1.6549
17365SOL     OW52672   6.827   8.503   6.625 -0.4731  0.4657 -0.3140
17365SOL    HW152673   6.862   8.559   6.555 -1.9253 -0.5886 -1.9540
17365SOL    HW252674   6.895   8.437   6.639 -0.5151  0.1704 -1.3811
17366SOL     OW52675   2.708   5.598   3.573  0.5756  0.0458  0.1856
17366SOL    HW152676   2.747   5.625   3.657  1.0997  1.1606 -0.4051
17366SOL    HW252677   2.762   5.525   3.545 -0.4884 -1.3204  1.5021
17367SOL     OW52678   6.250   1.299   7.087 -0.0623 -0.4069  0.2736
17367SOL    HW152679   6.262   1.342   7.002 -0.2734 -1.2915 -0.2138
17367SOL    HW252680   6.337   1.267   7.111 -0.1229 -0.6974  0.0995
17368SOL     OW52681   6.000   2.440   6.911 -0.4944  0.5330 -0.3214
17368SOL    HW152682   6.064   2.506   6.884 -0.5910  1.6152  1.8541
17368SOL    HW252683   5.920   2.489   6.927 -1.1389 -0.4274 -0.5355
17369SOL     OW52684   6.645   4.502   7.672 -0.4440  0.2406  0.1315
17369SOL    HW152685   6.712   4.467   7.613 -0.6866  0.5730 -0.3511
17369SOL    HW252686   6.618   4.426   7.725  0.7185  0.2315  0.7467
17370SOL     OW52687   8.391   3.834   2.837  0.6461  0.1333 -0.0036
17370SOL    HW152688   8.365   3.923   2.815  0.1175 -0.2745 -1.0885
17370SOL    HW252689   8.355   3.819   2.924 -0.9880  0.2912 -0.6303
17371SOL     OW52690   3.499   3.289   5.790  0.6132  0.7432 -0.2272
17371SOL    HW152691   3.592   3.303   5.771  1.0614  0.3442  1.5473
17371SOL    HW252692   3.485   3.196   5.776  0.6872  0.6440  0.3722
17372SOL     OW52693   6.896   4.339   8.153  0.3764 -0.1417 -0.6624
17372SOL    HW152694   6.988   4.353   8.131  0.4180 -0.0061 -0.4116
17372SOL    HW252695   6.884   4.244   8.147  0.7178 -0.2325  0.0043
17373SOL     OW52696   4.554   0.317   7.573 -0.4240  0.0561 -0.4387
17373SOL    HW152697   4.513   0.254   7.512  0.9327  0.3383 -1.6810
17373SOL    HW252698   4.529   0.403   7.539 -1.3016  0.2194  0.5811
17374SOL     OW52699   9.665   0.340   9.148 -0.3570 -0.4740  0.0189
17374SOL    HW152700   9.579   0.330   9.188 -0.5936 -0.1162 -0.3957
17374SOL    HW252701   9.727   0.333   9.221 -0.7830  0.2398  0.4495
17375SOL     OW52702   9.278   0.362   9.756 -0.1154 -0.1593 -0.0772
17375SOL    HW152703   9.238   0.381   9.841  0.5628  1.7822 -0.1502
17375SOL    HW252704   9.208   0.320   9.705 -1.7718  2.1128  0.1742
17376SOL     OW52705   6.948   2.676   3.969 -0.4712 -0.0455  0.0495
17376SOL    HW152706   6.889   2.655   3.896 -0.8191 -0.5475  0.4736
17376SOL    HW252707   7.028   2.627   3.950 -1.2699 -1.8000  1.0259
17377SOL     OW52708   7.197   5.637   1.470  0.0584  0.2412 -0.4787
17377SOL    HW152709   7.200   5.572   1.399 -0.8434 -0.6944  0.3175
17377SOL    HW252710   7.248   5.598   1.541 -0.9658  0.1350  0.2125
17378SOL     OW52711   9.734   4.122   2.501  0.2968  0.5344  0.2384
17378SOL    HW152712   9.811   4.168   2.467 -0.9849  1.4471 -1.5638
17378SOL    HW252713   9.721   4.158   2.588  1.3294  1.0870  0.1795
17379SOL     OW52714   4.311   1.746   6.553 -0.0381  0.5017  0.3850
17379SOL    HW152715   4.242   1.683   6.572  0.2514 -0.0445 -0.3548
17379SOL    HW252716   4.295   1.775   6.464  1.6879 -0.9785 -0.4648
17380SOL     OW52717   0.848   0.132   3.077 -0.3119 -0.1182 -0.2694
17380SOL    HW152718   0.941   0.113   3.060 -0.4596 -0.4465 -0.7337
17380SOL    HW252719   0.848   0.176   3.162  0.3922  1.0447 -0.8448
17381SOL     OW52720   4.576   6.735   6.292 -0.5348  0.8350 -0.3350
17381SOL    HW152721   4.488   6.697   6.299 -0.0611 -0.2466 -0.0450
17381SOL    HW252722   4.560   6.828   6.277 -1.7453  0.5170 -1.2594
17382SOL     OW52723   5.826   2.379   9.046 -0.9171  0.0099  0.6632
17382SOL    HW152724   5.750   2.402   9.099 -2.3140 -1.4065 -0.6224
17382SOL    HW252725   5.789   2.346   8.964  1.1087 -0.0811 -0.2751
17383SOL     OW52726   5.786   2.433   1.153  0.2299 -0.2170  0.3667
17383SOL    HW152727   5.773   2.522   1.118  4.4477  0.6319  0.4005
17383SOL    HW252728   5.716   2.381   1.114 -0.9771  2.6363 -1.5994
17384SOL     OW52729   0.185   4.978   7.981  0.4525  0.3934 -0.5927
17384SOL    HW152730   0.267   4.946   8.020  1.1885 -0.0247 -2.3736
17384SOL    HW252731   0.146   4.900   7.941 -0.2701  0.8134 -0.7186
17385SOL     OW52732   3.981   1.621   0.073 -0.0454 -0.2649 -0.0164
17385SOL    HW152733   3.919   1.557   0.109 -0.1325 -0.9223 -1.2703
17385SOL    HW252734   3.938   1.654  -0.006  0.8063 -0.0453 -0.3966
17386SOL     OW52735   4.198   3.821   6.798 -0.3138 -0.1198  0.7742
17386SOL    HW152736   4.143   3.898   6.782  1.6723  0.9607 -1.5564
17386SOL    HW252737   4.266   3.852   6.858  1.9465  0.8701 -2.0525
17387SOL     OW52738   9.102   3.025   7.902  0.5280 -0.3093  0.0434
17387SOL    HW152739   9.073   2.963   7.969  2.6662  0.2661  1.6442
17387SOL    HW252740   9.149   2.972   7.838 -1.9173 -0.9287 -1.3285
17388SOL     OW52741   9.894   4.561   8.536  0.3102  0.7266  0.6867
17388SOL    HW152742   9.934   4.628   8.592  0.9649  1.2867 -0.4279
17388SOL    HW252743   9.925   4.478   8.573 -0.0677  1.0436  1.7486
17389SOL     OW52744   4.282   9.936   5.169 -0.1936  0.0308 -0.2105
17389SOL    HW152745   4.296  10.030   5.167  0.6244 -0.0745  0.2235
17389SOL    HW252746   4.203   9.925   5.221  0.1343  0.4394  0.3900
17390SOL     OW52747   1.072   0.054   6.431 -0.5150  0.6618 -0.0128
17390SOL    HW152748   1.135  -0.003   6.386 -1.4888  0.0737 -0.6887
17390SOL    HW252749   0.990   0.040   6.384 -1.5250  0.2451  1.7813
17391SOL     OW52750   9.957   4.704   8.754 -0.8475  0.0758 -0.1113
17391SOL    HW152751   9.874   4.750   8.751 -1.3946 -0.7573  1.3508
17391SOL    HW252752   9.991   4.721   8.842 -0.2039 -0.8201 -0.1668
17392SOL     OW52753   5.411   1.823   7.959  0.0138 -0.5430  0.1257
17392SOL    HW152754   5.437   1.766   7.886  2.1583 -1.1163  1.2739
17392SOL    HW252755   5.472   1.896   7.955  1.8917 -1.7952  2.7482
17393SOL     OW52756   3.883   2.643   2.028 -0.0015  0.6117 -0.3012
17393SOL    HW152757   3.799   2.624   1.985 -0.1504  2.5267 -0.9845
17393SOL    HW252758   3.879   2.737   2.045  0.8199  0.2379  2.3332
17394SOL     OW52759   4.392   1.028   5.797 -0.3721  0.6330 -0.0495
17394SOL    HW152760   4.297   1.016   5.786 -0.1967 -0.2888 -0.6709
17394SOL    HW252761   4.413   1.102   5.741 -0.3908 -0.5583 -1.7249
17395SOL     OW52762   5.014   0.323   5.184  0.4078 -0.5015 -0.3821
17395SOL    HW152763   5.050   0.398   5.231  2.7181 -1.0017 -1.1997
17395SOL    HW252764   4.977   0.360   5.104 -0.0449 -0.0739  0.0175
17396SOL     OW52765   8.507   6.316   0.321  0.0199 -0.0913  0.3886
17396SOL    HW152766   8.443   6.246   0.319  0.6331 -0.6616  0.3331
17396SOL    HW252767   8.461   6.390   0.360 -0.6832 -0.4722  0.2922
17397SOL     OW52768   2.438   4.909   6.969  0.7307 -0.2622  0.1501
17397SOL    HW152769   2.448   4.889   7.062 -0.4622  1.5891  0.7514
17397SOL    HW252770   2.344   4.898   6.952  1.2040 -2.4804 -1.3765
17398SOL     OW52771   8.711   5.032   8.084 -0.4902  0.1299 -0.4877
17398SOL    HW152772   8.712   5.100   8.017 -0.4996 -0.5820 -1.2282
17398SOL    HW252773   8.750   4.956   8.041  0.8632  0.0707  0.7663
17399SOL     OW52774   5.471   6.894   4.657  0.8343 -0.1380 -0.2126
17399SOL    HW152775   5.403   6.892   4.590  1.9154 -0.3104 -1.3539
17399SOL    HW252776   5.525   6.817   4.639  2.1758  0.7816 -0.2908
17400SOL     OW52777   9.153   9.731   1.712 -0.2570 -0.0106  0.2134
17400SOL    HW152778   9.220   9.730   1.643 -1.1083 -0.3065 -0.6238
17400SOL    HW252779   9.176   9.807   1.765  0.8549 -0.2102  0.0551
17401SOL     OW52780   0.264   9.827   9.551  0.0550  0.0764 -0.4074
17401SOL    HW152781   0.187   9.826   9.608  1.3143  1.1312  1.3915
17401SOL    HW252782   0.338   9.837   9.610  1.6529 -1.2880 -2.0562
17402SOL     OW52783   7.204   6.531   2.218  0.5947  0.2131 -0.4412
17402SOL    HW152784   7.112   6.522   2.241  0.8959 -0.3686  0.5911
17402SOL    HW252785   7.241   6.444   2.235  1.2839  0.3734 -1.0812
17403SOL     OW52786   2.826   0.525   1.734 -0.3036 -0.6263 -0.2570
17403SOL    HW152787   2.915   0.544   1.763 -0.4478  0.8201 -0.6700
17403SOL    HW252788   2.823   0.557   1.644 -0.8745 -1.8635 -0.7067
17404SOL     OW52789   7.069   5.216   7.402  0.0102 -0.1527 -0.1484
17404SOL    HW152790   7.159   5.185   7.413  0.8900  2.0034 -0.7016
17404SOL    HW252791   7.052   5.267   7.481  0.0943  1.2088 -0.9766
17405SOL     OW52792   5.602   1.595   3.681 -0.0994 -0.8669  0.2298
17405SOL    HW152793   5.588   1.681   3.721  0.7145 -0.2421 -0.7686
17405SOL    HW252794   5.690   1.570   3.709  0.0365 -0.9384 -0.2610
17406SOL     OW52795   1.094   0.588   1.535 -0.5919  0.8162  0.0492
17406SOL    HW152796   1.150   0.557   1.607  0.9091 -0.8100 -1.6753
17406SOL    HW252797   1.085   0.682   1.551  2.0508  1.0411  0.8724
17407SOL     OW52798   0.957   8.215   5.509  0.7961  0.1617  0.7464
17407SOL    HW152799   0.940   8.307   5.528  1.5297 -0.0749  2.8467
17407SOL    HW252800   0.871   8.173   5.510  0.3817  0.8935 -0.9382
17408SOL     OW52801   5.547   7.619   3.943  0.2174 -0.1767 -0.3864
17408SOL    HW152802   5.575   7.707   3.968 -0.8711  0.1537 -0.3184
17408SOL    HW252803   5.501   7.630   3.860 -3.3162 -0.0512  1.4069
17409SOL     OW52804   7.898   9.187   5.132  0.5775 -0.4625 -0.6405
17409SOL    HW152805   7.889   9.096   5.105 -2.9463 -0.7591  0.8851
17409SOL    HW252806   7.850   9.237   5.066 -1.0216 -0.2661  0.6020
17410SOL     OW52807   0.322   8.170   7.535  0.2387  0.0540 -0.3748
17410SOL    HW152808   0.354   8.127   7.614 -0.9834  1.3082  0.8552
17410SOL    HW252809   0.233   8.135   7.523 -0.0141  0.7207 -0.5008
17411SOL     OW52810   2.016   7.792   0.314  0.1439 -0.3986  0.1571
17411SOL    HW152811   1.983   7.702   0.323  0.2966 -0.3583  1.2088
17411SOL    HW252812   2.023   7.805   0.219 -0.3016 -1.3407 -0.0196
17412SOL     OW52813   7.355   9.330  10.004  0.1663 -0.1056 -0.0569
17412SOL    HW152814   7.374   9.287   9.920  1.2828 -1.5905  0.9200
17412SOL    HW252815   7.378   9.422   9.989  0.8563 -0.4488 -1.2279
17413SOL     OW52816   3.127   2.974   6.100 -0.8282 -0.0790 -0.6807
17413SOL    HW152817   3.077   2.965   6.181  2.1033  0.0944  1.3072
17413SOL    HW252818   3.103   2.897   6.049 -2.8734 -0.1197  0.2209
17414SOL     OW52819   6.578   6.370   8.645  0.0741  0.0819 -0.5744
17414SOL    HW152820   6.487   6.373   8.675  0.2217 -0.7867 -0.0035
17414SOL    HW252821   6.575   6.405   8.556 -0.8982 -0.3755 -0.7374
17415SOL     OW52822   0.220   5.419   2.326  0.0077 -0.5427  0.2289
17415SOL    HW152823   0.124   5.420   2.319  0.0598 -0.7933 -0.7350
17415SOL    HW252824   0.250   5.458   2.244  0.7338 -0.3254  0.5899
17416SOL     OW52825   0.951   0.324   4.874 -0.1308  0.0765 -0.0163
17416SOL    HW152826   0.982   0.367   4.795 -0.3300  1.6175  0.7087
17416SOL    HW252827   0.969   0.231   4.860  0.4033  0.3978 -1.5920
17417SOL     OW52828   9.622   0.182   7.067  0.3714 -0.4266  0.6248
17417SOL    HW152829   9.607   0.119   7.137 -1.1551  0.4390  1.1164
17417SOL    HW252830   9.546   0.240   7.069 -0.2181 -0.9086 -2.3542
17418SOL     OW52831   9.298   1.248   9.372 -0.4060  0.2385  0.1551
17418SOL    HW152832   9.285   1.258   9.466 -0.2531 -1.9861  0.4818
17418SOL    HW252833   9.219   1.204   9.340 -0.1974  0.4120 -0.6409
17419SOL     OW52834   5.505   4.331   6.001  0.4011 -0.3379 -0.0809
17419SOL    HW152835   5.492   4.238   6.019  1.7931 -0.3168  1.2406
17419SOL    HW252836   5.512   4.337   5.906 -0.0383 -1.5196 -0.2081
17420SOL     OW52837   4.172   6.832   3.681 -0.7702 -0.7272 -0.7465
17420SOL    HW152838   4.241   6.777   3.644  1.4841  0.7683  0.9196
17420SOL    HW252839   4.163   6.802   3.771  0.1591  1.1871  0.0525
17421SOL     OW52840   0.424   1.631   0.445 -0.5042 -0.1684 -0.7730
17421SOL    HW152841   0.393   1.701   0.387 -0.6179 -1.4957 -2.4229
17421SOL    HW252842   0.363   1.631   0.519  0.4540  2.4768  0.1073
17422SOL     OW52843   4.370   7.161   8.590 -0.2632  0.3418  0.2862
17422SOL    HW152844   4.424   7.181   8.513 -1.1557  1.3805 -0.0984
17422SOL    HW252845   4.406   7.215   8.660  1.6189 -1.8216  1.1271
17423SOL     OW52846   1.348   2.128   4.825 -0.0977 -0.4942 -0.5125
17423SOL    HW152847   1.268   2.096   4.783  0.6121  0.4925 -2.7153
17423SOL    HW252848   1.319   2.198   4.883 -0.9880 -1.2588 -0.0035
17424SOL     OW52849   9.860   7.400   0.902  0.6778  0.3089  0.2291
17424SOL    HW152850   9.820   7.466   0.959 -1.5605  0.1026 -0.9736
17424SOL    HW252851   9.921   7.449   0.847 -0.0642  1.2039  0.1752
17425SOL     OW52852   3.346   5.380   5.596 -0.0653 -0.9315 -0.3239
17425SOL    HW152853   3.424   5.325   5.597 -0.6240 -1.7340  0.0819
17425SOL    HW252854   3.374   5.461   5.553  1.3094 -0.7271  0.8652
17426SOL     OW52855   9.728   4.858   4.041  0.4877  0.2697  0.0709
17426SOL    HW152856   9.810   4.857   4.091  0.7195  1.1512 -0.2838
17426SOL    HW252857   9.729   4.775   3.993  0.1827 -0.6844  1.6354
17427SOL     OW52858   4.683   1.488   4.785  0.3049  1.0605  0.0580
17427SOL    HW152859   4.771   1.487   4.747 -0.5185  1.5746 -1.9947
17427SOL    HW252860   4.648   1.401   4.765  0.7536  0.3809  2.0144
17428SOL     OW52861   0.405   9.522   8.439  1.1014  0.1727  0.4138
17428SOL    HW152862   0.315   9.496   8.458  0.4040  0.4131 -2.2355
17428SOL    HW252863   0.422   9.592   8.502 -1.2065  1.3021 -0.0871
17429SOL     OW52864   0.080   0.074   6.718  0.2311  0.2206  0.2930
17429SOL    HW152865   0.126   0.017   6.656  0.7244  0.4247  0.4633
17429SOL    HW252866   0.124   0.059   6.801 -1.5083 -1.3290  1.0058
17430SOL     OW52867   5.426   2.955   0.101 -0.2356  0.5417  0.4590
17430SOL    HW152868   5.499   2.944   0.040 -0.6935  0.6251 -0.1041
17430SOL    HW252869   5.453   3.028   0.158 -0.6273  1.7835 -0.8812
17431SOL     OW52870   5.367   2.468   2.354 -1.0365 -0.0111 -0.2012
17431SOL    HW152871   5.419   2.464   2.433  1.0012 -0.2756 -1.4951
17431SOL    HW252872   5.316   2.387   2.354 -1.2328  0.0954  0.9052
17432SOL     OW52873   5.759   6.412   3.580  0.5189 -0.0199 -0.1665
17432SOL    HW152874   5.810   6.407   3.500 -1.9322 -0.8666 -1.7950
17432SOL    HW252875   5.699   6.485   3.566  1.1064  0.8663  1.6140
17433SOL     OW52876   4.696   8.229   3.801 -0.8906 -0.0175 -0.2323
17433SOL    HW152877   4.653   8.158   3.849 -1.1354  0.5210  0.3638
17433SOL    HW252878   4.644   8.307   3.823  0.6201  0.7364  0.8422
17434SOL     OW52879   7.414   9.624   1.734 -1.0977 -0.2749 -0.0238
17434SOL    HW152880   7.495   9.575   1.743 -0.7468  0.3604  0.4369
17434SOL    HW252881   7.350   9.575   1.786 -0.5547  0.1586  1.0961
17435SOL     OW52882   8.864   8.719   2.138  0.3397 -0.2097  0.3383
17435SOL    HW152883   8.861   8.722   2.234 -3.3578  3.2942  0.3798
17435SOL    HW252884   8.832   8.805   2.111  1.8320 -0.8110 -4.1393
17436SOL     OW52885   5.507   7.888   8.124  0.1499 -0.4103  0.0828
17436SOL    HW152886   5.536   7.863   8.036 -1.6912 -0.7440 -0.4889
17436SOL    HW252887   5.579   7.939   8.160  0.9261 -0.2027 -1.6613
17437SOL     OW52888   5.645   7.599   1.246  0.3249 -0.1309  0.2055
17437SOL    HW152889   5.640   7.694   1.246 -0.4020 -0.1621 -0.0491
17437SOL    HW252890   5.637   7.574   1.154 -0.0048 -0.4593  0.3179
17438SOL     OW52891   3.391   5.667   9.219  0.0117 -0.1381  0.1095
17438SOL    HW152892   3.432   5.716   9.291 -1.4239  0.9348  0.2332
17438SOL    HW252893   3.427   5.579   9.227 -0.8042 -0.3207  2.7452
17439SOL     OW52894   6.245   9.420   4.359  0.1604 -0.6251 -0.4720
17439SOL    HW152895   6.311   9.467   4.309  0.4584 -0.2681  0.2434
17439SOL    HW252896   6.164   9.469   4.344  0.5795  0.4755  0.7233
17440SOL     OW52897   4.170   0.820   6.671 -0.4886  0.1743 -0.4464
17440SOL    HW152898   4.264   0.826   6.653 -0.0965 -2.4630  0.3330
17440SOL    HW252899   4.153   0.892   6.731  1.2472  0.1751  0.1184
17441SOL     OW52900   7.443   0.468   9.617  0.2773  0.5166  0.0222
17441SOL    HW152901   7.483   0.407   9.679 -1.5729 -1.5910 -0.7535
17441SOL    HW252902   7.482   0.445   9.532 -0.0347  0.7987 -0.1998
17442SOL     OW52903   0.997   4.456   6.333  0.1194  0.1010 -0.6307
17442SOL    HW152904   0.935   4.387   6.355 -0.2086  0.5343 -0.1795
17442SOL    HW252905   0.951   4.510   6.269  0.1760  0.2047 -0.5851
17443SOL     OW52906   4.735   0.591   8.842 -0.1114 -0.2493 -0.1214
17443SOL    HW152907   4.651   0.621   8.876  1.0951  3.2643  0.1331
17443SOL    HW252908   4.752   0.509   8.888 -1.1829  1.4109  3.5310
17444SOL     OW52909   8.123   8.445   6.725 -0.1443 -0.1590 -0.1459
17444SOL    HW152910   8.184   8.372   6.716  1.6613  0.9612  1.9037
17444SOL    HW252911   8.098   8.468   6.636  2.2369 -0.8619 -1.0588
17445SOL     OW52912   2.593   7.462   5.802 -0.0426  0.1360 -0.4721
17445SOL    HW152913   2.573   7.373   5.830 -0.0850  0.2747 -0.0588
17445SOL    HW252914   2.529   7.517   5.846  1.0922  0.5623  0.7300
17446SOL     OW52915   7.443   5.658   6.041 -0.3174  0.6608 -0.5548
17446SOL    HW152916   7.473   5.569   6.060  1.6478  1.2875 -0.5726
17446SOL    HW252917   7.369   5.671   6.102 -1.4852 -1.3846 -1.4250
17447SOL     OW52918   1.668   8.344   3.625  0.0590  0.1866 -0.1123
17447SOL    HW152919   1.644   8.357   3.533 -1.3013 -1.8160 -0.1027
17447SOL    HW252920   1.701   8.254   3.629 -2.8167 -0.9150  1.8214
17448SOL     OW52921   5.939   0.580   2.084 -0.5500 -0.2097  0.1647
17448SOL    HW152922   6.014   0.593   2.141  0.8602  2.6002 -2.0710
17448SOL    HW252923   5.961   0.503   2.031  1.8662  1.6949 -1.8422
17449SOL     OW52924   7.459   8.482   9.157  0.0314  0.0186  0.2580
17449SOL    HW152925   7.434   8.434   9.236  1.8659  0.7454  1.3471
17449SOL    HW252926   7.471   8.414   9.090 -0.4998 -0.7090  0.8923
17450SOL     OW52927   2.704   4.011   5.883 -0.3801  0.5306  0.1483
17450SOL    HW152928   2.670   4.039   5.799  0.5891  0.5625 -0.2461
17450SOL    HW252929   2.712   3.916   5.876  0.4247  0.6074 -0.0833
17451SOL     OW52930   3.865   6.515   5.728 -0.1052 -0.0280 -0.1059
17451SOL    HW152931   3.854   6.546   5.638  1.6025  1.0405 -0.0011
17451SOL    HW252932   3.929   6.445   5.722  0.2510  0.2605  0.3185
17452SOL     OW52933   2.001   6.079   9.577  0.6537 -0.0788 -0.5946
17452SOL    HW152934   2.081   6.051   9.622 -1.4301 -3.0672  1.5948
17452SOL    HW252935   1.977   6.162   9.620  1.8088  0.1272 -0.3178
17453SOL     OW52936   6.399   6.503   4.481  0.2339 -0.0491 -0.2846
17453SOL    HW152937   6.487   6.509   4.517  0.4851 -5.0424  0.7064
17453SOL    HW252938   6.402   6.429   4.420 -3.1445 -0.2413 -0.4436
17454SOL     OW52939   0.358   1.394   0.166 -0.5428  0.1813  0.3635
17454SOL    HW152940   0.306   1.474   0.163 -0.2646  0.3596  0.2655
17454SOL    HW252941   0.326   1.341   0.093 -2.1567 -0.6959  1.6491
17455SOL     OW52942   6.691   0.167   0.930  0.0179 -0.5271 -0.0792
17455SOL    HW152943   6.712   0.256   0.903 -2.3108 -0.0752 -0.6587
17455SOL    HW252944   6.759   0.144   0.993 -0.7350  2.7229  2.2106
17456SOL     OW52945   6.176   3.466   7.791 -0.6792  0.2814  0.1012
17456SOL    HW152946   6.185   3.509   7.707 -1.6634 -0.2976 -0.3190
17456SOL    HW252947   6.256   3.413   7.800 -0.1301  1.0788 -0.0168
17457SOL     OW52948   7.601   7.228   8.943 -0.6407 -0.0696 -0.2884
17457SOL    HW152949   7.522   7.281   8.950 -0.1585  0.6804 -0.5027
17457SOL    HW252950   7.672   7.288   8.963 -0.1707 -0.9270  0.6917
17458SOL     OW52951   9.921   0.446   0.412 -0.0121  0.2212  0.2150
17458SOL    HW152952   9.988   0.458   0.345 -1.3592  0.2801 -1.1512
17458SOL    HW252953   9.945   0.363   0.454 -1.4955 -2.1786 -3.2652
17459SOL     OW52954   8.919   9.954   7.792  0.1555  0.1327 -0.2460
17459SOL    HW152955   8.959   9.923   7.873 -4.1321  0.4410  2.2786
17459SOL    HW252956   8.905  10.048   7.807  0.2285  0.4335 -1.8674
17460SOL     OW52957   2.518   5.867   1.825 -0.4298 -0.3415 -0.0562
17460SOL    HW152958   2.576   5.889   1.897  0.6800 -2.7576 -0.0945
17460SOL    HW252959   2.435   5.910   1.846  0.5392  0.8665  1.4653
17461SOL     OW52960   3.782   8.921   8.383  0.1192  0.0380 -0.5204
17461SOL    HW152961   3.774   8.949   8.474  0.9867 -1.3720  0.0299
17461SOL    HW252962   3.833   8.840   8.388 -2.3682 -1.7591 -1.9467
17462SOL     OW52963   6.344   0.182   5.552  0.4666  0.4571  0.4127
17462SOL    HW152964   6.352   0.266   5.598  0.7619  0.1443  0.9400
17462SOL    HW252965   6.356   0.204   5.460 -0.2689  1.1153  0.4631
17463SOL     OW52966   1.794   0.265   7.684  0.0439 -0.2624  0.4966
17463SOL    HW152967   1.699   0.250   7.692 -0.0573  0.1064  0.0737
17463SOL    HW252968   1.810   0.260   7.589  0.3529  0.2343  0.5245
17464SOL     OW52969   9.660   7.252   5.093  0.4533  0.1418  0.0026
17464SOL    HW152970   9.696   7.189   5.031 -1.4014 -1.5559  0.5341
17464SOL    HW252971   9.718   7.246   5.169  1.4951  0.6636 -0.7240
17465SOL     OW52972   7.831   5.586   8.141  0.5646  0.1188 -0.4198
17465SOL    HW152973   7.908   5.632   8.174 -1.8468  3.6452  1.0137
17465SOL    HW252974   7.786   5.652   8.087 -2.3604 -1.0803  0.3744
17466SOL     OW52975   6.579   8.454   5.886 -0.3258 -0.3361 -0.3167
17466SOL    HW152976   6.496   8.476   5.843 -0.4304 -2.4416 -1.3224
17466SOL    HW252977   6.565   8.367   5.922  0.5747  0.4164  1.9949
17467SOL     OW52978   3.194   2.024   5.946 -0.0640 -0.1771  0.1065
17467SOL    HW152979   3.286   2.005   5.963 -0.2110 -1.5365 -0.4790
17467SOL    HW252980   3.157   1.940   5.919 -1.7966  0.0455  1.6192
17468SOL     OW52981   7.808   8.313   7.731  0.0607 -0.8428  0.2791
17468SOL    HW152982   7.837   8.367   7.804  0.7554  0.3802 -0.8450
17468SOL    HW252983   7.885   8.261   7.708 -0.1475 -1.2028  0.3798
17469SOL     OW52984   7.924   2.883   1.134 -0.0697 -0.1136  0.6577
17469SOL    HW152985   7.978   2.883   1.213 -0.6985 -0.5485  1.1003
17469SOL    HW252986   7.959   2.812   1.081  0.9934  0.8160  0.0819
17470SOL     OW52987   8.650   5.166   8.351 -0.6256  0.1531  0.0236
17470SOL    HW152988   8.588   5.098   8.377 -0.2110 -0.2984 -0.1439
17470SOL    HW252989   8.689   5.132   8.270 -0.7176  0.7832 -0.2915
17471SOL     OW52990   0.721   6.922   6.477 -0.2384 -0.3224 -0.0640
17471SOL    HW152991   0.666   6.847   6.453 -0.1485 -0.2977 -0.3510
17471SOL    HW252992   0.718   6.979   6.401 -1.2750  0.5474  0.5997
17472SOL     OW52993   4.760   0.909   2.975  0.2820 -0.3207  0.3227
17472SOL    HW152994   4.690   0.889   2.913  0.7603 -0.7774 -0.0775
17472SOL    HW252995   4.824   0.839   2.963  0.7318 -0.0035  0.8041
17473SOL     OW52996   8.984   8.254   5.081  0.1210 -0.4285 -0.0698
17473SOL    HW152997   8.913   8.207   5.037 -0.6311  0.2876  0.3649
17473SOL    HW252998   9.001   8.329   5.024 -0.2759  0.0373  0.4166
17474SOL     OW52999   1.107   7.055   9.081 -0.1794  0.0271 -0.0004
17474SOL    HW153000   1.040   7.117   9.110  0.8614  1.3343 -0.2627
17474SOL    HW253001   1.074   6.970   9.107 -2.7423  0.4186 -1.6176
17475SOL     OW53002   3.225   8.669   5.551 -0.5408 -0.5854 -0.1940
17475SOL    HW153003   3.179   8.610   5.611  0.6758 -1.4766 -0.1162
17475SOL    HW253004   3.174   8.750   5.555 -1.1118 -0.9777  1.2062
17476SOL     OW53005   7.045   4.021   9.867 -0.1240  0.2950  0.4733
17476SOL    HW153006   7.056   4.080   9.792 -1.4031 -1.6394 -1.3311
17476SOL    HW253007   7.023   4.079   9.940  2.3429  2.3637 -0.2818
17477SOL     OW53008   1.486   3.732   1.024  0.2339  0.4296 -1.2607
17477SOL    HW153009   1.548   3.663   1.048  0.0010  0.8098  0.6753
17477SOL    HW253010   1.542   3.809   1.008  0.3446  1.0592  1.5123
17478SOL     OW53011   1.582   3.739   6.303 -0.0943 -0.2840  0.4249
17478SOL    HW153012   1.638   3.693   6.240  0.0343  0.4424  0.0031
17478SOL    HW253013   1.568   3.825   6.264 -2.0378 -0.6637  0.2042
17479SOL     OW53014   3.681   1.165   8.428 -0.2852 -0.7478  0.1878
17479SOL    HW153015   3.595   1.136   8.459  0.3733 -2.4165  0.5649
17479SOL    HW253016   3.726   1.195   8.507  0.1389 -1.7047  0.3319
17480SOL     OW53017   9.775   0.042   0.891  0.1377 -0.1063  0.1151
17480SOL    HW153018   9.782   0.128   0.933 -0.2529 -0.5184  1.0426
17480SOL    HW253019   9.858  -0.002   0.910  1.0694  0.6596 -1.8085
17481SOL     OW53020   5.424   9.708   8.468 -0.2294  0.1396 -0.0020
17481SOL    HW153021   5.367   9.635   8.496  0.5491 -0.7006 -0.5573
17481SOL    HW253022   5.364   9.770   8.428 -0.8323 -0.5008 -0.1163
17482SOL     OW53023   9.062   7.385   0.944  0.2708 -0.0044  0.1012
17482SOL    HW153024   9.052   7.477   0.968  0.9408  0.2906 -0.7189
17482SOL    HW253025   8.991   7.341   0.991 -0.2083  0.9616  0.3215
17483SOL     OW53026   2.118   3.038   4.181 -0.5492 -0.7691  0.7180
17483SOL    HW153027   2.212   3.044   4.198 -0.3682  0.5077 -0.5243
17483SOL    HW253028   2.109   2.963   4.122 -0.1930 -0.4424  0.2367
17484SOL     OW53029   9.733   9.039   7.322 -0.1588 -0.3030 -0.4749
17484SOL    HW153030   9.783   9.119   7.306 -0.2957 -0.0954  0.1171
17484SOL    HW253031   9.720   9.001   7.235 -0.1146  0.3325 -0.7637
17485SOL     OW53032   0.267   2.014   9.333  0.3753 -0.5759 -0.2366
17485SOL    HW153033   0.186   2.035   9.286  0.3361 -2.0908 -0.9050
17485SOL    HW253034   0.245   1.940   9.389  0.6032  0.7891  1.7377
17486SOL     OW53035   8.289   6.333   2.955 -0.1434  0.0126 -1.0222
17486SOL    HW153036   8.292   6.297   2.866  0.0211 -0.8334 -0.6819
17486SOL    HW253037   8.293   6.427   2.942 -1.6685 -0.0080 -2.0027
17487SOL     OW53038   8.235   0.952   0.901 -0.4490 -0.3253  0.2880
17487SOL    HW153039   8.257   1.034   0.945 -2.1689 -0.1707  0.9598
17487SOL    HW253040   8.258   0.884   0.965  2.6271 -0.5581 -0.9386
17488SOL     OW53041   9.265   2.878   9.863 -0.0598 -0.1744 -0.1191
17488SOL    HW153042   9.284   2.785   9.851  0.4345  0.0240 -0.9593
17488SOL    HW253043   9.341   2.912   9.909 -0.2902 -0.1974  0.2887
17489SOL     OW53044   9.598   3.025   8.097 -0.0609 -0.2504 -1.0144
17489SOL    HW153045   9.590   3.008   8.191  0.5697 -1.1775 -1.1145
17489SOL    HW253046   9.534   3.093   8.079  0.8069  1.0023  0.3740
17490SOL     OW53047   3.986   0.745   0.094  0.4254  0.4949 -0.0728
17490SOL    HW153048   3.942   0.664   0.068  1.7205 -0.0275 -0.7420
17490SOL    HW253049   3.921   0.814   0.079 -0.3028 -0.2977 -0.6217
17491SOL     OW53050   8.932   6.248   5.779  0.0378  0.1559 -0.3053
17491SOL    HW153051   8.882   6.330   5.788  0.1350  0.0818  1.0657
17491SOL    HW253052   8.964   6.250   5.689 -1.7781  0.5819 -0.9858
17492SOL     OW53053   2.853   4.263   5.914  0.4221 -0.4586  0.1336
17492SOL    HW153054   2.845   4.170   5.892  0.4239 -0.2901 -0.6152
17492SOL    HW253055   2.771   4.302   5.885  0.6110 -0.1474  0.0051
17493SOL     OW53056   1.862   0.028   6.474 -0.3200  0.1013 -0.5612
17493SOL    HW153057   1.885   0.091   6.543  1.7283 -1.0799 -0.0676
17493SOL    HW253058   1.945   0.011   6.429 -0.6850 -2.4934 -0.4032
17494SOL     OW53059   6.822   1.982   3.409  0.3715 -0.3243 -0.2062
17494SOL    HW153060   6.801   1.889   3.400  1.2866 -0.7187  1.3124
17494SOL    HW253061   6.753   2.027   3.360  0.8764 -1.8283 -2.4026
17495SOL     OW53062   7.078   7.194   5.754  0.1001 -0.4357 -0.9694
17495SOL    HW153063   7.080   7.100   5.770 -1.3983 -0.3937 -0.4231
17495SOL    HW253064   7.142   7.230   5.816  1.7978 -1.1909 -2.2148
17496SOL     OW53065   0.592   0.076   1.111 -0.1975 -0.0356  0.2189
17496SOL    HW153066   0.517   0.108   1.161  0.1598 -0.0120  0.7469
17496SOL    HW253067   0.553   0.025   1.039 -0.7150 -0.0410  0.4999
17497SOL     OW53068   3.937   3.740   4.925  0.2879  0.4634  0.0475
17497SOL    HW153069   3.968   3.677   4.860 -0.9112  0.4746 -0.5674
17497SOL    HW253070   3.858   3.778   4.885  0.1767  1.2957  1.0312
17498SOL     OW53071   9.523   8.772   7.908 -0.0749  0.5683  0.0141
17498SOL    HW153072   9.571   8.691   7.891  0.2193  0.6083  0.6474
17498SOL    HW253073   9.517   8.777   8.004 -2.2583  0.0043 -0.0188
17499SOL     OW53074   5.680   1.820   9.746 -0.0644 -0.2627 -0.9126
17499SOL    HW153075   5.723   1.867   9.818 -1.4703  0.3910 -0.4551
17499SOL    HW253076   5.588   1.848   9.751 -0.5584 -1.6221 -1.8282
17500SOL     OW53077   2.057   4.650   8.186  0.6383 -0.0487 -0.0664
17500SOL    HW153078   1.962   4.643   8.195  0.3048  1.9773 -1.4189
17500SOL    HW253079   2.088   4.559   8.190 -1.2223 -0.6752  1.3916
17501SOL     OW53080   9.734   6.001   8.788 -0.1683  0.4597 -0.2751
17501SOL    HW153081   9.705   6.000   8.880  0.8241  1.3004  0.0676
17501SOL    HW253082   9.783   6.083   8.780  3.5517 -1.5619 -0.3507
17502SOL     OW53083   8.690   9.309   3.950 -0.0099 -0.1054 -0.8323
17502SOL    HW153084   8.652   9.309   4.038 -0.5599  1.0759 -1.0513
17502SOL    HW253085   8.774   9.264   3.960  0.1491  0.4393  0.3983
17503SOL     OW53086   4.838   3.246   5.404  0.6102  0.0811  0.1412
17503SOL    HW153087   4.885   3.329   5.405 -1.1301  1.1306  2.3225
17503SOL    HW253088   4.756   3.265   5.360 -0.2867 -0.1132  1.6449
17504SOL     OW53089   2.428   3.404   3.219  0.6190  0.0128 -0.3471
17504SOL    HW153090   2.435   3.344   3.144 -0.4865 -2.2772  1.2446
17504SOL    HW253091   2.349   3.456   3.201  1.3613  0.7647 -1.5629
17505SOL     OW53092   1.214   6.911   8.877  0.2502  0.4645 -0.1964
17505SOL    HW153093   1.153   6.842   8.902  1.0834 -0.3164 -0.2867
17505SOL    HW253094   1.177   6.991   8.915 -0.5543 -0.0747  0.1748
17506SOL     OW53095   0.290   0.647   3.331  0.5678 -0.2380 -0.0758
17506SOL    HW153096   0.214   0.677   3.381 -0.1564  0.6553 -1.6339
17506SOL    HW253097   0.350   0.722   3.332  1.4698 -0.9439  1.1604
17507SOL     OW53098   6.413   3.562   6.819  0.0760 -0.2680 -0.0601
17507SOL    HW153099   6.471   3.538   6.747  0.4218 -0.5624  0.3092
17507SOL    HW253100   6.455   3.638   6.860 -1.8680  2.1803 -2.2637
17508SOL     OW53101   9.273   0.897   7.465 -0.8099 -0.3438  0.0124
17508SOL    HW153102   9.263   0.987   7.497 -2.4440 -0.4249 -0.1757
17508SOL    HW253103   9.304   0.907   7.375  0.7971 -0.0386  0.5755
17509SOL     OW53104   1.272   6.965   4.786  0.1218  0.0446 -0.1755
17509SOL    HW153105   1.339   6.904   4.757  0.8149 -0.4208  2.2120
17509SOL    HW253106   1.319   7.048   4.799  0.1368 -0.1184  0.8971
17510SOL     OW53107   7.331   9.792   1.126 -0.2412 -0.5453  0.1582
17510SOL    HW153108   7.420   9.799   1.160 -0.0916 -2.4424  0.2560
17510SOL    HW253109   7.296   9.881   1.133  0.9703 -0.1445  1.9667
17511SOL     OW53110   7.812   0.884   7.453  0.1260 -0.2098 -0.2938
17511SOL    HW153111   7.886   0.857   7.398  1.9611 -0.7134  2.2594
17511SOL    HW253112   7.751   0.811   7.450  1.1774 -1.1109 -0.0240
17512SOL     OW53113   5.957   2.707   4.592  0.3239 -0.3929  0.4939
17512SOL    HW153114   5.980   2.782   4.537  0.1492  0.8030  2.0009
17512SOL    HW253115   6.038   2.685   4.638  0.1719 -0.6263  0.6536
17513SOL     OW53116   0.180   1.955   3.208 -0.5387 -0.3700  0.0835
17513SOL    HW153117   0.212   1.985   3.293  0.4984 -1.2997  0.0509
17513SOL    HW253118   0.232   2.004   3.144  0.6115 -1.5983  0.0274
17514SOL     OW53119   6.388   2.577   7.852 -0.0386  0.3599  0.2331
17514SOL    HW153120   6.419   2.533   7.772 -0.2919 -1.4580  1.0750
17514SOL    HW253121   6.293   2.564   7.850 -0.0450  0.3258  0.8170
17515SOL     OW53122   3.265   8.902   9.640  0.1852  0.3144 -0.1578
17515SOL    HW153123   3.204   8.864   9.703 -0.2948  0.4113 -0.5535
17515SOL    HW253124   3.260   8.996   9.656 -0.2545  0.3759 -0.6053
17516SOL     OW53125   8.575   7.824   5.857  0.0424  0.1153  0.0238
17516SOL    HW153126   8.596   7.892   5.795 -1.8540  1.4380  0.7315
17516SOL    HW253127   8.596   7.742   5.812  0.5957  1.0968 -1.5607
17517SOL     OW53128   4.361   8.541   7.194  0.4483  0.3513 -0.6925
17517SOL    HW153129   4.421   8.528   7.120  0.9609 -0.2272 -0.1787
17517SOL    HW253130   4.367   8.461   7.245 -0.6117  0.3703 -0.5131
17518SOL     OW53131   4.345   7.928   2.329  0.6761 -0.0013 -0.1840
17518SOL    HW153132   4.368   7.955   2.417 -1.5510  1.3745  0.0497
17518SOL    HW253133   4.302   7.843   2.340 -0.1139  0.4296  0.1675
17519SOL     OW53134   5.879   7.114   9.648  0.2350  0.2396  0.2502
17519SOL    HW153135   5.967   7.077   9.654  0.0687 -0.1922  0.0808
17519SOL    HW253136   5.869   7.165   9.728  0.4605 -0.1034  0.5029
17520SOL     OW53137   5.310   9.634   6.708  0.6446 -0.5281 -0.6914
17520SOL    HW153138   5.349   9.647   6.622  0.4852 -1.1196 -0.8583
17520SOL    HW253139   5.242   9.701   6.715  0.9442 -0.2060 -0.8500
17521SOL     OW53140   1.336   8.498   0.175  0.1301 -0.0247 -0.1567
17521SOL    HW153141   1.315   8.440   0.101 -0.5018 -1.0375  0.7790
17521SOL    HW253142   1.255   8.500   0.226  0.2707  1.3992  0.0419
17522SOL     OW53143   1.171   5.307   6.441  0.2493 -0.0264  0.3941
17522SOL    HW153144   1.197   5.353   6.361  2.7543 -1.9191 -0.0007
17522SOL    HW253145   1.080   5.333   6.454 -0.1449  0.7203 -2.8071
17523SOL     OW53146   7.518   2.719   1.763  0.1425  0.1143 -0.4243
17523SOL    HW153147   7.562   2.660   1.702  1.2636 -0.0591  0.5195
17523SOL    HW253148   7.517   2.672   1.846  1.0021  1.3634  0.3250
17524SOL     OW53149   1.759   7.760   7.137 -0.4641  0.5371 -0.3567
17524SOL    HW153150   1.755   7.794   7.226  1.0130 -0.5102  0.1553
17524SOL    HW253151   1.845   7.718   7.131 -1.5704 -1.7830 -1.3975
17525SOL     OW53152   5.206   7.137   3.281  0.3280 -0.0536  0.5710
17525SOL    HW153153   5.210   7.207   3.216  0.2461  1.1990  1.8635
17525SOL    HW253154   5.134   7.082   3.252  0.2400  0.5129 -0.3520
17526SOL     OW53155   1.077   2.707   4.078  0.0523 -0.4262 -0.1334
17526SOL    HW153156   1.008   2.754   4.124 -0.3077 -0.2367 -0.8623
17526SOL    HW253157   1.075   2.742   3.989  2.5489  1.2348  0.3402
17527SOL     OW53158   4.091   8.773   8.218  0.1695 -0.8720  0.3933
17527SOL    HW153159   4.180   8.741   8.205  1.6643  3.3473 -1.5317
17527SOL    HW253160   4.096   8.832   8.293 -0.7887 -0.1098 -0.1065
17528SOL     OW53161   8.823   8.504   5.812  0.5466 -0.5360  0.1586
17528SOL    HW153162   8.854   8.459   5.890 -3.0734 -1.3873  1.2966
17528SOL    HW253163   8.789   8.435   5.756  2.2620  0.1559 -1.8886
17529SOL     OW53164   4.251   7.789   7.617 -0.2805 -0.3328 -0.2919
17529SOL    HW153165   4.196   7.868   7.614  1.5547  1.0235  0.0609
17529SOL    HW253166   4.189   7.718   7.633 -1.9007  1.1530  0.4147
17530SOL     OW53167   5.034   4.352   7.557 -0.7274 -0.8653 -0.5351
17530SOL    HW153168   5.029   4.402   7.475 -1.5407 -0.1205 -0.0442
17530SOL    HW253169   4.943   4.335   7.580 -0.5663  0.1570  0.9509
17531SOL     OW53170   3.101   8.248   6.946  0.0725 -0.1613  0.1678
17531SOL    HW153171   3.143   8.186   7.006 -0.0779 -0.0095  0.4340
17531SOL    HW253172   3.012   8.214   6.935  0.0951 -0.1797  0.0448
17532SOL     OW53173   8.716   0.400   4.246  0.5051  0.9591 -0.1211
17532SOL    HW153174   8.648   0.347   4.203  1.9416 -0.2370 -1.0124
17532SOL    HW253175   8.700   0.387   4.340 -0.4178  0.6188 -0.3112
17533SOL     OW53176   1.565   5.032   5.377 -0.1861  0.0775  0.8097
17533SOL    HW153177   1.544   4.982   5.456  0.8189 -0.1507  0.9463
17533SOL    HW253178   1.647   5.077   5.398 -0.5858  1.0534  0.3532
17534SOL     OW53179   2.077   8.399   4.442 -0.2021  0.0635  0.5933
17534SOL    HW153180   2.129   8.448   4.379 -0.8184 -0.8480 -0.6884
17534SOL    HW253181   2.021   8.343   4.388 -2.5116  0.9848  1.8782
17535SOL     OW53182   3.468   4.449   0.842  0.4843 -0.5947  0.0563
17535SOL    HW153183   3.504   4.528   0.801 -0.6729 -1.3965 -2.7563
17535SOL    HW253184   3.533   4.382   0.824  0.1856 -0.8556 -0.0550
17536SOL     OW53185   3.458   7.700   3.142  0.1238 -0.0298  0.4055
17536SOL    HW153186   3.551   7.720   3.143 -0.1695  1.6229 -0.6567
17536SOL    HW253187   3.421   7.760   3.077 -1.2378 -2.7056 -1.5065
17537SOL     OW53188   4.974   7.485   5.894  0.0162 -0.9578 -0.2038
17537SOL    HW153189   5.048   7.513   5.840  0.0823  0.5244  0.5979
17537SOL    HW253190   4.908   7.554   5.880 -0.5840 -1.4152  0.3459
17538SOL     OW53191   2.971   1.838   1.555 -0.1631 -0.1997 -0.1402
17538SOL    HW153192   3.027   1.886   1.494  1.0658 -1.1800  0.1770
17538SOL    HW253193   2.887   1.830   1.509 -0.2072  1.6486 -0.4630
17539SOL     OW53194   9.078   7.076   9.375  0.2778  0.1399  0.0476
17539SOL    HW153195   9.090   7.023   9.454  0.0664 -1.6172 -1.0554
17539SOL    HW253196   9.165   7.083   9.337  0.3362  0.7660  0.2879
17540SOL     OW53197   8.105   3.532   9.421 -0.4248  0.0542 -0.1073
17540SOL    HW153198   8.171   3.601   9.422 -0.9083  0.5202  0.7590
17540SOL    HW253199   8.144   3.462   9.368  0.0025  1.0390 -1.1440
17541SOL     OW53200   7.302   2.835   1.508  0.0877 -0.1498  0.1925
17541SOL    HW153201   7.269   2.753   1.544  1.0868 -0.2513  0.9031
17541SOL    HW253202   7.395   2.819   1.492 -0.0358  0.3313 -1.1850
17542SOL     OW53203   6.176   7.575   8.429 -0.2379  0.5189 -0.6088
17542SOL    HW153204   6.247   7.637   8.412 -0.3737  1.2012  1.1452
17542SOL    HW253205   6.220   7.497   8.463 -0.3423  1.2901  1.4071
17543SOL     OW53206   3.332   7.112   7.930  0.4720 -0.6227  0.0477
17543SOL    HW153207   3.238   7.099   7.942  0.2839  1.7014  1.6270
17543SOL    HW253208   3.349   7.078   7.842 -1.3487 -3.2663  0.5867
17544SOL     OW53209   8.356   4.128   7.362 -0.1983 -0.3368  0.1198
17544SOL    HW153210   8.316   4.179   7.432 -0.8532  1.3749 -1.4232
17544SOL    HW253211   8.431   4.182   7.334 -1.2764  0.1825 -1.9710
17545SOL     OW53212   2.198   0.016   2.955  0.0375  0.3017 -0.4918
17545SOL    HW153213   2.227   0.070   2.882 -1.4332  2.2532  0.2819
17545SOL    HW253214   2.102   0.018   2.950 -0.1408  1.0299  1.7961
17546SOL     OW53215   5.582   7.127   3.146 -0.1898  0.9353  0.7949
17546SOL    HW153216   5.614   7.160   3.062 -2.8212 -1.0933 -1.1881
17546SOL    HW253217   5.642   7.057   3.169 -1.2605 -0.7562 -1.2511
17547SOL     OW53218   2.635   6.860   3.903  0.4894  0.0411 -0.2074
17547SOL    HW153219   2.685   6.913   3.840  0.5973 -0.7807 -0.8350
17547SOL    HW253220   2.594   6.792   3.849  1.3104 -1.2286  0.7270
17548SOL     OW53221   8.102   1.262   3.910  0.2113 -0.1509 -0.2214
17548SOL    HW153222   8.176   1.203   3.895  0.1784 -0.7915  1.8117
17548SOL    HW253223   8.140   1.340   3.949 -0.1304 -0.2704  0.3555
17549SOL     OW53224   4.832   3.162   3.820  0.1927  0.3390 -0.8648
17549SOL    HW153225   4.908   3.137   3.872  0.3388 -1.4123 -1.8386
17549SOL    HW253226   4.833   3.101   3.746 -2.6809 -0.3240 -0.4455
17550SOL     OW53227   9.874   8.574   4.638 -0.5145 -0.5004  0.1196
17550SOL    HW153228   9.860   8.480   4.651  0.1191 -0.4740  1.0535
17550SOL    HW253229   9.939   8.598   4.703 -1.5972  0.8463  0.7543
17551SOL     OW53230   1.477   4.001   8.563  0.4144 -0.3067  0.0067
17551SOL    HW153231   1.449   3.968   8.649  0.4128  1.2905  0.6465
17551SOL    HW253232   1.545   3.940   8.534  1.0551 -0.3622  1.5612
17552SOL     OW53233   1.755   5.237   3.757 -0.6600  0.3319  0.0911
17552SOL    HW153234   1.819   5.167   3.769 -0.2188  0.5352 -1.0023
17552SOL    HW253235   1.696   5.206   3.689 -1.1987  0.5182  0.4659
17553SOL     OW53236   7.407   0.806   3.861  0.4370  0.2976 -0.0903
17553SOL    HW153237   7.486   0.771   3.820  0.6261  1.0557 -0.3936
17553SOL    HW253238   7.432   0.893   3.893 -0.0224  0.1743  0.6338
17554SOL     OW53239   2.838   3.570   8.678  0.5025  0.7847  0.1203
17554SOL    HW153240   2.777   3.497   8.686  0.7916  0.4656 -0.5321
17554SOL    HW253241   2.826   3.620   8.759  0.9593 -0.4788  0.9953
17555SOL     OW53242   9.438   2.248   2.811 -0.0078 -0.6433  0.0833
17555SOL    HW153243   9.508   2.314   2.814  0.5289 -1.2230  0.3791
17555SOL    HW253244   9.462   2.191   2.738  0.5667 -1.6485  1.0293
17556SOL     OW53245   5.269   0.070   9.293  0.7572  0.0882  0.0797
17556SOL    HW153246   5.329   0.003   9.260  0.8396  0.0040  0.4036
17556SOL    HW253247   5.197   0.070   9.230  0.7625 -0.2957  0.0706
17557SOL     OW53248   0.613   3.521   3.561  0.2121 -0.2835 -0.2920
17557SOL    HW153249   0.539   3.537   3.619  0.4787 -0.3425  0.0682
17557SOL    HW253250   0.598   3.579   3.486 -0.0854 -0.1395 -0.1211
17558SOL     OW53251   2.334   6.152   6.823  0.8719  0.3384  0.0123
17558SOL    HW153252   2.359   6.072   6.776  1.1493  0.4466 -0.0258
17558SOL    HW253253   2.353   6.131   6.915 -0.9087 -0.3550  0.2585
17559SOL     OW53254   1.167   7.810   5.505  0.0768 -0.4185  0.7355
17559SOL    HW153255   1.144   7.859   5.426  0.0307  1.1087  1.6584
17559SOL    HW253256   1.086   7.768   5.531 -0.1652 -0.0779  0.5440
17560SOL     OW53257   3.321   3.380   9.475  0.4958 -0.0827 -0.6053
17560SOL    HW153258   3.373   3.385   9.555  0.8990  0.0185 -0.8725
17560SOL    HW253259   3.385   3.370   9.404  0.2402  1.2455 -1.0624
17561SOL     OW53260   0.929   0.716   2.973 -0.1819  0.3932  0.0547
17561SOL    HW153261   0.856   0.660   2.947  0.3880 -0.4181  0.1622
17561SOL    HW253262   0.973   0.668   3.044  0.4162  0.8970  0.0383
17562SOL     OW53263   9.258   2.165   5.114  0.7325  0.1934 -0.2989
17562SOL    HW153264   9.226   2.080   5.084 -1.6254  0.4114  1.3140
17562SOL    HW253265   9.257   2.220   5.036 -0.7429 -0.4639 -0.7674
17563SOL     OW53266   0.593   5.130   1.300  0.1501 -0.5366 -0.1361
17563SOL    HW153267   0.597   5.208   1.245  0.0358  0.1543  0.8134
17563SOL    HW253268   0.622   5.160   1.387 -0.0558 -1.5072  0.2793
17564SOL     OW53269   6.914   8.615   7.166  0.1590 -0.0082  0.2087
17564SOL    HW153270   6.875   8.563   7.237 -0.5584  0.4304  0.1383
17564SOL    HW253271   6.888   8.569   7.087  2.2890 -1.4159  0.2561
17565SOL     OW53272   0.197   1.852   1.880  0.0380 -0.8447  0.1025
17565SOL    HW153273   0.123   1.857   1.820  1.4516  0.3805 -1.6248
17565SOL    HW253274   0.274   1.864   1.825  1.5618 -2.1268  1.8273
17566SOL     OW53275   0.889   4.303   9.739 -0.6155  0.4560 -0.5093
17566SOL    HW153276   0.795   4.296   9.727 -0.8614 -0.3661  1.4795
17566SOL    HW253277   0.922   4.214   9.725 -0.6338 -0.0280  1.9542
17567SOL     OW53278   7.593   5.182   5.583 -0.4716 -0.8654  0.1610
17567SOL    HW153279   7.657   5.253   5.581 -0.9048 -0.2665  3.2176
17567SOL    HW253280   7.646   5.102   5.591 -0.0432 -0.5869  0.1270
17568SOL     OW53281   7.454   8.030   1.996  0.1197 -0.3479 -0.1961
17568SOL    HW153282   7.420   8.110   1.956  1.8471 -0.6308 -2.3678
17568SOL    HW253283   7.506   7.988   1.928  1.0053 -2.2731  1.5385
17569SOL     OW53284   1.333   7.544   0.650  0.0986  0.6410 -0.1943
17569SOL    HW153285   1.261   7.501   0.603 -0.0905  1.5570 -0.7842
17569SOL    HW253286   1.352   7.621   0.596 -0.1863  1.7784  1.2874
17570SOL     OW53287   9.715   5.555   8.244  0.5039  0.4396  0.9667
17570SOL    HW153288   9.672   5.553   8.329  0.7152  0.8222  1.0817
17570SOL    HW253289   9.808   5.569   8.263  0.6218  0.0676  0.6968
17571SOL     OW53290   3.271   0.543   2.165 -0.1264  0.4589 -0.4756
17571SOL    HW153291   3.341   0.603   2.139 -0.0834  0.9030  0.6005
17571SOL    HW253292   3.261   0.484   2.091  2.2403 -0.3992 -0.1829
17572SOL     OW53293   3.126   3.452   5.649  0.2165  0.5467  0.6837
17572SOL    HW153294   3.106   3.455   5.555  0.0745  0.5480  0.7133
17572SOL    HW253295   3.221   3.459   5.654  0.2892 -0.2165  0.4983
17573SOL     OW53296   1.229   1.661   8.116 -0.1885 -0.2771 -0.1963
17573SOL    HW153297   1.166   1.730   8.096  0.4346  0.5995  0.7797
17573SOL    HW253298   1.179   1.596   8.165 -0.7674 -0.5159 -1.0831
17574SOL     OW53299   1.859   5.046   5.508 -0.2557 -0.0961 -0.0136
17574SOL    HW153300   1.922   5.004   5.567 -0.9669 -0.7238  0.3067
17574SOL    HW253301   1.898   5.131   5.488  1.0528 -0.7575 -0.4060
17575SOL     OW53302   9.077   3.968   9.696 -0.2212 -0.1299  0.2496
17575SOL    HW153303   9.132   4.024   9.750 -1.3712 -0.3409  1.7248
17575SOL    HW253304   9.022   4.029   9.647  0.4820  0.0583 -0.3154
17576SOL     OW53305   6.372   3.719   2.135  0.3972  0.7924  0.8018
17576SOL    HW153306   6.283   3.708   2.170  1.1026  1.0907  2.8000
17576SOL    HW253307   6.425   3.657   2.185  1.4964  1.3693  0.3835
17577SOL     OW53308   0.830   2.253   4.604  0.1058 -0.0486 -0.1288
17577SOL    HW153309   0.797   2.267   4.693 -2.0355  1.5623 -1.0917
17577SOL    HW253310   0.925   2.247   4.614 -0.1318 -0.7549  2.3370
17578SOL     OW53311   0.178   5.537   4.863 -0.1147  0.0548 -0.9039
17578SOL    HW153312   0.099   5.588   4.880 -0.5371 -0.7115 -0.5291
17578SOL    HW253313   0.249   5.590   4.898 -0.5018  0.5649 -0.8807
17579SOL     OW53314   2.533   1.238   5.877 -0.4257 -0.2550 -0.4731
17579SOL    HW153315   2.489   1.221   5.960 -1.6146 -3.2659 -1.6068
17579SOL    HW253316   2.623   1.257   5.902 -0.4573 -2.2717  1.5001
17580SOL     OW53317   0.371   1.995   6.564  0.2048  0.0779 -0.7277
17580SOL    HW153318   0.388   2.076   6.612 -0.1499 -0.2787  0.0165
17580SOL    HW253319   0.275   1.991   6.558  0.1613 -0.9507  0.4110
17581SOL     OW53320   8.236   6.202   3.227  0.0209  0.4908 -0.2045
17581SOL    HW153321   8.281   6.120   3.206  1.2715  1.1525 -0.2178
17581SOL    HW253322   8.210   6.192   3.318  2.0274  0.8493  0.4625
17582SOL     OW53323   1.061   3.793   4.712  0.3283  0.1461 -0.2424
17582SOL    HW153324   0.966   3.790   4.703  0.1242  0.8698  1.4329
17582SOL    HW253325   1.081   3.885   4.730  1.3407 -0.0175 -0.4571
17583SOL     OW53326   5.959   0.333   6.878 -0.4469 -0.0072  0.6843
17583SOL    HW153327   5.864   0.344   6.885 -0.7142 -2.2762  1.1970
17583SOL    HW253328   5.976   0.244   6.909  1.7337 -0.0338 -0.3812
17584SOL     OW53329   3.482   0.028   3.180  0.1552 -0.3030  0.0340
17584SOL    HW153330   3.571   0.022   3.145  0.4744 -0.8126  0.8861
17584SOL    HW253331   3.432  -0.036   3.130  0.6663 -1.2165  0.6698
17585SOL     OW53332   2.943   0.106   8.066  0.0120  0.2528  0.0975
17585SOL    HW153333   2.932   0.028   8.013  0.2738 -0.2406  0.7563
17585SOL    HW253334   2.977   0.074   8.149  0.9285  1.1384  0.0913
17586SOL     OW53335   5.015   5.302   9.834 -0.1417  0.6591  0.3098
17586SOL    HW153336   4.977   5.389   9.819 -0.1840  0.4200 -1.1763
17586SOL    HW253337   4.941   5.242   9.828  0.0552  0.4295  0.1480
17587SOL     OW53338   9.869   1.937   5.005  0.0315 -0.5759  0.6970
17587SOL    HW153339   9.918   1.864   5.042  0.7026 -0.4360  0.0982
17587SOL    HW253340   9.809   1.963   5.075  2.4391  0.7902  2.4098
17588SOL     OW53341   6.163   3.234   0.159  0.6449  0.2460  0.4348
17588SOL    HW153342   6.075   3.259   0.189 -0.1283 -0.9315 -0.6987
17588SOL    HW253343   6.186   3.302   0.095 -0.0633 -0.1777 -0.2929
17589SOL     OW53344   4.244   5.005   9.957  0.5422  0.4746  0.4622
17589SOL    HW153345   4.249   4.909   9.949  1.4446  0.3695  1.9374
17589SOL    HW253346   4.222   5.035   9.869 -0.2163 -1.1195  0.0625
17590SOL     OW53347   9.937   2.164   4.572 -0.2769  0.1538 -0.4288
17590SOL    HW153348   9.902   2.250   4.550 -0.0227  0.4329  0.2502
17590SOL    HW253349   9.869   2.124   4.627 -0.0365  0.2369 -0.0734
17591SOL     OW53350   3.589   2.460   2.638  0.0377 -0.1801  0.3950
17591SOL    HW153351   3.535   2.538   2.650  0.0464 -0.0706 -0.2568
17591SOL    HW253352   3.543   2.408   2.572  0.5903 -0.2040  0.0190
17592SOL     OW53353   4.650   2.390   3.120  0.0204  0.0562  0.0944
17592SOL    HW153354   4.685   2.363   3.205 -0.8523 -0.0857  0.4211
17592SOL    HW253355   4.628   2.483   3.133  1.4232  0.5038 -0.5014
17593SOL     OW53356   3.061   4.702   6.886 -0.7890 -0.4168 -0.1638
17593SOL    HW153357   3.071   4.760   6.961 -3.2974 -0.3968  0.2315
17593SOL    HW253358   3.052   4.761   6.811 -0.3655 -0.3785 -0.1844
17594SOL     OW53359   6.199   6.102   8.632  0.0621 -0.6172 -0.0964
17594SOL    HW153360   6.212   6.186   8.675  0.0841  0.0637 -1.3805
17594SOL    HW253361   6.222   6.037   8.698  2.3037  0.4086  0.2044
17595SOL     OW53362   5.983   0.701   0.297 -0.3403 -0.4001  0.3086
17595SOL    HW153363   5.892   0.730   0.300 -0.6688 -1.4142  0.6334
17595SOL    HW253364   5.977   0.605   0.304  0.7619 -0.4549  0.5961
17596SOL     OW53365   8.093   5.286   4.373 -0.0808 -0.3509 -0.1331
17596SOL    HW153366   8.124   5.224   4.438 -1.6898 -0.5115  0.5324
17596SOL    HW253367   8.064   5.362   4.423  0.3661  0.2926 -0.8187
17597SOL     OW53368   7.829   0.554   3.509  0.3369  0.1987 -0.1411
17597SOL    HW153369   7.816   0.482   3.447 -0.1604  0.6153 -0.5351
17597SOL    HW253370   7.924   0.563   3.517  0.4168 -0.7460  0.2147
17598SOL     OW53371   5.638   6.973   7.984  0.4254  0.3546  0.1056
17598SOL    HW153372   5.643   7.067   8.002 -0.3554  0.0304  2.3250
17598SOL    HW253373   5.720   6.952   7.940 -0.1261  2.3608 -2.0344
17599SOL     OW53374   6.646   9.500   3.616  0.2647  0.1355  0.6589
17599SOL    HW153375   6.596   9.514   3.697 -0.5097 -2.0449  0.6378
17599SOL    HW253376   6.594   9.435   3.568  2.6844 -1.5747  0.2167
17600SOL     OW53377   4.690   4.682   5.025 -0.5667 -0.6366  0.3324
17600SOL    HW153378   4.713   4.688   4.932 -0.0716 -1.4977  0.3930
17600SOL    HW253379   4.745   4.749   5.067  0.0685 -1.0334  0.1528
17601SOL     OW53380   0.499   0.401   2.027 -0.4246 -0.2387 -0.3191
17601SOL    HW153381   0.410   0.426   2.002 -0.4315  0.8943  0.7370
17601SOL    HW253382   0.487   0.333   2.093 -0.4511 -1.2236 -1.3018
17602SOL     OW53383   0.465   0.001   5.270  0.2411 -0.1289  0.7453
17602SOL    HW153384   0.528   0.050   5.217  0.3948 -0.2997  0.7705
17602SOL    HW253385   0.516  -0.035   5.342  0.4959 -1.8295 -0.2409
17603SOL     OW53386   7.705   3.036   8.390  0.4526  0.4143  0.2210
17603SOL    HW153387   7.700   3.132   8.392  0.6089  0.4205  0.3719
17603SOL    HW253388   7.670   3.009   8.474 -3.7614  0.1203 -1.3930
17604SOL     OW53389   9.230   3.693   4.577 -0.0188 -0.1331 -0.6604
17604SOL    HW153390   9.159   3.701   4.640  1.3658  0.5764  0.8599
17604SOL    HW253391   9.268   3.606   4.594  1.4792  0.7480  0.7756
17605SOL     OW53392   8.720   9.856   5.583  0.6634  0.1881 -0.4138
17605SOL    HW153393   8.750   9.943   5.556 -0.0083  0.4492 -0.3192
17605SOL    HW253394   8.770   9.795   5.529  0.8066  0.6470 -0.7973
17606SOL     OW53395   3.454   5.380   2.903  0.5817  0.2499  0.4226
17606SOL    HW153396   3.505   5.414   2.829  0.4665  0.2340  0.3357
17606SOL    HW253397   3.421   5.457   2.947 -0.5896  0.2398 -0.4083
17607SOL     OW53398   2.750   7.705   2.617 -0.5097 -0.0325 -0.0022
17607SOL    HW153399   2.813   7.678   2.550 -0.2514  1.0784 -0.2322
17607SOL    HW253400   2.697   7.771   2.573 -2.1853 -1.2939  0.0300
17608SOL     OW53401   4.646   5.774   4.740  0.0454  0.2668 -0.2673
17608SOL    HW153402   4.579   5.765   4.807 -0.1633  1.2780 -0.3161
17608SOL    HW253403   4.599   5.766   4.657 -0.6714  4.0499 -0.4111
17609SOL     OW53404   0.829   3.374   1.336 -0.7897  0.3628  0.0456
17609SOL    HW153405   0.866   3.333   1.258 -2.0954 -1.1851  0.1832
17609SOL    HW253406   0.817   3.466   1.312 -1.5868 -0.1711 -1.7377
17610SOL     OW53407   0.149   0.890   8.727  0.0934  0.5314  0.4341
17610SOL    HW153408   0.122   0.981   8.741 -2.4734  0.2360 -1.8231
17610SOL    HW253409   0.197   0.893   8.644 -0.8596 -0.2678 -0.1646
17611SOL     OW53410   2.946   8.001   8.336  0.1452 -0.1566 -0.7525
17611SOL    HW153411   2.993   7.940   8.393  0.4821  1.7086  1.0976
17611SOL    HW253412   2.865   8.021   8.383 -0.2805  0.2894 -1.6514
17612SOL     OW53413   7.254   0.511   9.022 -0.0212 -0.7359  0.1110
17612SOL    HW153414   7.297   0.532   8.940  0.9154 -1.7032  0.3227
17612SOL    HW253415   7.214   0.593   9.051  0.1580 -0.2480 -0.9917
17613SOL     OW53416   5.120   4.630   3.382 -0.2110 -0.1971 -0.4134
17613SOL    HW153417   5.111   4.709   3.328 -1.6591 -1.2367 -1.8069
17613SOL    HW253418   5.055   4.641   3.451  0.0891  0.1448 -0.1832
17614SOL     OW53419   9.428   9.320   9.155  0.4830  0.2190  0.5005
17614SOL    HW153420   9.349   9.323   9.102  0.7564  0.6388  0.1147
17614SOL    HW253421   9.406   9.260   9.227  0.6741 -1.7649 -1.0085
17615SOL     OW53422   4.364   4.542   7.572  0.4652  0.3649 -0.1832
17615SOL    HW153423   4.358   4.492   7.654 -0.7951 -0.4208 -0.7265
17615SOL    HW253424   4.455   4.570   7.568  0.5826  0.3205  1.4295
17616SOL     OW53425   6.814   6.153   9.409  0.5934 -0.1054 -0.3026
17616SOL    HW153426   6.892   6.127   9.458  0.3366  0.1311  0.2428
17616SOL    HW253427   6.843   6.226   9.354  0.6191  0.3789  0.3451
17617SOL     OW53428   3.720   2.299   3.309 -0.2617  0.2910 -0.3630
17617SOL    HW153429   3.651   2.280   3.246  0.6262  1.3117 -1.7018
17617SOL    HW253430   3.681   2.278   3.394 -1.7871 -0.3059 -1.1636
17618SOL     OW53431   9.163   2.655   3.887  0.0847  0.7268  0.3189
17618SOL    HW153432   9.131   2.663   3.977 -1.6439  0.8999 -0.2667
17618SOL    HW253433   9.159   2.744   3.853 -1.0769  0.3839 -0.4810
17619SOL     OW53434   5.658   4.629   8.774 -0.4209  0.0656  0.2605
17619SOL    HW153435   5.751   4.643   8.790 -0.7342  0.8583  1.5259
17619SOL    HW253436   5.620   4.617   8.861 -1.4224 -0.8624 -0.2764
17620SOL     OW53437   2.599   6.739   1.625 -0.6283  0.2957  0.0191
17620SOL    HW153438   2.657   6.663   1.629 -1.8862 -0.6563  1.1869
17620SOL    HW253439   2.563   6.746   1.714  0.2787  2.9351  0.2560
17621SOL     OW53440   3.575   9.132   0.352 -0.2100 -0.3122  0.6024
17621SOL    HW153441   3.659   9.178   0.359 -0.0335 -0.4991 -0.1832
17621SOL    HW253442   3.524   9.164   0.427  0.4834 -0.0423  0.9705
17622SOL     OW53443   5.106   5.601   8.941  0.3477 -0.1113 -0.0240
17622SOL    HW153444   5.193   5.637   8.923  1.2158 -1.6187  0.9215
17622SOL    HW253445   5.069   5.584   8.855  1.3504 -0.2338 -0.4530
17623SOL     OW53446   0.257   8.233   2.217 -0.1905 -0.1372 -0.7475
17623SOL    HW153447   0.307   8.153   2.202 -0.9606 -0.6719 -0.5329
17623SOL    HW253448   0.282   8.291   2.144  2.0045  0.2798  0.2472
17624SOL     OW53449   4.980   9.114   1.542  0.0213 -0.0460  0.4839
17624SOL    HW153450   4.978   9.020   1.562 -0.7974  0.2183  1.7493
17624SOL    HW253451   4.934   9.121   1.458  1.5434 -0.9344 -0.4855
17625SOL     OW53452   7.273   8.452   6.088 -0.2697 -0.5401 -0.2589
17625SOL    HW153453   7.294   8.534   6.133  0.2071 -0.1133 -1.2424
17625SOL    HW253454   7.352   8.399   6.097  0.0392 -0.2273 -1.0893
17626SOL     OW53455   6.227   5.721   9.387  0.6821 -0.0409  0.0043
17626SOL    HW153456   6.136   5.719   9.416  0.3199  0.5302 -1.0383
17626SOL    HW253457   6.233   5.797   9.329  2.0183  0.3686  0.6429
17627SOL     OW53458   0.680   1.607   2.478  0.4463 -0.3378  0.6196
17627SOL    HW153459   0.688   1.690   2.430  0.5219 -2.1093 -2.6911
17627SOL    HW253460   0.649   1.633   2.565 -1.4898  3.0123 -0.8656
17628SOL     OW53461   0.138   3.993   1.667  0.3740 -0.0503 -0.7155
17628SOL    HW153462   0.198   3.967   1.598  0.4544 -1.3482 -0.1797
17628SOL    HW253463   0.073   3.923   1.671  0.8719 -0.4654  1.1059
17629SOL     OW53464   9.177   7.945   2.491 -0.5167  0.3755 -0.3438
17629SOL    HW153465   9.137   7.859   2.485 -1.5099  0.7604  0.3920
17629SOL    HW253466   9.258   7.938   2.441 -1.6087 -0.3749 -2.0891
17630SOL     OW53467   6.317   7.125   3.570  0.1653 -0.3091  0.6386
17630SOL    HW153468   6.365   7.103   3.491 -0.4955 -2.2762  0.7314
17630SOL    HW253469   6.270   7.206   3.548  0.0413 -0.7824 -0.9659
17631SOL     OW53470   9.286   0.088   8.718  0.0643 -0.0120 -0.0583
17631SOL    HW153471   9.376   0.085   8.750  0.0251  1.2235  0.2446
17631SOL    HW253472   9.251   0.171   8.753 -1.1776 -0.4519 -0.1898
17632SOL     OW53473   3.273   0.462   4.693 -0.3985 -0.6948 -0.4282
17632SOL    HW153474   3.360   0.502   4.701 -0.3472 -1.1566  1.9828
17632SOL    HW253475   3.277   0.412   4.611  1.2189  0.1604 -0.9164
17633SOL     OW53476   3.746   2.472   6.016 -0.5005  0.6192 -0.3624
17633SOL    HW153477   3.733   2.542   5.952 -1.7471  1.0586  0.3301
17633SOL    HW253478   3.657   2.440   6.034 -0.1631  0.4284  1.0553
17634SOL     OW53479   5.901   9.717   6.413 -0.6687  0.7038  0.0881
17634SOL    HW153480   5.976   9.777   6.412 -0.6598  0.7047 -1.5705
17634SOL    HW253481   5.882   9.705   6.506  1.3705  0.7213  0.5673
17635SOL     OW53482   4.912   2.856   2.682 -0.3880  0.5576  0.4677
17635SOL    HW153483   4.848   2.830   2.616 -0.8169 -0.7656  1.3620
17635SOL    HW253484   4.993   2.869   2.633 -1.0118  0.9063 -0.4952
17636SOL     OW53485   9.751   2.725   3.046 -0.0050 -0.1743  0.4230
17636SOL    HW153486   9.707   2.647   3.078 -0.2513 -0.2408 -0.0669
17636SOL    HW253487   9.843   2.712   3.070  0.0414 -0.8504 -0.0864
17637SOL     OW53488   6.634   8.192   3.684 -0.1919  0.1043 -0.3497
17637SOL    HW153489   6.604   8.283   3.677  1.0596  0.6930  1.2679
17637SOL    HW253490   6.555   8.143   3.709 -0.5229  1.0750  0.6117
17638SOL     OW53491   9.671   5.495   7.279  0.0278 -0.4557 -0.0679
17638SOL    HW153492   9.766   5.504   7.267 -0.1533 -0.5174 -1.7808
17638SOL    HW253493   9.637   5.581   7.256 -0.4843 -1.0456 -1.6505
17639SOL     OW53494   2.786   9.244   2.826  0.0557  0.1592  0.2190
17639SOL    HW153495   2.872   9.280   2.805 -0.3209  0.0103 -1.7945
17639SOL    HW253496   2.776   9.170   2.766 -2.2579  1.3857 -1.0413
17640SOL     OW53497   1.519   8.065   8.592  0.7443 -0.1358 -0.5385
17640SOL    HW153498   1.439   8.026   8.557  0.0259  2.1848 -1.7512
17640SOL    HW253499   1.575   7.991   8.612 -1.7104 -1.8659  0.4372
17641SOL     OW53500   5.743   3.711   2.748  0.1080 -0.1010  0.1626
17641SOL    HW153501   5.795   3.640   2.786  1.0819  0.6185  0.2210
17641SOL    HW253502   5.742   3.779   2.816  2.3634  1.4468 -1.2018
17642SOL     OW53503   7.973   9.394   3.902  0.5836  0.1565 -0.3378
17642SOL    HW153504   7.954   9.483   3.931  1.6571  0.5891 -0.9111
17642SOL    HW253505   8.061   9.376   3.935  0.7353 -0.3536 -0.9974
17643SOL     OW53506   3.518   5.705   0.656 -0.2942 -0.0738  0.0153
17643SOL    HW153507   3.586   5.639   0.640 -0.9021 -0.3868 -1.4443
17643SOL    HW253508   3.566   5.779   0.694  1.0920  0.1457 -1.9925
17644SOL     OW53509   4.864   7.986   2.106 -0.3370 -0.5334 -0.2574
17644SOL    HW153510   4.923   7.915   2.130  1.1405  0.7352  0.0270
17644SOL    HW253511   4.789   7.977   2.165  0.3242 -1.2080  0.4912
17645SOL     OW53512   0.207   6.716   2.508  0.3372  0.2038 -0.0936
17645SOL    HW153513   0.137   6.706   2.443 -0.2226 -1.0794  0.6776
17645SOL    HW253514   0.288   6.720   2.456 -0.1507 -0.2247 -0.8952
17646SOL     OW53515   0.877   8.982   0.338 -0.3452 -0.1539  0.4917
17646SOL    HW153516   0.967   9.016   0.337 -0.8082  1.1120 -0.2726
17646SOL    HW253517   0.823   9.058   0.359 -1.4183 -0.3541 -1.2933
17647SOL     OW53518   3.478   8.849   3.040  0.5972 -0.1150  0.5596
17647SOL    HW153519   3.437   8.767   3.070 -1.2446  0.7647  0.5688
17647SOL    HW253520   3.491   8.899   3.121 -1.6264  1.0290  0.2996
17648SOL     OW53521   0.256   4.034   3.150  0.3604 -0.0086 -0.4459
17648SOL    HW153522   0.210   3.956   3.121  0.6397 -0.4500  0.2737
17648SOL    HW253523   0.229   4.045   3.241  2.8156 -1.1774  0.5223
17649SOL     OW53524   0.386   3.405   6.783  0.2394 -0.1325  0.2398
17649SOL    HW153525   0.313   3.435   6.838 -0.1043 -1.4345  0.5117
17649SOL    HW253526   0.361   3.428   6.694 -1.1314 -1.7334  0.1772
17650SOL     OW53527   0.773   4.150   7.286  0.0680  0.6928 -0.1998
17650SOL    HW153528   0.809   4.239   7.276  0.2975  0.5350 -0.8510
17650SOL    HW253529   0.792   4.108   7.203  0.8539 -0.2914  0.4628
17651SOL     OW53530   5.753   4.472   9.355 -0.1181 -0.3095 -0.4430
17651SOL    HW153531   5.783   4.430   9.435 -2.6067 -0.1268  0.6631
17651SOL    HW253532   5.825   4.530   9.330  0.9375 -0.7953  1.3287
17652SOL     OW53533   9.715   5.755   3.420 -0.2002 -0.2371 -0.5247
17652SOL    HW153534   9.649   5.763   3.489  2.6953  0.1472  2.4958
17652SOL    HW253535   9.736   5.661   3.418  0.5537 -0.0981  0.0747
17653SOL     OW53536   6.840   3.862   8.283 -0.1575 -0.0127  0.6802
17653SOL    HW153537   6.912   3.864   8.346  0.5547 -1.0490 -0.0618
17653SOL    HW253538   6.768   3.822   8.330  0.5700 -1.3877  0.6580
17654SOL     OW53539   9.506   9.640   9.957  0.0510 -0.5935 -0.1830
17654SOL    HW153540   9.436   9.618  10.019  0.7490 -0.9336  0.4927
17654SOL    HW253541   9.476   9.602   9.874 -1.9104  1.6895 -0.6323
17655SOL     OW53542   0.783   4.789   4.906  0.3801 -0.2166 -0.3663
17655SOL    HW153543   0.818   4.862   4.854  0.5834 -0.5895 -0.7611
17655SOL    HW253544   0.819   4.710   4.864 -0.4293 -0.5770 -0.4006
17656SOL     OW53545   4.677   0.357   4.431 -0.1830 -0.0243  0.9169
17656SOL    HW153546   4.695   0.263   4.432  3.1301  0.5039  1.9550
17656SOL    HW253547   4.663   0.379   4.523 -0.1003  0.6415  0.7683
17657SOL     OW53548   9.089   8.911   3.963 -0.1691 -0.4362 -0.4570
17657SOL    HW153549   9.158   8.891   3.901  0.3615  0.9749 -0.3569
17657SOL    HW253550   9.024   8.959   3.912 -0.4569 -0.5983 -0.2503
17658SOL     OW53551   9.592   6.116   3.650  0.4304 -0.4727 -0.5961
17658SOL    HW153552   9.507   6.084   3.619 -1.3265  0.8465  2.4070
17658SOL    HW253553   9.597   6.205   3.615 -1.5805  1.0397  2.4992
17659SOL     OW53554   1.202   9.586   5.816  0.0881  0.4998  0.2683
17659SOL    HW153555   1.225   9.637   5.894 -0.1438 -0.3652  0.9260
17659SOL    HW253556   1.175   9.500   5.851  0.9881 -0.2560 -0.8372
17660SOL     OW53557   6.381   6.089   1.941 -0.1727 -0.2971 -0.0243
17660SOL    HW153558   6.314   6.042   1.890  1.2951  0.1206 -2.4778
17660SOL    HW253559   6.335   6.117   2.020 -2.9245 -0.0034 -1.5987
17661SOL     OW53560   0.836   3.363   0.730 -0.0959 -0.5957 -0.2506
17661SOL    HW153561   0.903   3.404   0.784 -1.4196  0.8040  0.4052
17661SOL    HW253562   0.806   3.287   0.781 -1.0670  0.4903  0.8546
17662SOL     OW53563   0.219   4.325   5.668 -0.4430 -0.1396  0.1265
17662SOL    HW153564   0.267   4.380   5.730 -1.4920  2.2522 -1.0201
17662SOL    HW253565   0.287   4.285   5.614  0.4406 -1.6604  2.2553
17663SOL     OW53566   2.995   0.837   8.807 -0.0676 -0.2645  0.6074
17663SOL    HW153567   2.957   0.751   8.791 -1.5556  0.6103 -0.8529
17663SOL    HW253568   3.003   0.876   8.720  2.1593  0.4813  1.0607
17664SOL     OW53569   7.014   9.540   5.828 -0.0030  0.1845  0.2335
17664SOL    HW153570   7.033   9.502   5.914  0.9893  0.6389  0.2304
17664SOL    HW253571   7.004   9.634   5.845 -0.4950  0.1861 -0.0500
17665SOL     OW53572   1.272   7.990   2.800  0.1668 -0.6134  0.2160
17665SOL    HW153573   1.207   8.060   2.791 -1.2262 -1.8033  0.6683
17665SOL    HW253574   1.287   7.960   2.710  0.0934 -0.3430  0.1123
17666SOL     OW53575   2.805   0.833   7.574  0.7139  0.1747  0.0490
17666SOL    HW153576   2.839   0.900   7.634 -1.9831  1.1384  0.6316
17666SOL    HW253577   2.865   0.759   7.583  1.4823  1.0167  2.4636
17667SOL     OW53578   1.246   3.723   7.936 -0.2505 -0.5341 -0.1626
17667SOL    HW153579   1.239   3.629   7.952  1.2463 -0.7796 -0.7307
17667SOL    HW253580   1.250   3.731   7.841  1.0844 -0.0555 -0.0956
17668SOL     OW53581   2.588   7.249   9.450  0.4525 -0.0943 -0.0022
17668SOL    HW153582   2.557   7.213   9.367  2.4982  0.0068 -0.8735
17668SOL    HW253583   2.586   7.175   9.511  0.0464 -0.4557 -0.4449
17669SOL     OW53584   0.340   1.485   6.933 -0.3497 -0.2175 -0.2536
17669SOL    HW153585   0.327   1.498   7.027 -0.1694  0.0126 -0.2601
17669SOL    HW253586   0.328   1.572   6.895 -1.8445 -0.5426 -0.6153
17670SOL     OW53587   8.592   1.056   0.702  0.1114 -0.0849 -0.0605
17670SOL    HW153588   8.564   1.147   0.715 -0.8353 -0.5926  1.9892
17670SOL    HW253589   8.680   1.053   0.738  0.1848  0.0427 -0.2288
17671SOL     OW53590   1.956   0.634   6.896 -0.3542 -1.3598  0.0209
17671SOL    HW153591   1.883   0.608   6.952 -1.4106 -0.8328 -1.0719
17671SOL    HW253592   1.937   0.724   6.871  1.8151 -0.4172  1.4710
17672SOL     OW53593   2.850   4.341   0.704  0.3222  0.6798  0.1395
17672SOL    HW153594   2.859   4.406   0.635 -0.3151  3.0004  2.0903
17672SOL    HW253595   2.928   4.287   0.698  0.9092  1.6624 -1.5291
17673SOL     OW53596   4.839   6.355   2.281  0.1697 -0.3015 -0.5432
17673SOL    HW153597   4.806   6.282   2.228  1.7373 -0.5164 -1.3002
17673SOL    HW253598   4.852   6.426   2.219 -0.7120  0.4198  0.0795
17674SOL     OW53599   0.369   5.935   0.584 -0.3921  0.3480  0.0275
17674SOL    HW153600   0.311   6.002   0.547  0.0205  1.0348  0.5956
17674SOL    HW253601   0.317   5.856   0.585  0.2375 -0.3955 -4.2589
17675SOL     OW53602   6.066   5.273   2.554  0.3888 -0.3495 -0.1057
17675SOL    HW153603   6.054   5.236   2.641  1.4775  1.1974  0.7372
17675SOL    HW253604   5.980   5.309   2.531 -0.3198 -2.0706 -0.3756
17676SOL     OW53605   8.448   8.072   2.782  0.2643  0.6669  0.7454
17676SOL    HW153606   8.531   8.119   2.788  0.7485 -0.1707  0.5961
17676SOL    HW253607   8.456   8.000   2.843 -0.2695  0.4405  0.5593
17677SOL     OW53608   1.905   4.640   5.575  0.4757 -0.3652  0.9441
17677SOL    HW153609   1.843   4.711   5.562 -1.5097 -1.8922  1.6832
17677SOL    HW253610   1.932   4.615   5.487  0.3024  0.4971  0.6315
17678SOL     OW53611   2.380   7.555   1.431  0.1823  0.0309  0.1091
17678SOL    HW153612   2.342   7.643   1.425 -1.6692 -0.6230  1.5948
17678SOL    HW253613   2.406   7.535   1.341 -0.6176  1.5554 -0.5036
17679SOL     OW53614   4.280   8.384   7.722  0.7780  0.1223 -0.3823
17679SOL    HW153615   4.213   8.381   7.654  1.1019 -0.0520 -0.6988
17679SOL    HW253616   4.233   8.365   7.803  0.5998 -1.0387 -0.7261
17680SOL     OW53617   0.348   7.646   2.705 -0.0369 -0.4973 -0.0291
17680SOL    HW153618   0.277   7.607   2.655  0.4249 -0.4621 -0.7265
17680SOL    HW253619   0.315   7.651   2.795  0.0290 -2.9200  0.1909
17681SOL     OW53620   2.903   6.678   3.186  0.0177  0.4353 -0.5492
17681SOL    HW153621   2.952   6.599   3.209 -0.2583  0.4131 -0.0278
17681SOL    HW253622   2.893   6.673   3.091 -4.0855 -2.6463 -0.2346
17682SOL     OW53623   2.406   3.973   6.311  0.3743 -0.8450 -0.3326
17682SOL    HW153624   2.470   3.997   6.244 -0.7238 -1.4893 -1.6604
17682SOL    HW253625   2.345   4.047   6.313  0.1616 -1.0206 -0.3523
17683SOL     OW53626   7.123   1.271   3.296  0.0339 -0.1261 -0.3235
17683SOL    HW153627   7.092   1.195   3.247  0.2612 -0.1275 -0.4642
17683SOL    HW253628   7.094   1.346   3.245 -1.9989 -0.0381  0.8426
17684SOL     OW53629   4.325   4.653   6.511 -0.0744 -0.1773  0.0709
17684SOL    HW153630   4.400   4.709   6.493 -1.4236  1.2038 -1.7372
17684SOL    HW253631   4.291   4.685   6.595 -0.3083  1.2247 -0.5145
17685SOL     OW53632   4.225   3.899   8.097 -0.6993  0.2112 -0.1134
17685SOL    HW153633   4.320   3.911   8.100 -0.7360  0.4083  2.7271
17685SOL    HW253634   4.190   3.981   8.132 -1.9254 -0.0180 -0.7463
17686SOL     OW53635   4.245   0.592   0.363  0.6895  0.1716  0.5232
17686SOL    HW153636   4.269   0.539   0.287  2.3740  1.1912  0.2928
17686SOL    HW253637   4.236   0.681   0.328  1.4774  0.6543  1.4845
17687SOL     OW53638   5.858   0.533   9.662 -0.1587 -0.0759  0.1821
17687SOL    HW153639   5.776   0.486   9.654 -0.0601 -0.1389 -0.4952
17687SOL    HW253640   5.851   0.605   9.600  0.8091 -0.8405 -0.8563
17688SOL     OW53641   8.797   9.321   6.587  0.1442 -0.2704 -0.0800
17688SOL    HW153642   8.861   9.287   6.524 -0.4693 -1.4398 -0.1056
17688SOL    HW253643   8.847   9.379   6.643  0.7915  0.4775 -1.3921
17689SOL     OW53644   0.476   8.546   1.733  0.1023 -0.2166  0.1417
17689SOL    HW153645   0.495   8.453   1.737  0.6972 -0.1340 -0.4848
17689SOL    HW253646   0.553   8.589   1.770  0.0794  0.0395 -0.0965
17690SOL     OW53647   0.556   3.768   8.122  0.6184 -0.3319 -0.0032
17690SOL    HW153648   0.613   3.691   8.126 -0.0230 -0.8525 -0.5198
17690SOL    HW253649   0.615   3.842   8.111  1.1778 -1.1802 -4.9779
17691SOL     OW53650   4.991   6.209   6.352  0.4117  0.0755  0.5336
17691SOL    HW153651   5.081   6.223   6.383  0.3157  0.2852  0.7211
17691SOL    HW253652   4.965   6.294   6.316  0.3023  0.0043  0.4453
17692SOL     OW53653   9.362   2.441   5.596  0.3782 -0.3830  0.1166
17692SOL    HW153654   9.413   2.450   5.676 -0.2239  0.1220  0.4508
17692SOL    HW253655   9.408   2.374   5.545  0.9863 -0.4159  0.7060
17693SOL     OW53656   5.287   8.046   7.492  0.7074  0.0572  0.1711
17693SOL    HW153657   5.196   8.069   7.473  0.8129 -0.1503 -0.6136
17693SOL    HW253658   5.282   7.960   7.535  0.4310  0.7571  1.6184
17694SOL     OW53659   1.715   6.327   0.428  0.0902 -0.1115  0.7577
17694SOL    HW153660   1.778   6.261   0.399 -1.1151 -1.0861  0.2905
17694SOL    HW253661   1.660   6.282   0.492  0.4305  0.9901  1.8481
17695SOL     OW53662   1.571   4.952   5.735  0.5900 -0.5017  0.7878
17695SOL    HW153663   1.583   5.044   5.755 -1.5294  0.1738 -0.7162
17695SOL    HW253664   1.654   4.911   5.758  2.7381  2.2798 -1.3260
17696SOL     OW53665   9.166   4.987   4.842 -0.6530 -0.3624 -0.2108
17696SOL    HW153666   9.248   4.942   4.824 -1.5940 -2.1132 -0.3932
17696SOL    HW253667   9.180   5.031   4.926  0.5458 -0.3966 -0.3839
17697SOL     OW53668   1.954   4.536   5.826 -0.0485  0.7774  0.0128
17697SOL    HW153669   1.890   4.471   5.798 -1.0949  1.0936  1.5660
17697SOL    HW253670   1.978   4.583   5.745 -1.0027 -0.0061 -0.7428
17698SOL     OW53671   3.073   5.598   3.428  0.6149 -0.0675 -0.6297
17698SOL    HW153672   3.154   5.562   3.465  1.2342 -0.1735 -2.0284
17698SOL    HW253673   3.043   5.662   3.493  0.2773 -2.0045  1.2242
17699SOL     OW53674   3.160   0.677   9.982 -0.2217 -0.3779  0.1857
17699SOL    HW153675   3.090   0.648   9.923 -1.5140 -0.2644  1.6088
17699SOL    HW253676   3.227   0.609   9.976  0.7386  0.6464 -3.0394
17700SOL     OW53677   2.987   8.105   0.186 -0.5116 -0.0449  0.1139
17700SOL    HW153678   2.964   8.194   0.214 -2.2238 -0.2171 -0.6177
17700SOL    HW253679   2.917   8.080   0.126  0.0019 -1.8493  0.2094
17701SOL     OW53680   8.939   6.486   4.196 -0.8087 -0.3001 -0.6681
17701SOL    HW153681   8.853   6.522   4.175  0.3579  1.9632 -1.9223
17701SOL    HW253682   8.989   6.561   4.227  1.8077 -0.7467 -3.4352
17702SOL     OW53683   8.399   8.447   1.937  0.2331 -0.3540 -0.0455
17702SOL    HW153684   8.336   8.473   1.870  0.7746  0.4831 -0.2419
17702SOL    HW253685   8.410   8.353   1.924  0.5900 -0.1457 -1.3527
17703SOL     OW53686   7.857   7.581   2.867 -0.3435  0.7349 -0.1180
17703SOL    HW153687   7.859   7.666   2.910  0.5886  1.0174 -0.7071
17703SOL    HW253688   7.898   7.521   2.930 -1.8140  0.5033  0.6873
17704SOL     OW53689   7.538   8.832   2.384  0.0521  0.3906  0.0523
17704SOL    HW153690   7.595   8.865   2.454  0.7120 -0.9731  0.1828
17704SOL    HW253691   7.564   8.741   2.373 -0.7449  0.3046 -1.2859
17705SOL     OW53692   5.348   1.815   5.081  0.7545 -0.0586 -0.0148
17705SOL    HW153693   5.371   1.761   5.006  2.3043  1.1079 -0.4206
17705SOL    HW253694   5.342   1.904   5.046 -0.5483  0.2418  0.8750
17706SOL     OW53695   8.044   0.489   5.247  0.2378 -0.0121  0.2721
17706SOL    HW153696   7.990   0.463   5.172  1.2793 -0.6547 -0.2808
17706SOL    HW253697   8.132   0.500   5.211  0.5773  0.5637  1.2414
17707SOL     OW53698   6.688   0.804   5.122 -0.7788  0.1376 -0.0393
17707SOL    HW153699   6.678   0.849   5.038 -2.6352  1.5237  0.8600
17707SOL    HW253700   6.782   0.809   5.140 -0.7298  2.6297 -0.5898
17708SOL     OW53701   7.754   6.306   7.578  0.4423  0.1555  0.3872
17708SOL    HW153702   7.792   6.237   7.523  0.7883 -0.8129  1.7974
17708SOL    HW253703   7.763   6.386   7.525  2.0168 -0.4999 -0.4042
17709SOL     OW53704   9.519   1.014   9.497  0.0615 -0.1184 -0.0077
17709SOL    HW153705   9.432   1.047   9.471  1.3145  5.5472  1.6160
17709SOL    HW253706   9.576   1.038   9.424  0.9839  0.7362  0.9768
17710SOL     OW53707   0.733   9.100   1.283  0.0622  0.0534 -0.0476
17710SOL    HW153708   0.753   9.021   1.334 -1.3104 -1.1058 -1.2150
17710SOL    HW253709   0.677   9.152   1.340 -0.6574 -0.7714  0.0222
17711SOL     OW53710   9.327   4.456   1.388 -0.5840 -0.2292 -0.1646
17711SOL    HW153711   9.376   4.495   1.315  0.6560  0.8464  1.1888
17711SOL    HW253712   9.386   4.390   1.423 -0.9255 -0.3146  0.2513
17712SOL     OW53713   1.601   5.314   2.779  0.2707 -0.2461 -0.4643
17712SOL    HW153714   1.605   5.276   2.691  0.0456 -0.0717 -0.5513
17712SOL    HW253715   1.686   5.293   2.818  1.5379  2.0787 -1.7218
17713SOL     OW53716   2.836   5.682   0.901 -0.2890  0.0269 -0.7018
17713SOL    HW153717   2.840   5.600   0.851  2.0892  0.0149 -0.6061
17713SOL    HW253718   2.852   5.750   0.835 -1.0641  0.3175 -0.5881
17714SOL     OW53719   5.267   3.892   2.281  0.2315  0.4053 -0.4460
17714SOL    HW153720   5.187   3.944   2.293 -0.2301 -0.4739  0.4389
17714SOL    HW253721   5.337   3.947   2.316 -0.0038  1.0791 -0.9956
17715SOL     OW53722   9.150   1.437   2.833  0.1047 -0.0331  0.1524
17715SOL    HW153723   9.230   1.427   2.883 -0.1742  2.8443  1.3850
17715SOL    HW253724   9.080   1.427   2.897 -0.3288  1.4951 -0.0303
17716SOL     OW53725   1.119   0.434   5.143 -0.1420  0.1448 -0.3500
17716SOL    HW153726   1.107   0.517   5.095  2.0054 -0.2282 -1.6756
17716SOL    HW253727   1.133   0.369   5.075  1.2981 -0.7263  0.7128
17717SOL     OW53728   1.122   4.396   8.763 -0.1215  0.3403  0.3825
17717SOL    HW153729   1.137   4.464   8.829 -0.9760 -0.3249  1.2871
17717SOL    HW253730   1.208   4.357   8.748  0.0664  0.4331  1.1811
17718SOL     OW53731   3.406   1.828   7.340 -0.0770 -0.3652 -0.5414
17718SOL    HW153732   3.359   1.896   7.292  0.9315  0.8972  0.2321
17718SOL    HW253733   3.360   1.823   7.424 -0.6750 -1.2693 -0.8999
17719SOL     OW53734   4.434   3.124   1.907  0.7809 -0.0899 -0.5164
17719SOL    HW153735   4.479   3.208   1.912  0.6635  0.0963 -2.1033
17719SOL    HW253736   4.342   3.146   1.896  0.8160 -0.3835 -1.5536
17720SOL     OW53737   1.743   2.980   5.287 -0.1060 -0.0793  0.1535
17720SOL    HW153738   1.808   2.917   5.319  1.1167  0.3665 -1.3707
17720SOL    HW253739   1.659   2.935   5.300  0.5029 -0.8612  1.7039
17721SOL     OW53740   4.986   8.315   3.177  0.3013  0.4090  0.4644
17721SOL    HW153741   4.981   8.226   3.141  0.9442  0.3640  0.4716
17721SOL    HW253742   5.074   8.345   3.155  0.7963  0.3091  2.1187
17722SOL     OW53743   3.685   4.001   3.615  0.3308 -0.4126 -0.0536
17722SOL    HW153744   3.707   3.914   3.649 -1.5284 -1.3597 -1.0625
17722SOL    HW253745   3.753   4.019   3.550  0.1278 -1.6765 -0.6612
17723SOL     OW53746   9.804   4.575   7.803 -0.5486 -0.1673  0.4699
17723SOL    HW153747   9.778   4.519   7.876  0.4688 -0.1384  0.8662
17723SOL    HW253748   9.756   4.656   7.817 -0.4933 -0.2253  1.0030
17724SOL     OW53749   7.105   0.982   0.147 -0.1592  0.5061 -0.2781
17724SOL    HW153750   7.175   0.943   0.095  0.1475  1.9051 -0.9318
17724SOL    HW253751   7.126   0.957   0.237 -0.7147 -1.9671 -0.7554
17725SOL     OW53752   5.244   9.492   8.465 -0.5660  0.2360  0.0351
17725SOL    HW153753   5.274   9.403   8.451 -1.0658 -0.1801  1.4625
17725SOL    HW253754   5.149   9.485   8.474 -0.4429  0.5990  2.1142
17726SOL     OW53755   4.248   2.374   4.339  0.0523 -0.2865 -0.7228
17726SOL    HW153756   4.198   2.443   4.294  0.1566 -1.6348 -3.0858
17726SOL    HW253757   4.296   2.420   4.408 -0.7257  1.8207 -1.4982
17727SOL     OW53758   5.141   9.828   3.202  0.2969 -0.5530  0.1912
17727SOL    HW153759   5.058   9.856   3.163  0.1939 -0.9278  0.1345
17727SOL    HW253760   5.147   9.735   3.180  2.3468  0.1289 -2.7452
17728SOL     OW53761   3.238   3.954   2.411  0.2062  0.2358 -0.1437
17728SOL    HW153762   3.169   3.914   2.466  0.2463 -0.0381 -0.2901
17728SOL    HW253763   3.248   3.893   2.338 -1.6350  1.8149 -1.8409
17729SOL     OW53764   9.928   4.286   2.441  0.0319 -0.3906 -0.8803
17729SOL    HW153765   9.927   4.360   2.502 -0.4391 -0.2719 -1.0283
17729SOL    HW253766   9.974   4.318   2.364  2.7258 -1.2425  0.2627
17730SOL     OW53767   4.782   9.985   0.862 -0.0507  0.1374 -0.0586
17730SOL    HW153768   4.850   9.919   0.875  1.6108  1.2081 -2.5677
17730SOL    HW253769   4.794  10.047   0.934 -1.1230 -1.7817  1.8727
17731SOL     OW53770   8.566   0.095   4.502  0.2603 -0.0834 -0.3490
17731SOL    HW153771   8.637   0.109   4.565  0.3125  1.5048 -0.7119
17731SOL    HW253772   8.492   0.142   4.540  0.2936  0.8917 -1.4349
17732SOL     OW53773   3.085   4.732   5.494 -0.2352 -0.0755  0.0417
17732SOL    HW153774   3.150   4.698   5.433 -0.2746  1.1393 -0.7091
17732SOL    HW253775   3.006   4.682   5.475  0.0453 -0.4576 -0.1366
17733SOL     OW53776   1.752   7.273   7.520 -0.5810  0.0175  0.6303
17733SOL    HW153777   1.812   7.346   7.508  0.9520 -1.4109 -0.9844
17733SOL    HW253778   1.809   7.199   7.543 -1.8719 -1.1133  0.3168
17734SOL     OW53779   0.536   5.092   4.580 -0.0168 -0.5958  1.1709
17734SOL    HW153780   0.564   5.058   4.664  1.5272 -0.2786  0.8056
17734SOL    HW253781   0.604   5.155   4.555 -1.4039  0.7280  0.5617
17735SOL     OW53782   8.692   0.551   1.551 -0.1885 -0.4092  0.0253
17735SOL    HW153783   8.630   0.602   1.499 -0.3465 -0.7794 -0.1473
17735SOL    HW253784   8.643   0.474   1.578 -0.1637 -0.1395  0.8663
17736SOL     OW53785   1.944   5.349   9.764 -0.2398  0.4618 -0.6010
17736SOL    HW153786   1.981   5.291   9.697  2.1654  0.9581  0.2116
17736SOL    HW253787   2.016   5.365   9.825 -1.7293  1.8140  0.9098
17737SOL     OW53788   4.997   0.071   8.425  0.1896  0.2288 -0.7179
17737SOL    HW153789   4.929   0.069   8.358  0.2278 -1.0029 -0.7453
17737SOL    HW253790   5.074   0.031   8.383  0.1897 -0.6295  0.0689
17738SOL     OW53791   9.052   3.161   0.501 -0.4948 -0.5426 -0.6159
17738SOL    HW153792   9.135   3.112   0.499 -0.5639 -0.7085  0.2295
17738SOL    HW253793   9.077   3.248   0.532 -0.7350 -0.8241  0.4125
17739SOL     OW53794   3.502   4.838   5.640 -0.7429 -0.2616  0.1846
17739SOL    HW153795   3.579   4.825   5.694 -0.4383  0.4878 -0.0511
17739SOL    HW253796   3.488   4.753   5.597  0.8830 -0.0179 -0.9532
17740SOL     OW53797   8.809   4.447   3.166  0.7031 -0.6248 -0.7171
17740SOL    HW153798   8.823   4.541   3.152  0.6960 -0.6299 -0.7584
17740SOL    HW253799   8.752   4.421   3.093  0.9976 -0.7356 -0.9075
17741SOL     OW53800   6.167   6.717   6.538 -0.8277 -0.2484  0.1036
17741SOL    HW153801   6.096   6.668   6.580 -1.4994  1.1943  0.7211
17741SOL    HW253802   6.187   6.788   6.600  1.6890 -1.0309  0.3131
17742SOL     OW53803   6.399   6.715   2.766  0.4151  0.6033 -0.1784
17742SOL    HW153804   6.456   6.763   2.826  1.5174  0.2468 -0.9136
17742SOL    HW253805   6.348   6.657   2.822  2.3165 -0.6627  0.3626
17743SOL     OW53806   5.830   4.926   6.650  0.2128  0.5407  0.3166
17743SOL    HW153807   5.777   4.894   6.723  0.6210  3.4137  2.0206
17743SOL    HW253808   5.918   4.937   6.687  0.9387  0.1826 -1.2010
17744SOL     OW53809   2.865   9.653   3.675  0.0813  0.0233  0.7933
17744SOL    HW153810   2.893   9.696   3.594  0.2845 -0.5439  0.5568
17744SOL    HW253811   2.780   9.614   3.653  0.3172 -0.4669  0.7267
17745SOL     OW53812   2.468   0.197   9.044 -0.1531  0.3390 -0.0716
17745SOL    HW153813   2.451   0.252   9.120 -0.3930  2.2327 -1.4284
17745SOL    HW253814   2.381   0.175   9.010 -0.0471 -0.4707  0.1436
17746SOL     OW53815   6.810   1.056   5.272  0.1291  0.2173  0.3342
17746SOL    HW153816   6.767   1.062   5.187 -1.4649  0.4657  1.1268
17746SOL    HW253817   6.743   1.022   5.331  0.9509  0.8061  1.6592
17747SOL     OW53818   5.926   4.850   7.466 -0.6978 -0.2985 -0.0927
17747SOL    HW153819   5.929   4.779   7.531 -0.5832 -0.8079 -0.6371
17747SOL    HW253820   6.012   4.846   7.424 -0.6078  0.3239  0.0344
17748SOL     OW53821   8.983   6.345   7.607  0.2413 -0.0184 -0.5575
17748SOL    HW153822   9.042   6.359   7.533 -0.2457  2.1846 -0.6192
17748SOL    HW253823   8.896   6.351   7.570 -0.0353  2.3720  0.2889
17749SOL     OW53824   7.872   4.601   7.033 -0.0958 -0.8597  0.6963
17749SOL    HW153825   7.816   4.575   7.106  0.4437 -0.6897  1.1818
17749SOL    HW253826   7.856   4.695   7.023  0.4722 -0.6972  1.1846
17750SOL     OW53827   4.515   3.566   0.968 -0.2842  0.0880  0.2325
17750SOL    HW153828   4.503   3.600   1.056 -0.8073  0.1928  0.1201
17750SOL    HW253829   4.543   3.475   0.982  1.5853  0.6626  0.5393
17751SOL     OW53830   6.261   9.911   5.436 -0.7138 -0.1353 -0.0331
17751SOL    HW153831   6.278   9.997   5.473 -0.3973  0.6330 -1.8442
17751SOL    HW253832   6.340   9.891   5.384 -0.2488 -2.0806  1.2872
17752SOL     OW53833   6.604   4.950   5.066 -0.3697 -0.0901  0.3418
17752SOL    HW153834   6.606   4.988   4.978  0.5395  0.9973  0.8047
17752SOL    HW253835   6.534   4.885   5.063 -1.6811  1.3031 -0.6382
17753SOL     OW53836   3.927   8.959   6.418 -0.4432 -0.1367  0.2025
17753SOL    HW153837   3.846   9.008   6.434  0.6683  1.2394  2.0441
17753SOL    HW253838   3.971   9.006   6.348 -1.0281 -0.6537 -0.5246
17754SOL     OW53839   2.709   5.704   4.251  0.1151  0.5919  0.4577
17754SOL    HW153840   2.763   5.692   4.330 -0.3550 -1.4790  0.5232
17754SOL    HW253841   2.640   5.638   4.259 -0.5911  1.0774 -1.1739
17755SOL     OW53842   6.384   7.764   4.737 -0.2528  0.0324 -0.5826
17755SOL    HW153843   6.311   7.750   4.798  0.0998 -0.0457 -0.1813
17755SOL    HW253844   6.455   7.709   4.770  0.5375  1.3526 -0.0318
17756SOL     OW53845   0.387   5.719   3.428 -0.0076 -0.2075 -0.0136
17756SOL    HW153846   0.328   5.646   3.410 -1.0722  0.2275  1.5309
17756SOL    HW253847   0.348   5.793   3.382  0.2799 -0.2793 -0.3819
17757SOL     OW53848   7.707   5.791   8.020 -0.6916 -0.4504 -0.0190
17757SOL    HW153849   7.616   5.815   8.039 -0.9822 -1.5953  0.1230
17757SOL    HW253850   7.745   5.869   7.980 -2.1159 -0.3573 -1.2955
17758SOL     OW53851   7.748   4.072   3.182  0.3232  0.4605 -0.4245
17758SOL    HW153852   7.726   4.081   3.089  0.0320  1.1158 -0.3003
17758SOL    HW253853   7.789   4.156   3.204  1.2927 -0.0518 -0.1989
17759SOL     OW53854   8.539   3.741   6.136  0.0866 -0.1406 -0.5012
17759SOL    HW153855   8.616   3.714   6.187  0.8204  0.0174 -1.4852
17759SOL    HW253856   8.487   3.794   6.196  0.3361 -0.9272  0.4293
17760SOL     OW53857   7.555   4.654   5.079  0.3010  0.5564  0.1416
17760SOL    HW153858   7.498   4.583   5.109  0.6939  0.9480  1.8888
17760SOL    HW253859   7.591   4.621   4.996 -1.5417 -0.1698 -0.4238
17761SOL     OW53860   9.973   5.347   6.086  0.6929 -0.2972  0.2837
17761SOL    HW153861   9.945   5.330   6.176 -2.2790 -0.9366 -0.6403
17761SOL    HW253862   9.951   5.267   6.038  1.5744  0.2725 -1.1561
17762SOL     OW53863   9.894   5.172   9.673  0.6007 -0.2689 -0.4456
17762SOL    HW153864   9.927   5.161   9.584  0.8858  0.2957 -0.4125
17762SOL    HW253865   9.801   5.192   9.663  0.6815  0.0156 -0.6270
17763SOL     OW53866   7.078   0.923   9.797 -0.0564 -0.0056  0.0702
17763SOL    HW153867   7.050   0.947   9.709  0.5166  0.1104 -0.0785
17763SOL    HW253868   7.070   1.004   9.848  2.9578  0.8736 -0.6883
17764SOL     OW53869   3.582   1.718   6.126 -0.0602 -0.3064 -0.4262
17764SOL    HW153870   3.575   1.754   6.215 -0.9231  0.3423 -0.7347
17764SOL    HW253871   3.656   1.765   6.087 -0.5573  0.4368 -0.4991
17765SOL     OW53872   7.166   8.342   9.573 -0.3436  0.3649 -0.2179
17765SOL    HW153873   7.256   8.338   9.605  0.0115 -0.7913 -1.2519
17765SOL    HW253874   7.115   8.374   9.647  0.7230 -0.2685  0.8204
17766SOL     OW53875   2.138   1.232   9.570 -0.4473  0.3131 -0.5316
17766SOL    HW153876   2.053   1.275   9.580 -0.0480  1.1471 -0.6305
17766SOL    HW253877   2.176   1.271   9.491  0.7018  1.1386  0.3797
17767SOL     OW53878   4.989   0.659   6.499 -0.2410 -0.3847 -0.1045
17767SOL    HW153879   4.944   0.742   6.479 -1.8874 -0.6844  1.9433
17767SOL    HW253880   5.064   0.685   6.553 -0.3782 -0.1766 -0.0124
17768SOL     OW53881   7.631   1.565   6.932  0.2439 -0.9738  0.7563
17768SOL    HW153882   7.538   1.542   6.941  0.2055 -1.9231 -1.2644
17768SOL    HW253883   7.672   1.531   7.011 -1.2325  0.3270  2.1645
17769SOL     OW53884   1.065   2.839   0.891 -0.2160  0.3473  0.3090
17769SOL    HW153885   0.997   2.841   0.823  1.1149 -1.9458 -1.2146
17769SOL    HW253886   1.016   2.823   0.972 -1.5703 -1.9829 -0.8386
17770SOL     OW53887   3.839   7.668   1.632 -0.1222 -0.2534  0.4792
17770SOL    HW153888   3.836   7.753   1.588  1.8485 -0.6152 -0.4484
17770SOL    HW253889   3.866   7.688   1.722 -1.7155  0.2513  0.8836
17771SOL     OW53890   1.116   6.891   7.339  0.2303  0.2974  0.1848
17771SOL    HW153891   1.168   6.969   7.321  1.6869 -0.6852  0.0072
17771SOL    HW253892   1.082   6.863   7.254  0.0575  0.4916  0.1896
17772SOL     OW53893   6.672   8.856   2.215 -0.0320  0.0095 -0.0089
17772SOL    HW153894   6.745   8.855   2.277 -0.0267  0.6973  0.0001
17772SOL    HW253895   6.634   8.943   2.224  0.3457  0.3412 -1.4011
17773SOL     OW53896   2.657   5.049   9.976  0.0884  0.2786 -0.3197
17773SOL    HW153897   2.625   5.103   9.905 -0.8592  0.6240  0.3565
17773SOL    HW253898   2.718   5.105  10.024 -0.0744  0.3819 -0.2378
17774SOL     OW53899   1.229   6.845   8.234  0.0513 -0.4512  0.0509
17774SOL    HW153900   1.168   6.911   8.268  0.4761 -1.4338  3.0484
17774SOL    HW253901   1.173   6.770   8.212 -0.0110 -1.2329  2.4951
17775SOL     OW53902   0.736   6.422   3.863  0.1534  0.0011 -0.2233
17775SOL    HW153903   0.827   6.393   3.872 -0.3830 -1.3306  1.4062
17775SOL    HW253904   0.684   6.342   3.869 -1.2911  1.0073  2.4609
17776SOL     OW53905   4.898   8.014   9.162  0.7967  0.5114  0.3887
17776SOL    HW153906   4.884   8.095   9.211 -0.9254 -0.5960  1.8815
17776SOL    HW253907   4.865   8.033   9.074 -1.4690  0.8984  1.2586
17777SOL     OW53908   6.510   3.066   1.159 -0.4034 -0.4313 -0.2986
17777SOL    HW153909   6.560   3.050   1.239  0.0396 -0.1474 -0.5138
17777SOL    HW253910   6.482   3.157   1.166 -1.1411 -0.6783 -0.0433
17778SOL     OW53911   1.786   3.103   3.704 -0.7008 -0.0248 -0.3244
17778SOL    HW153912   1.853   3.171   3.709 -0.8158  0.0968 -0.4370
17778SOL    HW253913   1.772   3.076   3.795 -0.1701 -0.3721 -0.3378
17779SOL     OW53914   3.738   7.320   4.686  0.6025 -0.4116  0.5282
17779SOL    HW153915   3.669   7.292   4.746 -0.7086  0.6515 -0.3991
17779SOL    HW253916   3.719   7.274   4.604 -0.1776  1.2739 -0.2925
17780SOL     OW53917   9.412   9.019   7.855  0.5089  0.3084  0.0764
17780SOL    HW153918   9.451   8.932   7.862  1.6625  0.6442 -1.4833
17780SOL    HW253919   9.341   9.019   7.919  1.8342 -1.0311  1.6657
17781SOL     OW53920   6.773   4.381   2.116 -0.5190 -0.0907  0.2758
17781SOL    HW153921   6.775   4.388   2.021  1.0172  0.3065  0.2999
17781SOL    HW253922   6.760   4.471   2.147  1.9114  0.2817  0.4255
17782SOL     OW53923   4.007   4.633   5.765 -0.4893  0.1428 -0.1585
17782SOL    HW153924   3.993   4.539   5.756  0.5207 -0.1612  1.0834
17782SOL    HW253925   3.919   4.670   5.777 -0.7758 -0.9071  1.3040
17783SOL     OW53926   5.368   5.317   7.298  0.2832 -0.1158  0.3202
17783SOL    HW153927   5.359   5.412   7.291  0.1717 -0.1815 -0.4951
17783SOL    HW253928   5.282   5.283   7.271  1.1077 -0.5403 -1.9187
17784SOL     OW53929   0.116   9.208   8.699 -0.6462  0.5060 -0.5734
17784SOL    HW153930   0.201   9.226   8.738 -0.3031  0.8944 -1.4633
17784SOL    HW253931   0.069   9.157   8.765 -0.0832  1.1000  0.3079
17785SOL     OW53932   4.366   2.498   8.785 -0.1228 -0.2763 -0.0024
17785SOL    HW153933   4.458   2.504   8.808 -0.2341  0.2279  0.3450
17785SOL    HW253934   4.362   2.528   8.694  0.2739 -1.9631 -0.6071
17786SOL     OW53935   6.658   6.553   3.546  0.2617  0.0275  0.1175
17786SOL    HW153936   6.696   6.489   3.486 -0.0936  0.1409 -0.2363
17786SOL    HW253937   6.623   6.501   3.618 -0.0516 -0.1832 -0.1831
17787SOL     OW53938   5.826   8.293   4.131 -0.2431  0.3026 -0.2340
17787SOL    HW153939   5.865   8.336   4.207 -1.3697 -0.0911  0.6015
17787SOL    HW253940   5.843   8.200   4.143 -1.3122  0.1309  0.1013
17788SOL     OW53941   9.516   4.782   7.434 -0.6149  0.1110 -0.3648
17788SOL    HW153942   9.595   4.815   7.475 -0.0664  0.0934 -1.3855
17788SOL    HW253943   9.523   4.686   7.439 -1.6365  0.0946  1.5162
17789SOL     OW53944   7.024   6.835   4.113 -0.0659  0.2861  0.1285
17789SOL    HW153945   6.978   6.904   4.065 -1.3424 -0.0235  0.8511
17789SOL    HW253946   6.961   6.762   4.116  0.6194 -0.2945  0.8265
17790SOL     OW53947   6.018   2.644   1.673 -0.0412 -0.5501 -0.2660
17790SOL    HW153948   5.993   2.735   1.693 -0.6945 -0.9778  0.9489
17790SOL    HW253949   6.104   2.634   1.714 -0.4888 -0.8243  0.6150
17791SOL     OW53950   2.797   0.529   5.274 -0.3253  0.3096 -0.5786
17791SOL    HW153951   2.791   0.458   5.339  0.4297  0.7957  0.0385
17791SOL    HW253952   2.707   0.542   5.245 -0.8043  0.6441  0.9862
17792SOL     OW53953   5.655   7.528   5.828  0.6457  0.0911 -0.2177
17792SOL    HW153954   5.739   7.482   5.831  0.7516  0.1569 -1.7043
17792SOL    HW253955   5.592   7.463   5.858  1.1291 -0.1449  0.3290
17793SOL     OW53956   1.511   6.783   5.377 -0.1859  0.0350 -0.5787
17793SOL    HW153957   1.563   6.753   5.303 -1.0721 -1.2402 -0.7162
17793SOL    HW253958   1.427   6.808   5.339 -1.7389 -3.3610  0.1802
17794SOL     OW53959   7.662   5.501   7.019  0.8249  0.1312  0.3700
17794SOL    HW153960   7.573   5.527   7.044  1.0747 -1.5406  3.5547
17794SOL    HW253961   7.702   5.581   6.985 -0.6120  2.0962  2.9317
17795SOL     OW53962   0.589   1.422   5.701 -0.9001 -0.3953  0.0202
17795SOL    HW153963   0.527   1.409   5.773 -1.2522  0.2517 -0.1501
17795SOL    HW253964   0.652   1.486   5.735 -1.5286  0.5215 -0.5066
17796SOL     OW53965   1.452   6.129   9.127 -0.3231 -0.0658  0.7395
17796SOL    HW153966   1.507   6.050   9.127 -0.6475 -0.2964  1.2691
17796SOL    HW253967   1.462   6.165   9.215  0.8915  1.2466  0.1050
17797SOL     OW53968   9.616   8.541   3.373  0.3134 -0.2428  0.1892
17797SOL    HW153969   9.675   8.574   3.441  0.3563 -0.5925  0.3269
17797SOL    HW253970   9.563   8.475   3.419 -0.1225  0.0075  0.0445
17798SOL     OW53971   6.427   5.065   8.102  0.1418 -0.3310  0.3855
17798SOL    HW153972   6.498   5.128   8.115  0.1916 -0.0508 -1.1232
17798SOL    HW253973   6.353   5.102   8.151 -0.2304  1.6389 -1.5044
17799SOL     OW53974   3.059   7.132   3.688  0.0617  0.5546  0.7131
17799SOL    HW153975   3.049   7.041   3.717  1.0312 -0.0372 -0.6720
17799SOL    HW253976   3.152   7.151   3.701  0.5626  0.2494 -1.8428
17800SOL     OW53977   5.641   8.483   9.986 -0.6011 -0.5594  0.2662
17800SOL    HW153978   5.713   8.451  10.040 -0.3632 -0.6103 -0.0807
17800SOL    HW253979   5.683   8.541   9.922 -0.7893 -1.0606 -0.3204
17801SOL     OW53980   1.214   0.332   3.509 -0.6128 -0.4440  0.3733
17801SOL    HW153981   1.210   0.417   3.466  0.9758  0.5133  1.9803
17801SOL    HW253982   1.239   0.352   3.599  2.0183 -2.7220  0.2680
17802SOL     OW53983   5.644   4.529   2.306  0.6217 -0.2189  0.0643
17802SOL    HW153984   5.721   4.480   2.334 -0.1025 -1.2842  0.2474
17802SOL    HW253985   5.666   4.562   2.219  1.2421 -0.5840  0.0802
17803SOL     OW53986   0.116   2.963   1.666 -0.0564 -0.0632 -0.6993
17803SOL    HW153987   0.101   2.928   1.754 -1.5594 -1.6367 -1.5305
17803SOL    HW253988   0.075   2.900   1.607 -2.6163  2.8732 -2.3534
17804SOL     OW53989   8.872   1.824   1.608 -0.3379 -0.0305 -0.0938
17804SOL    HW153990   8.905   1.861   1.526 -0.2903 -1.4296 -0.7306
17804SOL    HW253991   8.782   1.856   1.614  0.2329  1.5916  0.2717
17805SOL     OW53992   7.219   4.662   5.935 -0.3160 -0.1400 -0.1545
17805SOL    HW153993   7.294   4.649   5.992 -0.8018 -0.7185  0.3664
17805SOL    HW253994   7.196   4.754   5.947  0.8530  0.2973 -1.0210
17806SOL     OW53995   1.800   2.697   0.357 -0.1154 -0.0043  0.5696
17806SOL    HW153996   1.874   2.739   0.313  0.6479  0.5581  2.2773
17806SOL    HW253997   1.725   2.755   0.339 -0.3070 -0.8465 -1.5950
17807SOL     OW53998   7.562   9.189   7.571 -0.2154 -0.3483  0.1737
17807SOL    HW153999   7.575   9.283   7.558 -1.0818 -0.0951  1.0600
17807SOL    HW254000   7.543   9.155   7.483  0.6026  0.2097 -0.2308
17808SOL     OW54001   7.267   9.331   7.510  0.1686  0.9680 -0.7023
17808SOL    HW154002   7.336   9.382   7.552 -0.0194 -0.0727  0.9517
17808SOL    HW254003   7.311   9.285   7.439  0.9138  1.2612 -0.4452
17809SOL     OW54004   5.722   0.017   3.885  0.1198  0.1852  0.5303
17809SOL    HW154005   5.685   0.026   3.972  0.3297  1.0296  0.5397
17809SOL    HW254006   5.718   0.105   3.847  4.4810  1.0601  1.4860
17810SOL     OW54007   5.364   3.491   2.459 -0.8135 -0.1999  0.5633
17810SOL    HW154008   5.384   3.521   2.548 -0.8570 -0.3551  0.6252
17810SOL    HW254009   5.270   3.502   2.450 -0.6998  0.5675  0.2575
17811SOL     OW54010   9.072   3.100   3.940 -0.3897  0.7243  0.3089
17811SOL    HW154011   9.062   3.167   3.872 -1.3272  0.1959 -0.0936
17811SOL    HW254012   9.148   3.049   3.912 -1.4679 -0.2395 -1.0392
17812SOL     OW54013   1.882   0.379   3.229 -0.3733  0.4846  0.8474
17812SOL    HW154014   1.888   0.284   3.220  1.9425  0.3575  2.6889
17812SOL    HW254015   1.857   0.394   3.320  0.3166  1.6272  0.8716
17813SOL     OW54016   9.329   5.654   0.098 -0.7749  0.6815 -0.7125
17813SOL    HW154017   9.407   5.702   0.070 -0.9514  0.5330 -1.4903
17813SOL    HW254018   9.282   5.714   0.155  0.8185  0.1369  1.3003
17814SOL     OW54019   4.291   5.112   1.393  0.0506  0.2466  0.4889
17814SOL    HW154020   4.230   5.186   1.391 -0.9521 -0.5502 -1.6081
17814SOL    HW254021   4.241   5.039   1.355  1.7112 -0.9322  0.4565
17815SOL     OW54022   1.922   6.451   8.289 -0.4618 -0.1332 -0.3203
17815SOL    HW154023   1.951   6.400   8.214 -2.1232 -1.9671  0.1816
17815SOL    HW254024   1.940   6.542   8.265  1.7873 -0.8371 -1.6423
17816SOL     OW54025   9.084   6.711   8.839  0.2011  0.0497  0.1697
17816SOL    HW154026   9.048   6.756   8.916  0.6130 -0.2584  0.5457
17816SOL    HW254027   9.165   6.670   8.871  1.9106  2.2134 -1.0367
17817SOL     OW54028   2.445   1.866   7.992 -0.3580  0.0721 -0.4386
17817SOL    HW154029   2.508   1.827   8.053  0.1149  1.5622  0.0527
17817SOL    HW254030   2.448   1.808   7.916  0.9913 -0.3714 -0.0872
17818SOL     OW54031   2.450   3.368   6.008 -0.2193  0.1896  0.1475
17818SOL    HW154032   2.395   3.391   6.082  0.0781  0.9319  0.1491
17818SOL    HW254033   2.397   3.307   5.956 -1.4901  1.7114 -0.4235
17819SOL     OW54034   0.884   7.876   7.243  0.0121  0.4244  0.0222
17819SOL    HW154035   0.877   7.792   7.198 -1.3972  1.6308 -2.2246
17819SOL    HW254036   0.942   7.928   7.188  2.2891  0.4619  2.2993
17820SOL     OW54037   4.117   2.861   9.659 -0.1280  0.2550  0.2116
17820SOL    HW154038   4.158   2.788   9.706 -0.5445  0.3262  0.6923
17820SOL    HW254039   4.034   2.825   9.627  1.4548 -0.7761 -3.2127
17821SOL     OW54040   5.995   2.881   5.551  0.6250 -0.1449 -0.2650
17821SOL    HW154041   5.984   2.786   5.551  3.3983 -0.5538  0.2075
17821SOL    HW254042   5.913   2.915   5.586 -1.5093 -2.1241 -2.9698
17822SOL     OW54043   3.316   6.397   9.454 -0.2749  0.5586  0.0567
17822SOL    HW154044   3.391   6.374   9.399 -0.1379  2.1448 -0.4661
17822SOL    HW254045   3.245   6.340   9.423  0.4344 -0.2493 -0.1250
17823SOL     OW54046   9.494   4.402   5.755  0.0555  0.6368 -0.6001
17823SOL    HW154047   9.527   4.488   5.730  2.4379  0.6817  2.2675
17823SOL    HW254048   9.474   4.409   5.848 -0.1452 -1.7898 -0.3924
17824SOL     OW54049   5.205   8.859   4.330 -0.6132 -0.7723 -0.5799
17824SOL    HW154050   5.275   8.820   4.278 -0.3682 -2.5208  0.9613
17824SOL    HW254051   5.148   8.902   4.265  1.7990  0.6763 -1.8599
17825SOL     OW54052   8.024   0.836   2.382  0.0571 -0.0666 -0.1351
17825SOL    HW154053   8.062   0.914   2.421 -2.0870  0.7495  0.4313
17825SOL    HW254054   8.045   0.765   2.443  1.2160  0.1986 -0.1952
17826SOL     OW54055   6.586   9.594   4.681 -0.4056 -0.5005  0.1770
17826SOL    HW154056   6.531   9.533   4.631  0.1719  0.7609 -2.1483
17826SOL    HW254057   6.661   9.611   4.624  0.0941  1.3781  1.3022
17827SOL     OW54058   6.228   5.395   7.055 -0.9350  0.0032  0.3337
17827SOL    HW154059   6.138   5.414   7.029 -1.1132  1.0812  1.6136
17827SOL    HW254060   6.219   5.355   7.142 -0.2170 -0.6120  0.1266
17828SOL     OW54061   2.965   7.001   6.236 -0.6738  0.6349  0.0188
17828SOL    HW154062   3.023   7.000   6.312 -0.1388  0.6970 -0.3814
17828SOL    HW254063   2.879   7.023   6.272 -0.4014  0.7997  0.5865
17829SOL     OW54064   0.391   0.306  10.004  0.6037  0.1361 -0.2021
17829SOL    HW154065   0.406   0.276   9.914 -0.4432  0.5549 -0.5292
17829SOL    HW254066   0.474   0.346  10.030  1.9796 -2.6505  0.1412
17830SOL     OW54067   0.906  -0.036   5.477  0.2531  0.6913  0.1109
17830SOL    HW154068   0.863   0.040   5.438 -1.4696 -0.5203 -0.4942
17830SOL    HW254069   0.952  -0.001   5.553  0.9278  2.5886 -1.0937
17831SOL     OW54070   7.321   4.135   7.202 -0.6251 -0.2482 -0.5222
17831SOL    HW154071   7.298   4.210   7.256 -1.0188 -2.1937  2.2113
17831SOL    HW254072   7.240   4.113   7.156 -1.3875 -0.7479  0.9951
17832SOL     OW54073   5.843   1.217   2.258 -0.4924 -0.4233  0.0628
17832SOL    HW154074   5.863   1.143   2.201 -0.8353 -0.5003  0.0431
17832SOL    HW254075   5.901   1.205   2.334  1.6735  0.9135 -1.2598
17833SOL     OW54076   2.458   7.201   5.883 -0.1291 -0.2148  0.2008
17833SOL    HW154077   2.367   7.218   5.861  0.6462  1.8560 -1.7022
17833SOL    HW254078   2.453   7.152   5.965 -2.9768 -2.0383 -0.9181
17834SOL     OW54079   9.509   3.879   4.927 -0.1010 -0.0029  0.1869
17834SOL    HW154080   9.423   3.892   4.968 -0.0409  0.9843  0.0113
17834SOL    HW254081   9.511   3.785   4.907 -1.2050 -0.0194  0.0546
17835SOL     OW54082   2.793   8.727   0.810 -0.8464  0.3009  0.2439
17835SOL    HW154083   2.846   8.778   0.872 -0.1165 -1.5789  1.2316
17835SOL    HW254084   2.787   8.783   0.732  0.8809  1.4305  0.8650
17836SOL     OW54085   2.783   8.402   7.240 -0.2096 -0.0602  0.1847
17836SOL    HW154086   2.738   8.486   7.246 -0.5666 -0.3071  1.1184
17836SOL    HW254087   2.763   8.370   7.152 -0.3160  0.6898 -0.0700
17837SOL     OW54088   9.616   5.190   1.940  0.4421  0.5495  0.0963
17837SOL    HW154089   9.617   5.147   2.026  0.1239 -0.3654 -0.3377
17837SOL    HW254090   9.527   5.224   1.931 -0.5570 -2.0279 -1.0893
17838SOL     OW54091   1.344   4.881   3.063 -0.3014  0.1836  0.0740
17838SOL    HW154092   1.273   4.894   3.001 -1.9076 -0.3106  1.7143
17838SOL    HW254093   1.302   4.880   3.149  1.6850 -0.1724  1.1255
17839SOL     OW54094   4.247   9.973   9.319 -0.0872 -0.0204 -0.5063
17839SOL    HW154095   4.292   9.889   9.315  2.5570  1.3577 -3.1160
17839SOL    HW254096   4.309  10.032   9.361 -1.8063  0.7578  1.0876
17840SOL     OW54097   6.512   7.783   3.958  0.4116  0.3926 -0.0759
17840SOL    HW154098   6.418   7.768   3.966 -0.2926  1.2812 -4.4537
17840SOL    HW254099   6.526   7.869   3.999 -1.9560  3.0139 -4.1093
17841SOL     OW54100   4.281   8.077   9.563  0.6465  0.1019 -0.0865
17841SOL    HW154101   4.364   8.043   9.598  0.5756  0.4687  0.4406
17841SOL    HW254102   4.301   8.167   9.537  0.3049  0.3393  0.4539
17842SOL     OW54103   6.803   8.802   4.476 -0.3173  0.0748 -0.6380
17842SOL    HW154104   6.767   8.750   4.548 -0.8927  0.4983 -0.6142
17842SOL    HW254105   6.848   8.738   4.421  1.4191 -0.0476  0.8581
17843SOL     OW54106   1.529   4.880   8.390  0.2895  0.4397  0.2037
17843SOL    HW154107   1.603   4.933   8.364 -0.7904  2.2276  0.6311
17843SOL    HW254108   1.465   4.893   8.320 -0.7543  1.3642  1.2887
17844SOL     OW54109   0.943   4.567   7.972 -0.8142  0.3083 -0.1823
17844SOL    HW154110   0.874   4.571   7.905 -1.2953 -0.8971  0.2091
17844SOL    HW254111   1.011   4.512   7.934 -0.6767  0.3829 -0.0454
17845SOL     OW54112   4.874   3.693   2.484  0.1878 -0.1461 -0.0392
17845SOL    HW154113   4.899   3.742   2.406 -0.6419  1.1135  0.4644
17845SOL    HW254114   4.782   3.668   2.469 -0.1581  0.5961  0.7569
17846SOL     OW54115   8.451   2.568   4.952 -0.3609 -0.5255  0.4551
17846SOL    HW154116   8.368   2.583   4.998  0.3346 -0.1099  1.6079
17846SOL    HW254117   8.515   2.552   5.021  0.9168  1.0513 -0.2811
17847SOL     OW54118   1.764   0.579   6.036 -0.6672 -0.0324 -0.3668
17847SOL    HW154119   1.680   0.572   6.080  0.6542  0.1220  2.3558
17847SOL    HW254120   1.816   0.636   6.092  1.4498 -0.6079 -1.6312
17848SOL     OW54121   5.907   0.219   3.527  0.1466  0.2408 -0.0547
17848SOL    HW154122   5.845   0.281   3.489  0.2002  0.5481  0.3597
17848SOL    HW254123   5.871   0.133   3.505  0.4011  0.4075 -1.1759
17849SOL     OW54124   3.878   9.459   8.546 -0.0280  0.1054 -0.1503
17849SOL    HW154125   3.806   9.402   8.572 -1.5566  2.3256  0.7704
17849SOL    HW254126   3.954   9.425   8.593 -0.6061 -1.8081 -0.5213
17850SOL     OW54127   4.272   1.853   4.354 -0.1860  0.4652 -0.2360
17850SOL    HW154128   4.295   1.926   4.411  0.4894 -1.0901  1.5940
17850SOL    HW254129   4.177   1.845   4.363 -0.0437 -0.0129  1.0520
17851SOL     OW54130   4.441   5.164   7.681 -0.1286 -0.5627 -0.4535
17851SOL    HW154131   4.492   5.191   7.757 -0.9460 -0.8546  0.2081
17851SOL    HW254132   4.425   5.071   7.694  0.3331 -0.7843 -1.3548
17852SOL     OW54133   8.041   0.513   0.707 -0.5385 -0.0564  0.0735
17852SOL    HW154134   7.967   0.489   0.651 -0.2373 -0.0816 -0.3171
17852SOL    HW254135   8.082   0.587   0.662  1.5447 -1.9715 -1.4103
17853SOL     OW54136   5.828   0.341   6.022 -0.7968  0.1130 -0.0387
17853SOL    HW154137   5.816   0.436   6.024 -1.0287  0.0752  2.0249
17853SOL    HW254138   5.741   0.306   6.001 -0.8159  0.3177 -0.3181
17854SOL     OW54139   7.540   3.039   8.645 -0.3075 -0.0509  0.1542
17854SOL    HW154140   7.491   2.959   8.627 -0.8930  0.1078  0.9956
17854SOL    HW254141   7.594   3.017   8.721  2.2723 -0.7778 -1.7383
17855SOL     OW54142   6.319   7.715   9.146 -0.3708  0.8193 -0.0758
17855SOL    HW154143   6.265   7.674   9.214  1.3006  0.3606  1.0265
17855SOL    HW254144   6.262   7.783   9.109 -2.1572 -0.4908  0.1085
17856SOL     OW54145   6.968   1.277   9.852  0.4561  0.1916  0.0117
17856SOL    HW154146   7.063   1.275   9.858  0.4691 -0.6569 -0.2502
17856SOL    HW254147   6.948   1.358   9.805  1.0437  0.3999  0.1139
17857SOL     OW54148   2.886   7.977   3.438 -0.5053 -0.3813 -0.2366
17857SOL    HW154149   2.893   7.889   3.473 -1.9941 -0.0689  0.9270
17857SOL    HW254150   2.864   8.032   3.513 -1.6196  0.6553 -1.2736
17858SOL     OW54151   5.359   4.678   3.532 -0.3191 -0.7628  0.1182
17858SOL    HW154152   5.388   4.759   3.491  1.5423 -0.9480  0.9404
17858SOL    HW254153   5.280   4.652   3.484  0.0198  0.6322 -1.2416
17859SOL     OW54154   1.273   0.883   2.626 -0.2111  0.0194 -0.2918
17859SOL    HW154155   1.254   0.971   2.591 -0.8491 -0.2184 -0.5617
17859SOL    HW254156   1.196   0.861   2.679  1.1612  0.7877  2.1717
17860SOL     OW54157   4.380   7.433   1.494  0.5611 -0.5047 -0.0805
17860SOL    HW154158   4.365   7.350   1.539  0.3862  0.9619  2.7676
17860SOL    HW254159   4.293   7.460   1.463  0.5917 -1.2330 -0.8514
17861SOL     OW54160   7.719   7.556   1.515  0.8336 -0.2347 -0.0394
17861SOL    HW154161   7.726   7.652   1.513  0.6040 -0.2248 -1.1663
17861SOL    HW254162   7.752   7.531   1.601 -0.1421  0.9405  0.7016
17862SOL     OW54163   3.518   4.260   2.696 -0.5524  0.5519  0.0066
17862SOL    HW154164   3.482   4.176   2.668 -0.3700  0.2157  0.7458
17862SOL    HW254165   3.592   4.237   2.752  0.0508  1.2226 -0.5021
17863SOL     OW54166   8.322   2.172   5.481 -0.4085 -0.5302  0.2700
17863SOL    HW154167   8.341   2.196   5.571 -0.4448 -0.7252  0.3300
17863SOL    HW254168   8.302   2.255   5.437  2.9501  0.0827 -0.3949
17864SOL     OW54169   9.527   1.024   6.994  0.1319 -0.3231 -0.3459
17864SOL    HW154170   9.512   1.111   7.031  2.6283  0.2664 -0.5394
17864SOL    HW254171   9.557   1.040   6.905 -0.6553 -1.4805 -0.8501
17865SOL     OW54172   2.433   0.684   8.297  0.3092  0.5554  0.1836
17865SOL    HW154173   2.352   0.723   8.331 -0.2791  0.4719 -1.0705
17865SOL    HW254174   2.404   0.609   8.246  1.1817  0.4833 -0.2250
17866SOL     OW54175   4.899   7.540   9.237 -0.1858 -0.0120  0.1427
17866SOL    HW154176   4.867   7.608   9.177 -0.6667  0.1882  0.6210
17866SOL    HW254177   4.876   7.458   9.194 -0.8635  0.1314  0.2315
17867SOL     OW54178   8.615   2.633   4.599 -0.5511  0.0660  0.1221
17867SOL    HW154179   8.588   2.569   4.664 -0.8955 -0.5111 -0.5698
17867SOL    HW254180   8.535   2.682   4.578 -0.0215  1.7183  1.6789
17868SOL     OW54181   6.122   3.381   9.772 -0.1111  0.4092  0.2295
17868SOL    HW154182   6.175   3.450   9.733 -1.7963  1.3816 -0.4394
17868SOL    HW254183   6.090   3.329   9.698 -1.2591  0.7256  0.4755
17869SOL     OW54184   5.050   6.180   0.414  0.0857  0.6057 -0.2393
17869SOL    HW154185   5.036   6.266   0.453  1.4802  0.2684  1.1556
17869SOL    HW254186   5.143   6.180   0.389 -0.2474  0.0076 -1.5610
17870SOL     OW54187   6.869   5.754   3.076  0.6344 -0.9050 -0.6688
17870SOL    HW154188   6.963   5.747   3.062  1.1023  2.6180 -0.0886
17870SOL    HW254189   6.860   5.788   3.165 -1.0736  0.0354 -1.1569
17871SOL     OW54190   7.978   5.605   0.969 -0.2522 -0.2313  0.2973
17871SOL    HW154191   7.956   5.694   0.998 -0.4860 -0.4637  0.8547
17871SOL    HW254192   7.918   5.549   1.018  1.7773 -0.9292  2.1760
17872SOL     OW54193   9.886   7.979   7.227 -0.6164 -0.2626  0.2372
17872SOL    HW154194   9.806   8.031   7.229 -0.5463 -0.1781  1.9943
17872SOL    HW254195   9.864   7.899   7.275 -0.0114 -0.8120 -0.3773
17873SOL     OW54196   4.200   0.843   1.727  0.1264  0.1246 -0.4954
17873SOL    HW154197   4.115   0.806   1.703 -0.4235  0.8480  0.2948
17873SOL    HW254198   4.259   0.812   1.658  0.0187 -3.2593  0.7592
17874SOL     OW54199   5.156   4.573   2.295 -0.5100  0.0032  0.5159
17874SOL    HW154200   5.190   4.662   2.300 -0.4213 -0.0857  2.2734
17874SOL    HW254201   5.072   4.576   2.340 -1.4054 -0.4330 -1.0659
17875SOL     OW54202   6.602   3.154   8.689  0.1466  0.7801 -0.0962
17875SOL    HW154203   6.526   3.095   8.689  1.0801 -0.4757 -0.2711
17875SOL    HW254204   6.568   3.236   8.653 -0.8667 -0.1230 -1.3269
17876SOL     OW54205   2.194   2.457   3.505  0.2972  0.4747 -0.2635
17876SOL    HW154206   2.226   2.488   3.589  0.3095 -0.0728 -0.0638
17876SOL    HW254207   2.201   2.533   3.447 -0.0070  0.9385  0.3047
17877SOL     OW54208   2.102   5.576   4.715  1.0253  0.3368 -0.1952
17877SOL    HW154209   2.181   5.532   4.684  0.2967 -0.2286 -1.3241
17877SOL    HW254210   2.030   5.528   4.673 -0.1691 -1.3055  3.2957
17878SOL     OW54211   3.330   0.810   2.864  0.5512 -0.7915  1.0206
17878SOL    HW154212   3.350   0.828   2.956 -0.4801  2.3789  0.7356
17878SOL    HW254213   3.355   0.890   2.818 -0.7155 -1.5975 -1.2084
17879SOL     OW54214   0.650   5.986   2.476 -0.2252  0.2864  0.3339
17879SOL    HW154215   0.674   6.070   2.515  0.7637 -0.1967  0.7899
17879SOL    HW254216   0.669   5.921   2.544 -0.2277 -0.3879 -0.2971
17880SOL     OW54217   9.054   0.718   8.094  0.2378 -0.6458  0.1443
17880SOL    HW154218   9.035   0.794   8.150 -1.0426 -0.1303 -0.9388
17880SOL    HW254219   8.968   0.685   8.068  0.7962 -1.0765 -1.2467
17881SOL     OW54220   7.868   9.299   2.081  0.0463 -0.0871  0.3158
17881SOL    HW154221   7.792   9.242   2.093 -0.0816  0.2386  1.1213
17881SOL    HW254222   7.944   9.240   2.087 -0.1323 -0.4656 -0.8176
17882SOL     OW54223   3.293   2.626   7.329 -0.4021  0.0440  0.0396
17882SOL    HW154224   3.274   2.632   7.235 -1.1069  1.0341  0.2271
17882SOL    HW254225   3.322   2.535   7.342  1.8310  0.4516 -1.4893
17883SOL     OW54226   2.255   9.569   4.003 -0.6860 -0.1202 -0.1959
17883SOL    HW154227   2.260   9.648   4.057 -1.4326  1.4945 -2.3609
17883SOL    HW254228   2.161   9.553   3.992 -0.5408 -0.6269 -0.7456
17884SOL     OW54229   4.341   4.965   5.998 -0.3895 -0.4233 -0.1029
17884SOL    HW154230   4.373   4.948   5.909 -2.5905  0.3850 -1.1352
17884SOL    HW254231   4.335   5.061   6.003 -1.4863 -0.5095  0.4392
17885SOL     OW54232   9.232   2.915   7.172  0.1662 -0.1739 -0.2159
17885SOL    HW154233   9.149   2.960   7.191 -1.5316 -2.8125 -0.8937
17885SOL    HW254234   9.233   2.907   7.077  0.8582 -0.7664 -0.1622
17886SOL     OW54235   1.867   5.955   7.981 -0.4354 -0.3889 -0.0821
17886SOL    HW154236   1.952   5.998   7.973  0.2202 -1.2745  1.6453
17886SOL    HW254237   1.882   5.865   7.951 -1.3754  0.0563 -2.0232
17887SOL     OW54238   3.899   9.286   0.786 -0.4209 -0.8795  0.2606
17887SOL    HW154239   3.944   9.234   0.853 -0.6118 -0.5250  0.6720
17887SOL    HW254240   3.810   9.296   0.820 -0.1534  0.4729  0.6233
17888SOL     OW54241   5.153   1.858   6.582  0.4512  0.3645  0.0690
17888SOL    HW154242   5.152   1.903   6.667 -0.4583  0.5444 -0.0271
17888SOL    HW254243   5.202   1.778   6.599 -1.6946 -0.7596  1.3999
17889SOL     OW54244   2.795   1.392   6.918 -0.3615  0.3369 -0.3333
17889SOL    HW154245   2.701   1.391   6.904 -1.1748  1.6677  3.6767
17889SOL    HW254246   2.818   1.485   6.919 -0.0260  0.3436  3.2018
17890SOL     OW54247   0.489   5.848   9.903  0.5245  0.1206  0.1081
17890SOL    HW154248   0.499   5.754   9.895 -0.6236  0.0430 -0.6764
17890SOL    HW254249   0.395   5.863   9.901  0.6737  1.2657  0.4934
17891SOL     OW54250   3.441   5.364   9.928  0.3479  0.0437 -0.6865
17891SOL    HW154251   3.422   5.452   9.895  2.0779 -0.2840 -2.7485
17891SOL    HW254252   3.403   5.305   9.863 -0.9506 -0.8085  0.7634
17892SOL     OW54253   1.008   6.191   0.497  0.1483 -0.2767  0.1599
17892SOL    HW154254   1.024   6.256   0.565  0.4790 -1.2368  1.0270
17892SOL    HW254255   1.090   6.188   0.447 -0.3025  0.8757 -0.7128
17893SOL     OW54256   6.598   1.699   9.895  0.3335 -0.5937 -0.4160
17893SOL    HW154257   6.548   1.617   9.896 -0.0192 -0.3895  0.8639
17893SOL    HW254258   6.532   1.768   9.885  0.5386 -0.4131 -0.5448
17894SOL     OW54259   4.076   2.487   9.604  0.1718 -0.1965 -0.7876
17894SOL    HW154260   4.122   2.536   9.672  0.2051 -0.0496 -0.9134
17894SOL    HW254261   3.995   2.457   9.645 -1.3163  2.4574 -1.4735
17895SOL     OW54262   1.123   3.832   8.713  0.2086  0.5193  0.2093
17895SOL    HW154263   1.114   3.923   8.685  0.8818  0.4262 -0.3275
17895SOL    HW254264   1.078   3.829   8.797 -0.3464  1.2070 -0.0485
17896SOL     OW54265   9.731   8.306   4.547  0.3824  0.2454  0.2432
17896SOL    HW154266   9.785   8.273   4.619  1.0458 -0.0902 -0.3868
17896SOL    HW254267   9.645   8.319   4.586 -0.1069 -2.7602  0.4695
17897SOL     OW54268   9.129   2.181   7.526 -0.0192  0.1540 -0.4776
17897SOL    HW154269   9.065   2.122   7.486 -0.0936  1.3660 -2.2492
17897SOL    HW254270   9.177   2.217   7.452  0.6558  1.5997  0.6316
17898SOL     OW54271   1.047   6.422   0.654 -0.1355  0.3048  0.2551
17898SOL    HW154272   1.108   6.443   0.725  0.2958 -0.5504  0.1481
17898SOL    HW254273   1.008   6.506   0.630  0.9313  0.8448  0.3884
17899SOL     OW54274   4.624   8.877   7.898 -0.0212  0.1978  0.0105
17899SOL    HW154275   4.538   8.917   7.910  0.4275  1.5353 -0.9873
17899SOL    HW254276   4.630   8.860   7.804  1.6395  2.2175 -0.3243
17900SOL     OW54277   4.909   1.074   5.881  1.2848  0.7324  0.4256
17900SOL    HW154278   4.925   1.006   5.946  1.1933  1.4297  1.1983
17900SOL    HW254279   4.823   1.053   5.844  2.2334 -0.8792 -1.0297
17901SOL     OW54280   0.132   8.866   6.913  0.1972  0.2460 -0.5532
17901SOL    HW154281   0.093   8.779   6.908  2.2370 -0.7381 -0.1860
17901SOL    HW254282   0.148   8.880   7.007  1.8780  0.0533 -0.7856
17902SOL     OW54283   5.455   7.928   7.835 -0.2471  0.2398  0.1291
17902SOL    HW154284   5.365   7.909   7.861  0.2306 -2.5518  0.0525
17902SOL    HW254285   5.456   7.919   7.740  0.2731 -0.6012  0.2072
17903SOL     OW54286   6.190   1.804   3.868 -0.2581  0.4335  0.3213
17903SOL    HW154287   6.274   1.812   3.914 -0.2819 -1.0847  0.6767
17903SOL    HW254288   6.214   1.794   3.776 -0.0649  0.2187  0.3947
17904SOL     OW54289   1.060   8.357   4.463  0.5708 -0.6137 -0.1479
17904SOL    HW154290   1.031   8.448   4.455 -1.5332 -1.2464 -0.3170
17904SOL    HW254291   1.152   8.359   4.437 -0.4238  0.8414 -4.4085
17905SOL     OW54292   7.480   7.071   2.016 -0.0893  0.2390 -0.3262
17905SOL    HW154293   7.385   7.067   2.003 -0.2474  2.9051 -0.4271
17905SOL    HW254294   7.498   7.162   2.039  2.3878 -0.3446  0.3795
17906SOL     OW54295   1.416   8.173   6.374 -0.2235  0.4727 -0.1098
17906SOL    HW154296   1.414   8.264   6.403 -0.4434  0.7727 -1.0375
17906SOL    HW254297   1.327   8.141   6.387 -0.4663  0.7798 -0.9710
17907SOL     OW54298   6.727   0.062   8.224 -0.2630 -0.5308  0.2071
17907SOL    HW154299   6.807   0.083   8.272  0.0684 -3.0849  0.9519
17907SOL    HW254300   6.739   0.102   8.138  1.4938 -0.2402  0.5558
17908SOL     OW54301   4.925   1.332   2.848 -0.2458  0.4267 -0.0621
17908SOL    HW154302   4.855   1.310   2.909  0.8000  2.5852  2.0600
17908SOL    HW254303   4.993   1.267   2.864 -0.0604  0.8572  0.9890
17909SOL     OW54304   0.465   2.424   6.821  0.5129 -0.7805 -0.4450
17909SOL    HW154305   0.469   2.506   6.772  0.4738 -1.2081 -1.1831
17909SOL    HW254306   0.406   2.442   6.894  1.7100  0.2902  0.2976
17910SOL     OW54307   7.692   1.464   2.898 -0.2461  0.0017  0.4869
17910SOL    HW154308   7.751   1.510   2.957  1.8219 -0.2252 -1.2626
17910SOL    HW254309   7.694   1.516   2.817 -2.0530 -0.3251  0.1780
17911SOL     OW54310   4.506   1.628   6.722 -0.0528  0.5390  0.2412
17911SOL    HW154311   4.474   1.680   6.648  0.9624 -0.6470 -1.1089
17911SOL    HW254312   4.458   1.546   6.716  0.0417  0.4301  0.9136
17912SOL     OW54313   6.310   2.649   4.248 -0.1362  0.2657  0.7181
17912SOL    HW154314   6.299   2.555   4.257  0.6577  0.1688  0.7863
17912SOL    HW254315   6.299   2.666   4.154  2.7468 -0.3642  0.1727
17913SOL     OW54316   9.254   2.409   6.189  0.4872 -0.2653 -0.1899
17913SOL    HW154317   9.276   2.502   6.184  0.2178 -0.2056 -0.3199
17913SOL    HW254318   9.332   2.364   6.159 -0.1478 -0.0054 -2.4196
17914SOL     OW54319   5.504   6.958   2.457  0.7903  0.0284 -0.0505
17914SOL    HW154320   5.426   6.903   2.445  2.0020 -1.6042 -0.8304
17914SOL    HW254321   5.543   6.964   2.370  2.8780 -1.3024  0.7252
17915SOL     OW54322   3.164   2.510   2.067 -0.5268 -0.0459 -0.0227
17915SOL    HW154323   3.209   2.427   2.050 -0.5865 -0.0447 -0.1871
17915SOL    HW254324   3.105   2.522   1.992  0.7704  1.0362 -0.9130
17916SOL     OW54325   5.174   9.934   4.721  0.3301  0.3426  0.4211
17916SOL    HW154326   5.185   9.983   4.639 -0.5737  0.4646  0.3651
17916SOL    HW254327   5.099   9.975   4.764 -0.0209 -0.5647  0.6965
17917SOL     OW54328   0.966   7.234   2.243  0.4112  0.4360  0.0664
17917SOL    HW154329   0.929   7.216   2.156 -0.4564  1.0678  0.2984
17917SOL    HW254330   1.030   7.163   2.257  0.2922  0.1227 -0.9254
17918SOL     OW54331   4.304   4.154   8.945  0.1697  0.1132 -0.1012
17918SOL    HW154332   4.284   4.062   8.926  0.7410 -0.3980  1.6195
17918SOL    HW254333   4.218   4.195   8.957 -0.0655 -0.2923 -0.3849
17919SOL     OW54334   4.849   5.371   8.802 -0.4976  0.0169  0.3345
17919SOL    HW154335   4.855   5.434   8.731 -1.5879 -2.7646 -2.4312
17919SOL    HW254336   4.921   5.310   8.786 -0.4054 -0.3665  2.0224
17920SOL     OW54337   2.260   9.441   6.065  0.0429  0.0506 -0.2503
17920SOL    HW154338   2.232   9.367   6.010  1.0498 -1.1211  0.7628
17920SOL    HW254339   2.354   9.448   6.051  0.0830  0.6362  0.2659
17921SOL     OW54340   6.375   7.320   9.282 -0.2024  0.4822 -0.0460
17921SOL    HW154341   6.311   7.364   9.339  1.4870  1.2114  1.3987
17921SOL    HW254342   6.331   7.312   9.198 -2.0344  1.3223  0.7732
17922SOL     OW54343   1.572   4.825   8.851  0.2173 -0.3858 -0.4139
17922SOL    HW154344   1.508   4.859   8.913 -0.0631  0.3679 -1.1005
17922SOL    HW254345   1.618   4.902   8.819  0.3070 -0.7458 -1.1946
17923SOL     OW54346   6.712   4.055   1.432  0.4013 -0.3672 -0.4585
17923SOL    HW154347   6.669   4.038   1.348 -0.1775 -1.5884  0.0717
17923SOL    HW254348   6.727   3.968   1.470  0.1571  0.1817  0.9522
17924SOL     OW54349   4.937   3.929   7.552 -0.0176 -0.6372  0.3486
17924SOL    HW154350   5.008   3.903   7.494 -0.8144 -1.3745 -0.3145
17924SOL    HW254351   4.979   3.985   7.618  0.8009  0.8378 -1.3424
17925SOL     OW54352   1.674   9.352   0.916 -0.5338  0.8149  0.0278
17925SOL    HW154353   1.599   9.296   0.893 -0.5635  0.9611 -0.2443
17925SOL    HW254354   1.665   9.428   0.858  0.1266  0.5811 -0.4000
17926SOL     OW54355   4.774   9.036   9.824 -0.8548 -0.1529 -0.0660
17926SOL    HW154356   4.780   8.944   9.797 -1.0374 -0.4838  0.9888
17926SOL    HW254357   4.830   9.082   9.762 -0.4987 -1.0181 -0.4101
17927SOL     OW54358   0.968   2.263   8.466  0.2987 -0.4501  0.7645
17927SOL    HW154359   0.918   2.272   8.385 -0.5320 -0.9986  1.2048
17927SOL    HW254360   1.057   2.290   8.442 -0.1537  0.3606 -0.0755
17928SOL     OW54361   5.511   0.182   7.575 -0.0454  0.3070 -0.0129
17928SOL    HW154362   5.564   0.176   7.496  0.4214  1.3466  0.2039
17928SOL    HW254363   5.433   0.230   7.549 -0.0756  0.2961  0.0565
17929SOL     OW54364   8.777   5.346   5.623 -0.3662  0.3906 -0.3216
17929SOL    HW154365   8.709   5.411   5.606  1.1381  1.5333 -2.5867
17929SOL    HW254366   8.830   5.347   5.543  1.4251 -1.5275  0.7654
17930SOL     OW54367  10.001   3.261   6.266 -0.0887  0.0270  0.0974
17930SOL    HW154368  10.022   3.354   6.262  0.4549 -0.0629  0.6281
17930SOL    HW254369   9.906   3.258   6.278 -0.6005  0.4430 -3.0840
17931SOL     OW54370   7.566   5.741   8.879  0.4061  0.3686  0.4579
17931SOL    HW154371   7.530   5.684   8.812  1.5247 -0.0104  0.1494
17931SOL    HW254372   7.661   5.739   8.864  0.4779  2.4951  0.2950
17932SOL     OW54373   8.434   8.362   0.498 -0.0418 -0.5504 -0.0912
17932SOL    HW154374   8.339   8.359   0.493 -0.0765  0.1200  0.0970
17932SOL    HW254375   8.463   8.302   0.429 -0.5976 -1.2645  0.2903
17933SOL     OW54376   2.788   1.574   1.189 -0.2633 -0.6306  0.2222
17933SOL    HW154377   2.695   1.561   1.209 -0.2365  0.0098  0.7937
17933SOL    HW254378   2.810   1.658   1.229  0.0305  0.3174 -1.7976
17934SOL     OW54379   2.805   9.477   4.159  0.4486 -0.0027  0.4882
17934SOL    HW154380   2.835   9.534   4.088  1.8146  0.5601  1.4809
17934SOL    HW254381   2.783   9.394   4.115  3.5252 -0.4753 -0.3637
17935SOL     OW54382   0.803   6.907   0.447 -0.0657 -0.3327 -0.2261
17935SOL    HW154383   0.813   6.910   0.542  0.2056 -2.1732 -0.1707
17935SOL    HW254384   0.730   6.847   0.432 -0.5082  0.4173 -1.1678
17936SOL     OW54385   1.895   0.887   0.326 -0.0656 -0.1139 -0.3371
17936SOL    HW154386   1.881   0.923   0.414 -0.3113 -0.5599 -0.1897
17936SOL    HW254387   1.810   0.897   0.282  0.2994  0.9123 -0.8227
17937SOL     OW54388   9.916   4.829   1.976 -0.0787 -0.0801 -0.1904
17937SOL    HW154389   9.982   4.897   1.960 -2.3848  2.5344  0.6025
17937SOL    HW254390   9.871   4.858   2.055 -1.2634 -2.5549  0.1442
17938SOL     OW54391   5.411   2.179   1.359 -0.0987  0.0564 -0.1316
17938SOL    HW154392   5.400   2.260   1.309 -0.9545 -0.0465 -0.1246
17938SOL    HW254393   5.369   2.198   1.443  2.2269  0.5979  0.9914
17939SOL     OW54394   5.920   5.343   0.134  0.5028 -0.4355 -0.4777
17939SOL    HW154395   5.832   5.338   0.172  0.4302 -1.3395 -0.7368
17939SOL    HW254396   5.952   5.430   0.157 -1.0943  0.5457 -1.7414
17940SOL     OW54397   3.079   2.899   5.744  0.2762  0.6208  0.0828
17940SOL    HW154398   3.044   2.844   5.813  1.9625  2.0714  2.2104
17940SOL    HW254399   3.156   2.852   5.712  2.1891  1.9206  2.4450
17941SOL     OW54400   1.892   8.739   6.371  0.0502  0.2929 -0.0138
17941SOL    HW154401   1.983   8.744   6.341  0.0833  0.7332  0.1508
17941SOL    HW254402   1.866   8.831   6.382 -0.9529  0.2547 -1.6769
17942SOL     OW54403   4.309   6.034   5.206  0.3956 -0.1827  0.3923
17942SOL    HW154404   4.364   6.099   5.162  0.6257 -0.4030  0.3522
17942SOL    HW254405   4.371   5.971   5.243  0.1743 -0.3888  0.4169
17943SOL     OW54406   5.973   5.890   6.477  0.6275 -0.4416  0.8841
17943SOL    HW154407   5.983   5.832   6.401  0.5925 -0.4792  0.9086
17943SOL    HW254408   5.896   5.943   6.457 -0.0656 -1.2301  1.4015
17944SOL     OW54409   1.208   9.755   5.610 -0.4391  0.5796 -0.2124
17944SOL    HW154410   1.132   9.813   5.621 -1.3942 -0.8248  0.8333
17944SOL    HW254411   1.199   9.689   5.678  2.1467  0.7726  0.4140
17945SOL     OW54412   3.199   8.426   1.931 -0.2907 -0.2044  0.4412
17945SOL    HW154413   3.162   8.420   1.843  1.6072 -2.6110 -0.3063
17945SOL    HW254414   3.139   8.374   1.985  0.2537 -1.4390 -0.1154
17946SOL     OW54415   5.749   7.442   4.981  0.8340  0.1550  0.0281
17946SOL    HW154416   5.759   7.508   5.050  1.1678  0.6183 -0.4551
17946SOL    HW254417   5.709   7.367   5.025 -0.0353  0.8644  0.4756
17947SOL     OW54418   7.262   9.225   8.126  0.8234  0.1525  0.2447
17947SOL    HW154419   7.258   9.205   8.220  0.0859  2.1634  0.6803
17947SOL    HW254420   7.178   9.194   8.092 -0.0931  1.8674  0.8177
17948SOL     OW54421   3.731   3.554   3.856 -0.6377  0.1783  0.0701
17948SOL    HW154422   3.795   3.584   3.919 -0.8610  0.7335  0.0357
17948SOL    HW254423   3.656   3.526   3.909  0.4598 -2.6754  0.2804
17949SOL     OW54424   7.599   3.449   0.954 -0.3046 -0.2817 -0.1811
17949SOL    HW154425   7.568   3.526   0.906  0.5373 -0.0379 -0.3672
17949SOL    HW254426   7.523   3.418   1.002 -0.6468  0.7113 -0.0506
17950SOL     OW54427   0.376   9.166   9.850 -0.4552 -0.4310  0.0386
17950SOL    HW154428   0.319   9.179   9.926  0.2395  0.3273  0.4486
17950SOL    HW254429   0.317   9.159   9.776 -1.1885 -1.7908  0.7111
17951SOL     OW54430   9.493   6.768   4.069 -0.1863 -0.0719 -0.5915
17951SOL    HW154431   9.585   6.744   4.071 -0.0167  0.5801  0.2775
17951SOL    HW254432   9.452   6.702   4.013  0.8970 -0.0270 -1.4881
17952SOL     OW54433   3.408   2.061   4.696 -0.2061 -0.5624  1.0163
17952SOL    HW154434   3.376   2.125   4.760  0.6098 -1.5931  2.5102
17952SOL    HW254435   3.444   2.114   4.625  0.1636  0.6381  2.0724
17953SOL     OW54436   1.139   8.572   9.834  0.1257  0.1770  1.2029
17953SOL    HW154437   1.064   8.518   9.857  0.5587 -0.4546  1.1687
17953SOL    HW254438   1.215   8.516   9.852  0.6926  1.4322  2.9698
17954SOL     OW54439   0.415   9.250   1.421 -0.1426 -0.2800  0.0670
17954SOL    HW154440   0.373   9.308   1.484  0.7617  1.5900 -0.9477
17954SOL    HW254441   0.347   9.228   1.358 -0.2870  0.4477 -0.0369
17955SOL     OW54442   5.287   2.823   2.687  0.3615 -0.3142 -0.1819
17955SOL    HW154443   5.228   2.808   2.613  1.0862  1.8657 -1.2706
17955SOL    HW254444   5.252   2.900   2.731  2.7813  1.6246 -1.3999
17956SOL     OW54445   7.567   5.546   5.022 -0.1013 -0.6669  0.3162
17956SOL    HW154446   7.510   5.620   5.043 -0.2537 -0.3547 -1.0705
17956SOL    HW254447   7.521   5.469   5.055  0.1317 -0.1561  1.9200
17957SOL     OW54448   6.776   6.823   3.624 -0.0899  0.0292  0.1408
17957SOL    HW154449   6.736   6.744   3.587 -2.1033  0.6336  0.8950
17957SOL    HW254450   6.834   6.790   3.692 -2.0613 -0.8212  1.5125
17958SOL     OW54451   7.589   2.617   0.574 -0.7379 -0.3769  0.7667
17958SOL    HW154452   7.567   2.591   0.484  2.1039 -2.2864  0.4664
17958SOL    HW254453   7.530   2.565   0.628 -1.1757 -0.6719  0.0328
17959SOL     OW54454   5.607   1.126   3.930 -0.2740 -0.2514 -0.6855
17959SOL    HW154455   5.693   1.147   3.894  0.1416 -1.4040 -0.4065
17959SOL    HW254456   5.598   1.183   4.006  0.5761 -0.6454 -0.2743
17960SOL     OW54457   9.134   0.889   0.772 -0.0154 -0.0542  0.4237
17960SOL    HW154458   9.046   0.855   0.752  0.0081 -1.1217  2.0245
17960SOL    HW254459   9.187   0.811   0.787  0.8056  0.6161  1.0790
17961SOL     OW54460   3.313   8.919   2.624  0.3941  0.0972 -0.0147
17961SOL    HW154461   3.238   8.923   2.565  1.3243 -0.1639 -1.2541
17961SOL    HW254462   3.387   8.895   2.568  1.4522  0.5612  1.1258
17962SOL     OW54463   2.836   0.390   8.445 -0.0699  0.6665  0.0818
17962SOL    HW154464   2.919   0.393   8.491  2.0413 -0.6061 -3.2957
17962SOL    HW254465   2.789   0.316   8.483  0.9340  0.5314  1.0920
17963SOL     OW54466   7.506   8.133   8.063 -0.0098 -0.4340  0.6367
17963SOL    HW154467   7.526   8.202   8.000  1.3108 -0.9704  0.4390
17963SOL    HW254468   7.464   8.064   8.012  0.2774 -0.5070  0.4951
17964SOL     OW54469   8.076   6.566   2.610 -0.3461 -0.1960  0.4345
17964SOL    HW154470   8.014   6.515   2.663 -0.2512 -1.6310 -0.7709
17964SOL    HW254471   8.022   6.612   2.547 -0.2396 -1.3402 -0.5280
17965SOL     OW54472   4.175   3.275   1.421  0.0143  0.0719 -0.0682
17965SOL    HW154473   4.082   3.265   1.401  0.3231 -1.5602 -0.8731
17965SOL    HW254474   4.194   3.367   1.400 -1.6246  0.7557  1.1825
17966SOL     OW54475   6.936   9.739   9.874 -0.1560 -0.2455  0.5724
17966SOL    HW154476   6.891   9.819   9.847  0.8597  0.1862  0.1055
17966SOL    HW254477   7.022   9.768   9.903  0.0419 -1.1123  0.9029
17967SOL     OW54478   5.175   4.037   6.868  0.2996  0.0608 -0.2298
17967SOL    HW154479   5.165   3.947   6.896  2.8237 -1.0066 -2.3282
17967SOL    HW254480   5.091   4.061   6.830 -0.0731 -1.7882 -0.6175
17968SOL     OW54481   5.990   9.748   5.895 -0.3253  0.2776  0.3900
17968SOL    HW154482   6.045   9.670   5.888 -0.5603  0.1579 -0.1527
17968SOL    HW254483   5.900   9.716   5.887 -0.5034  0.4485  1.4809
17969SOL     OW54484   7.519   1.254   9.294 -0.2713  0.1557  0.0904
17969SOL    HW154485   7.471   1.191   9.239 -0.5382  0.4556 -0.0211
17969SOL    HW254486   7.493   1.340   9.261  0.8331  0.3248 -0.3926
17970SOL     OW54487   4.765   5.329   3.757  0.3170  0.1035 -0.0321
17970SOL    HW154488   4.785   5.295   3.669 -0.1170 -0.9572  0.2573
17970SOL    HW254489   4.830   5.398   3.771  0.2503  0.4460 -1.2763
17971SOL     OW54490   1.626   8.854   7.698 -0.6556 -1.0234  0.0610
17971SOL    HW154491   1.604   8.928   7.641 -0.5571 -1.4397 -0.5249
17971SOL    HW254492   1.716   8.871   7.725 -0.9907 -0.3816  0.7932
17972SOL     OW54493   6.778   7.087   9.899 -0.3473  0.1891  0.2738
17972SOL    HW154494   6.732   7.029   9.961 -1.0908  0.0266 -0.4073
17972SOL    HW254495   6.849   7.126   9.950 -0.0637 -1.0383  0.8436
17973SOL     OW54496   6.568   7.768   6.348 -0.1816  0.7021  0.0276
17973SOL    HW154497   6.577   7.827   6.272 -1.1473 -2.1333 -2.5005
17973SOL    HW254498   6.474   7.765   6.364 -0.0321  0.7735  0.9277
17974SOL     OW54499   1.867   4.680   4.405 -0.2016 -0.2069 -0.3527
17974SOL    HW154500   1.871   4.717   4.493  1.3688 -0.6450 -0.1990
17974SOL    HW254501   1.852   4.755   4.348 -0.0332  0.2491  0.1929
17975SOL     OW54502   9.043   7.362   0.304 -0.1147 -0.6489 -0.5229
17975SOL    HW154503   8.957   7.326   0.283 -1.0062 -0.5609  2.5336
17975SOL    HW254504   9.086   7.295   0.357  0.8934  0.1128 -0.3378
17976SOL     OW54505   1.192   6.701   1.094  0.1445  0.1806 -0.1497
17976SOL    HW154506   1.272   6.649   1.103 -1.6967 -3.3539 -1.8836
17976SOL    HW254507   1.128   6.658   1.151 -1.1120  1.5716 -0.4330
17977SOL     OW54508   1.793   7.459   2.776 -0.4148  0.2513  0.0088
17977SOL    HW154509   1.865   7.457   2.840  0.4880 -0.3565 -1.0041
17977SOL    HW254510   1.798   7.374   2.732 -1.3629  0.4614 -0.5184
17978SOL     OW54511   7.082   3.539   9.128  0.3909  0.3832  0.2925
17978SOL    HW154512   7.051   3.570   9.043 -1.5685  1.0454  1.1841
17978SOL    HW254513   7.039   3.454   9.139  3.6909 -1.6353 -0.9935
17979SOL     OW54514   4.511   8.832   5.408  0.1290 -0.7289  0.3570
17979SOL    HW154515   4.595   8.876   5.418 -0.5260  0.3383  1.2679
17979SOL    HW254516   4.456   8.868   5.477 -2.0576  0.9093 -2.0511
17980SOL     OW54517   1.921   7.374   5.223  0.4416  0.0048  0.1528
17980SOL    HW154518   1.867   7.428   5.166 -0.1672  1.7981  2.3114
17980SOL    HW254519   1.866   7.298   5.242  0.0783  0.1061 -0.4448
17981SOL     OW54520   8.272   6.694   1.186  0.4987  0.6641 -0.4667
17981SOL    HW154521   8.280   6.620   1.126 -0.6211 -0.7121  1.0089
17981SOL    HW254522   8.196   6.742   1.155  0.2880  0.3033 -0.5142
17982SOL     OW54523   1.604   9.612   9.670 -0.1257 -0.1613 -0.1535
17982SOL    HW154524   1.647   9.529   9.690 -1.6190 -0.2437  3.6035
17982SOL    HW254525   1.510   9.592   9.674 -0.5201  1.4583 -0.4660
17983SOL     OW54526   0.257   8.578   0.799 -0.1294 -0.1796 -0.5871
17983SOL    HW154527   0.314   8.547   0.870 -0.2188  0.4228 -0.2405
17983SOL    HW254528   0.246   8.671   0.817 -0.2856 -0.0548 -1.3121
17984SOL     OW54529   9.008   8.141   0.949  0.2518 -0.3988  0.5408
17984SOL    HW154530   8.984   8.064   1.001 -0.7457 -0.8434 -0.5153
17984SOL    HW254531   8.924   8.182   0.928  0.3094 -1.6688 -2.8173
17985SOL     OW54532   3.855   2.639   0.194  0.1275  0.5731  0.2314
17985SOL    HW154533   3.793   2.682   0.254  0.3104  1.6597 -0.3323
17985SOL    HW254534   3.931   2.619   0.249  0.1004  1.1151  0.4763
17986SOL     OW54535   6.739   9.846   0.487  0.2123  0.5395  0.2171
17986SOL    HW154536   6.685   9.910   0.533  0.8584  0.2410  1.4465
17986SOL    HW254537   6.720   9.860   0.394 -0.1696  2.0373  0.4984
17987SOL     OW54538   9.006   7.318   9.600 -0.1426 -0.3239 -0.2531
17987SOL    HW154539   8.996   7.327   9.695  0.1545  1.6855 -0.3656
17987SOL    HW254540   8.997   7.224   9.584  0.4452 -0.7946  1.8338
17988SOL     OW54541   3.388   6.339   4.991  0.0408  0.0979  0.3426
17988SOL    HW154542   3.474   6.336   5.033 -0.8784  1.8703  2.5505
17988SOL    HW254543   3.337   6.272   5.035 -0.4446  0.8316  0.9238
17989SOL     OW54544   1.934   8.614   1.862  0.4508 -0.1861  0.7905
17989SOL    HW154545   2.026   8.601   1.886  0.7542 -1.6029 -0.9888
17989SOL    HW254546   1.914   8.542   1.803 -0.8010  1.9590 -1.6137
17990SOL     OW54547   7.286   4.076   3.183 -0.0051 -1.0115 -0.1416
17990SOL    HW154548   7.207   4.079   3.238 -0.0816  1.0842 -0.2812
17990SOL    HW254549   7.253   4.054   3.096 -0.5316  0.2871 -0.2964
17991SOL     OW54550   3.397   7.991   4.279  0.3517  0.1091  0.3710
17991SOL    HW154551   3.345   7.970   4.357  0.0955 -0.0340  0.1631
17991SOL    HW254552   3.463   7.922   4.274 -1.6124 -1.8126 -1.3532
17992SOL     OW54553   6.605   5.815   3.710 -0.3438 -0.1174  0.3118
17992SOL    HW154554   6.623   5.729   3.673  0.5113 -0.4546  1.4498
17992SOL    HW254555   6.533   5.850   3.657  0.1729 -0.9722 -0.9963
17993SOL     OW54556   1.197   8.060   7.816 -0.3256 -0.0208  0.2302
17993SOL    HW154557   1.286   8.031   7.795 -0.5066 -0.0904 -0.4660
17993SOL    HW254558   1.141   8.011   7.756 -0.9001 -0.4685  1.1101
17994SOL     OW54559   4.383   5.412   6.972 -0.0110  0.1648  0.4483
17994SOL    HW154560   4.359   5.421   6.879 -0.0497  1.9925  0.5893
17994SOL    HW254561   4.299   5.414   7.019  0.1014  1.6298  0.6377
17995SOL     OW54562   5.228   4.851   0.416  0.1363  0.0690 -0.1111
17995SOL    HW154563   5.268   4.768   0.390 -0.7940  0.3195 -2.6723
17995SOL    HW254564   5.137   4.829   0.435  0.2512  0.2836  0.7224
17996SOL     OW54565   2.410   0.053   9.356 -0.3426  0.2961 -0.5661
17996SOL    HW154566   2.395   0.140   9.319  0.2529  0.1877 -1.0799
17996SOL    HW254567   2.348  -0.004   9.309  0.2498  0.2002 -1.2493
17997SOL     OW54568   2.563   4.179   3.493  0.4671 -0.1965 -0.6259
17997SOL    HW154569   2.588   4.159   3.403 -0.0186 -0.8272 -0.6253
17997SOL    HW254570   2.637   4.151   3.546  0.9591  0.6188 -0.8589
17998SOL     OW54571   1.261   3.063   6.849  0.3194  0.2526 -0.3778
17998SOL    HW154572   1.260   3.159   6.850  0.3292  0.3098 -2.3502
17998SOL    HW254573   1.175   3.039   6.815  0.6058 -0.3954 -0.6516
17999SOL     OW54574   7.852   3.342   9.921 -0.2209  0.1518 -0.1269
17999SOL    HW154575   7.857   3.406   9.850  1.7302  0.0346 -0.1386
17999SOL    HW254576   7.878   3.259   9.881 -1.3511 -0.3810  0.2148
18000SOL     OW54577   6.978   2.425   0.560  0.8379  0.6957 -0.2714
18000SOL    HW154578   6.962   2.409   0.653  0.2730 -0.4635 -0.5408
18000SOL    HW254579   6.975   2.520   0.551  3.0534  0.9806  1.2502
18001SOL     OW54580   1.267   8.234   8.360 -0.3483 -0.0738 -0.2435
18001SOL    HW154581   1.330   8.306   8.351 -0.6857  0.1359 -0.9857
18001SOL    HW254582   1.284   8.178   8.284  0.6468 -1.3743  0.8998
18002SOL     OW54583   9.815   0.526   8.537  0.4903  0.5442 -0.2493
18002SOL    HW154584   9.736   0.550   8.586  0.9124  1.5900 -0.0467
18002SOL    HW254585   9.842   0.608   8.495  1.6716  0.2945 -0.0126
18003SOL     OW54586   1.768   9.687   7.728 -0.3161  0.3937 -0.0082
18003SOL    HW154587   1.681   9.727   7.720  0.0791  1.2885  0.0374
18003SOL    HW254588   1.814   9.743   7.790  0.8992  1.0152 -1.4189
18004SOL     OW54589   1.079   4.094   3.166  0.4872  0.4351 -0.4433
18004SOL    HW154590   1.140   4.112   3.237 -0.7260  2.3248  0.1831
18004SOL    HW254591   1.045   4.180   3.141 -0.2863 -0.3491 -2.2647
18005SOL     OW54592   2.688   8.998   8.510 -0.1740 -0.0907 -0.2010
18005SOL    HW154593   2.623   8.942   8.468  0.2589 -1.2309  0.6070
18005SOL    HW254594   2.749   8.938   8.551 -0.8613  0.9027  2.5080
18006SOL     OW54595   2.350   1.319   4.113  0.6645  0.0024  0.2841
18006SOL    HW154596   2.321   1.229   4.126  1.1202 -0.0921  0.6764
18006SOL    HW254597   2.440   1.311   4.082  0.3097  0.2944 -0.8387
18007SOL     OW54598   0.780   7.916   1.458  0.3310 -0.0465  0.4187
18007SOL    HW154599   0.693   7.956   1.454 -1.3016 -3.2074  1.0243
18007SOL    HW254600   0.808   7.928   1.548 -0.5767 -0.9488  0.8508
18008SOL     OW54601   5.536   0.204   0.909 -0.4428  0.5122  0.4351
18008SOL    HW154602   5.561   0.193   1.001  0.4499 -2.3290 -0.0410
18008SOL    HW254603   5.493   0.122   0.886  1.5598  0.0803 -2.3017
18009SOL     OW54604   9.149   5.480   7.973  0.1359 -0.4247 -0.0940
18009SOL    HW154605   9.196   5.489   7.890  2.1625 -0.5466  0.9708
18009SOL    HW254606   9.059   5.459   7.947  0.3025  1.1769 -2.2687
18010SOL     OW54607   0.906   3.350   3.229 -0.6270  0.2545 -0.0610
18010SOL    HW154608   0.842   3.281   3.216 -0.2855 -0.1420  0.3090
18010SOL    HW254609   0.903   3.368   3.323 -0.2243  0.2567 -0.0459
18011SOL     OW54610   6.929   8.672   4.258 -0.4316  0.6100 -0.0306
18011SOL    HW154611   7.017   8.639   4.244 -0.5995 -0.7208  1.6560
18011SOL    HW254612   6.886   8.665   4.173  0.0146 -2.1863 -0.1136
18012SOL     OW54613   3.906   0.172   4.849 -1.1517 -0.0104 -0.4747
18012SOL    HW154614   3.989   0.129   4.872 -1.0051  0.4323 -0.1646
18012SOL    HW254615   3.903   0.250   4.905 -3.2400 -1.6100  1.8101
18013SOL     OW54616   8.751   8.825   3.539 -0.1426 -1.1325 -0.3802
18013SOL    HW154617   8.820   8.868   3.488  0.5315 -0.6244  0.9125
18013SOL    HW254618   8.672   8.835   3.485 -0.0061  1.6395 -0.2217
18014SOL     OW54619   6.484   0.832   4.496 -0.0221  0.0935 -0.3378
18014SOL    HW154620   6.414   0.869   4.550 -0.1275 -0.3336 -0.1849
18014SOL    HW254621   6.449   0.750   4.463  1.0536 -1.0481  1.2283
18015SOL     OW54622   2.533   3.602   5.181 -0.3301  0.2225  0.3022
18015SOL    HW154623   2.562   3.575   5.094 -0.3413  1.1236  0.0064
18015SOL    HW254624   2.449   3.559   5.193 -0.3463  0.1237 -0.1578
18016SOL     OW54625   7.070   0.362   7.669  0.0215  0.4355 -0.1880
18016SOL    HW154626   7.058   0.305   7.594  1.9710  1.5380 -1.4132
18016SOL    HW254627   7.164   0.377   7.674 -0.0131  0.2467  2.6286
18017SOL     OW54628   9.759   3.715   5.338  0.4550  0.1594  0.0490
18017SOL    HW154629   9.716   3.782   5.286  0.9815  1.8206  1.6376
18017SOL    HW254630   9.832   3.684   5.284 -0.6000 -0.1518 -1.2381
18018SOL     OW54631   7.641   3.412   9.498  0.0460  0.3213 -0.0801
18018SOL    HW154632   7.722   3.416   9.549 -0.2585  0.2019  0.4158
18018SOL    HW254633   7.659   3.467   9.422  1.4619 -1.5543 -1.2077
18019SOL     OW54634   7.022   0.690   7.399  0.1454  0.1787  0.7261
18019SOL    HW154635   7.098   0.632   7.406 -0.5983 -0.7974  1.0186
18019SOL    HW254636   7.047   0.755   7.334  0.1171 -2.0040 -1.6721
18020SOL     OW54637   4.137   4.786   4.220  0.1783  0.0110 -0.7236
18020SOL    HW154638   4.179   4.781   4.134  0.0186 -0.7243 -0.7620
18020SOL    HW254639   4.072   4.717   4.219  0.0795  0.0861 -0.0539
18021SOL     OW54640   2.490   3.083   3.254  0.7162  0.3263  0.2406
18021SOL    HW154641   2.428   3.141   3.299  2.3394  1.7966  0.6979
18021SOL    HW254642   2.488   3.112   3.163 -0.3321 -0.6453 -0.0783
18022SOL     OW54643   1.386   1.512   3.134 -0.5127 -0.2032  0.3885
18022SOL    HW154644   1.476   1.493   3.161 -1.1997 -2.7693  1.1480
18022SOL    HW254645   1.376   1.470   3.049 -1.5541 -1.9092  1.2842
18023SOL     OW54646   5.179   4.411   1.095 -0.7553  0.9077 -0.5386
18023SOL    HW154647   5.248   4.375   1.040  0.1353  0.5786  0.7520
18023SOL    HW254648   5.215   4.493   1.129 -0.9530  0.6830  0.2345
18024SOL     OW54649   5.969   2.725   8.363  0.0307  0.2023  0.2835
18024SOL    HW154650   5.946   2.695   8.275 -0.0091  0.7087  0.1158
18024SOL    HW254651   5.939   2.654   8.421  0.8459 -0.5295 -0.1708
18025SOL     OW54652   1.305   6.160   5.750  0.3651  0.3617  0.4355
18025SOL    HW154653   1.337   6.153   5.840 -0.5769 -0.2249  0.7399
18025SOL    HW254654   1.287   6.253   5.737  3.7198  1.0588 -0.3274
18026SOL     OW54655   3.174   0.092   7.810 -0.4943 -0.1888 -0.2067
18026SOL    HW154656   3.154   0.186   7.803  2.0368  0.3394 -1.6038
18026SOL    HW254657   3.255   0.089   7.860 -0.3808 -1.6380 -0.4538
18027SOL     OW54658   7.322   3.816   4.406 -0.0735  0.1190  0.9193
18027SOL    HW154659   7.260   3.888   4.421  1.1502  1.9018 -1.8440
18027SOL    HW254660   7.266   3.740   4.386 -1.4462  1.5626 -1.1323
18028SOL     OW54661   8.819   8.536   3.206 -0.0786 -0.5604 -1.0373
18028SOL    HW154662   8.859   8.454   3.237  1.1249  0.2326 -0.3923
18028SOL    HW254663   8.875   8.604   3.242 -2.2464  0.6521  0.2303
18029SOL     OW54664   8.979   5.580   6.057  0.2945  0.4793 -0.1922
18029SOL    HW154665   8.902   5.586   6.001  0.1266 -0.9196 -0.1489
18029SOL    HW254666   8.953   5.520   6.127  0.5521  2.0602  1.3185
18030SOL     OW54667   0.676   8.906   4.201 -0.0618  0.2308 -0.7178
18030SOL    HW154668   0.680   9.001   4.198  1.2168  0.2717  1.0063
18030SOL    HW254669   0.628   8.886   4.281  0.5052 -0.5610 -0.5612
18031SOL     OW54670   9.066   3.189   4.882  0.3290  0.1291  0.1938
18031SOL    HW154671   9.084   3.098   4.908  0.5550  0.3901  0.9834
18031SOL    HW254672   9.019   3.181   4.799  0.4344 -0.7078  0.2033
18032SOL     OW54673   6.671   2.497   6.753  0.5579  0.2007  0.4636
18032SOL    HW154674   6.725   2.470   6.680  0.3843 -1.3858  0.9008
18032SOL    HW254675   6.725   2.480   6.831  0.1577  0.4162  0.7973
18033SOL     OW54676   3.959   7.685   4.055 -0.0468 -0.4238  0.1635
18033SOL    HW154677   3.896   7.740   4.101 -0.2275  0.0574 -0.6334
18033SOL    HW254678   4.044   7.722   4.077 -0.2413  1.6159 -2.0711
18034SOL     OW54679   5.774   9.398   2.672 -0.2676 -0.3125  0.0549
18034SOL    HW154680   5.847   9.450   2.705  1.0639 -2.0851  0.0621
18034SOL    HW254681   5.715   9.462   2.631  0.2790  1.3974  1.7860
18035SOL     OW54682   9.906   5.555   2.437  0.0962  0.0946 -0.4328
18035SOL    HW154683   9.876   5.534   2.348  1.7226 -0.4999 -0.8758
18035SOL    HW254684   9.875   5.482   2.490  0.5308 -0.3981 -0.8400
18036SOL     OW54685   8.645   0.192   7.632  0.1435 -0.8763 -0.4005
18036SOL    HW154686   8.674   0.242   7.708  0.0497 -1.4275  0.0073
18036SOL    HW254687   8.725   0.167   7.587  0.2507 -1.3590  0.0488
18037SOL     OW54688   6.035   4.063   2.735 -0.2755  0.3126 -0.1939
18037SOL    HW154689   5.991   4.068   2.819 -1.8318 -1.3451 -0.8487
18037SOL    HW254690   6.082   3.979   2.737  0.7446  0.8510 -0.5164
18038SOL     OW54691   1.420   5.617   8.632 -0.2181  0.2558  0.3907
18038SOL    HW154692   1.358   5.613   8.704 -0.2738  0.0560  0.3336
18038SOL    HW254693   1.447   5.526   8.619 -0.8450  0.1754 -0.3935
18039SOL     OW54694   2.702   7.483   3.295 -0.0711 -0.2170 -0.2779
18039SOL    HW154695   2.772   7.439   3.342  0.5637 -0.7800 -1.6810
18039SOL    HW254696   2.621   7.450   3.334  0.4323 -0.0422  0.9280
18040SOL     OW54697   2.188   0.898   6.190  0.3474 -0.0368  0.3812
18040SOL    HW154698   2.103   0.877   6.229 -0.3212 -0.9959 -1.4973
18040SOL    HW254699   2.187   0.993   6.180  0.2319  0.1553  1.9295
18041SOL     OW54700   7.335   8.197   6.595  0.3286  0.8405 -0.2824
18041SOL    HW154701   7.337   8.165   6.686  1.2420  0.7695 -0.3159
18041SOL    HW254702   7.418   8.168   6.558 -0.2374  0.4829 -1.2854
18042SOL     OW54703   4.478   5.160   6.927 -0.2262 -0.4419  0.4281
18042SOL    HW154704   4.400   5.119   6.966  0.3463  0.3549  2.5478
18042SOL    HW254705   4.467   5.253   6.944  0.3267 -0.1122 -0.9160
18043SOL     OW54706   4.914   1.201   6.962 -0.1576 -0.5490  0.0436
18043SOL    HW154707   4.852   1.147   6.913  0.2299 -0.3388 -0.6932
18043SOL    HW254708   4.996   1.195   6.913  0.7474 -1.7240  1.6022
18044SOL     OW54709   8.290   6.426   5.069 -0.6417 -0.2266  0.2733
18044SOL    HW154710   8.317   6.334   5.071 -2.5651 -0.9077 -1.6087
18044SOL    HW254711   8.328   6.460   4.987  0.7003  0.9287  1.3222
18045SOL     OW54712   2.335   6.601   0.160  0.0297 -0.0840  0.3004
18045SOL    HW154713   2.241   6.606   0.177 -0.4130  0.1206 -1.8403
18045SOL    HW254714   2.370   6.685   0.189 -0.5772  0.1106  0.4783
18046SOL     OW54715   7.560   1.900   0.860  0.0117  0.0598  0.1978
18046SOL    HW154716   7.565   1.809   0.832 -0.5002 -0.3424  1.3806
18046SOL    HW254717   7.639   1.914   0.911 -0.7248 -0.2298  1.4430
18047SOL     OW54718   1.776   3.384   6.231 -0.2656 -0.8458 -0.6075
18047SOL    HW154719   1.855   3.345   6.269 -0.1611 -2.0095 -1.9409
18047SOL    HW254720   1.704   3.333   6.268 -0.1988 -1.6072 -1.4955
18048SOL     OW54721   0.716   4.699   6.503  0.2751  0.4733 -0.0292
18048SOL    HW154722   0.667   4.782   6.496  0.8343  0.9134  1.0732
18048SOL    HW254723   0.807   4.724   6.489  0.3444 -0.1362 -0.7321
18049SOL     OW54724   7.695   9.614   5.225  0.1907  0.5926 -0.1268
18049SOL    HW154725   7.615   9.567   5.202 -0.6991  2.4263 -1.0102
18049SOL    HW254726   7.727   9.571   5.304 -1.5379 -0.3179  0.1142
18050SOL     OW54727   5.906   6.410   3.286  0.0269 -0.0448  0.2321
18050SOL    HW154728   6.001   6.399   3.294  0.1571  0.2935 -0.7436
18050SOL    HW254729   5.895   6.473   3.215 -0.8870  1.2152  1.4436
18051SOL     OW54730   3.131   2.959   7.839  0.4528 -0.2866  0.0471
18051SOL    HW154731   3.174   3.020   7.779 -0.5840  0.7146  0.2939
18051SOL    HW254732   3.083   3.015   7.900  0.1706 -1.3324  0.8158
18052SOL     OW54733   4.589   7.417   0.478 -0.3609  0.3000  0.4314
18052SOL    HW154734   4.644   7.419   0.556 -0.9538 -2.1905  0.9903
18052SOL    HW254735   4.500   7.410   0.511 -0.6138 -0.9481 -0.4328
18053SOL     OW54736   7.702   7.283   2.254 -0.0469  0.6157  0.0839
18053SOL    HW154737   7.685   7.193   2.280  1.1030  1.1404  2.9617
18053SOL    HW254738   7.797   7.291   2.253 -0.1160  1.6617 -0.7981
18054SOL     OW54739   0.760   0.179   5.365 -0.6660 -0.1155 -0.5888
18054SOL    HW154740   0.800   0.265   5.379 -1.2146  0.0112  0.2545
18054SOL    HW254741   0.675   0.197   5.325 -2.8549  0.1486  3.5895
18055SOL     OW54742   5.352   2.653   7.748 -0.2900  0.0974  0.6729
18055SOL    HW154743   5.427   2.709   7.729  0.5011 -1.2764 -0.4271
18055SOL    HW254744   5.374   2.568   7.709 -2.4956 -0.3049  0.1600
18056SOL     OW54745   9.162   3.673   3.291  0.3611 -0.0651 -0.3912
18056SOL    HW154746   9.100   3.691   3.220 -1.1090 -0.6705  0.6798
18056SOL    HW254747   9.126   3.721   3.366  1.8437  0.5081 -0.0122
18057SOL     OW54748   9.030   4.613   4.605  0.0208 -0.4942 -0.3225
18057SOL    HW154749   9.009   4.628   4.513  1.5570 -0.0721 -0.6290
18057SOL    HW254750   8.971   4.670   4.654  0.4908  0.7336 -1.1464
18058SOL     OW54751   0.029   7.628   2.619 -0.3320 -0.1339 -0.0920
18058SOL    HW154752  -0.050   7.678   2.639 -0.8208 -0.5425 -0.9814
18058SOL    HW254753   0.049   7.582   2.700 -1.0552 -0.0917  0.1161
18059SOL     OW54754   5.571   7.891   3.515  0.0571 -0.0404 -0.3557
18059SOL    HW154755   5.511   7.904   3.589  0.4562 -1.0171  0.1456
18059SOL    HW254756   5.573   7.977   3.471 -1.4268  0.1150 -0.1862
18060SOL     OW54757   7.171   7.189   8.910 -0.0053  0.1872  0.4166
18060SOL    HW154758   7.155   7.174   9.003  0.5305  1.2691  0.7020
18060SOL    HW254759   7.094   7.153   8.866 -0.8831  0.8407  1.3718
18061SOL     OW54760   8.718   3.173   6.812  0.0400 -0.1820  0.1509
18061SOL    HW154761   8.756   3.148   6.728 -0.6237  0.1220 -0.2472
18061SOL    HW254762   8.629   3.201   6.791 -0.2499 -0.4275  1.0021
18062SOL     OW54763   6.826   5.150   0.196 -0.1209  0.3088  0.3769
18062SOL    HW154764   6.888   5.113   0.258 -0.3176  0.6583  0.7848
18062SOL    HW254765   6.878   5.209   0.141 -0.3406  1.7599  1.6727
18063SOL     OW54766   2.516   2.731   2.773  0.6801 -0.7284 -0.3094
18063SOL    HW154767   2.515   2.784   2.852  1.3016 -0.7196 -0.2987
18063SOL    HW254768   2.429   2.693   2.768  0.4017 -0.1370 -0.0249
18064SOL     OW54769   3.909   8.870   9.645  0.1297  0.3907  0.6243
18064SOL    HW154770   3.977   8.933   9.621 -0.1532  0.5108  0.1217
18064SOL    HW254771   3.906   8.808   9.572 -1.0216  0.9919  0.1214
18065SOL     OW54772   3.448   3.943   6.478 -0.2322 -0.1749  0.3733
18065SOL    HW154773   3.505   3.892   6.420 -0.6738 -1.3854  0.9733
18065SOL    HW254774   3.360   3.928   6.445 -0.6271 -1.8605  2.0032
18066SOL     OW54775   5.337   0.839   9.295 -0.2909 -0.0439  0.5397
18066SOL    HW154776   5.341   0.852   9.201 -1.3149 -1.9978  0.1741
18066SOL    HW254777   5.427   0.816   9.320 -0.0882  0.1491 -0.0078
18067SOL     OW54778   7.609   6.077   9.992  0.2779  0.2882  0.5136
18067SOL    HW154779   7.639   5.989  10.017 -1.3302 -0.6726 -0.7090
18067SOL    HW254780   7.679   6.112   9.938  1.1696 -0.0104  1.4334
18068SOL     OW54781   4.441   6.790   3.080 -0.0092  0.4015  0.1176
18068SOL    HW154782   4.428   6.696   3.071 -0.4997  0.5393 -0.7466
18068SOL    HW254783   4.399   6.812   3.163  0.9031 -0.2695  0.7748
18069SOL     OW54784   0.433   2.913   6.381 -0.3141  0.0791  0.3262
18069SOL    HW154785   0.408   3.004   6.366 -0.5244  0.0604  0.5680
18069SOL    HW254786   0.350   2.867   6.399 -0.3847 -0.4258 -1.1183
18070SOL     OW54787   8.644   9.028   6.887 -0.0543 -0.0204 -0.3963
18070SOL    HW154788   8.727   8.981   6.874  0.1209 -0.3469  1.5714
18070SOL    HW254789   8.667   9.101   6.944 -1.2937 -0.8329  1.2276
18071SOL     OW54790   3.225   1.924   1.397  0.7390  0.1365  0.1302
18071SOL    HW154791   3.296   1.860   1.391  1.0590  0.1858  2.5928
18071SOL    HW254792   3.231   1.960   1.485 -2.0495  0.4848  0.2868
18072SOL     OW54793   9.461   7.285   3.354 -0.1932 -0.2086  0.2697
18072SOL    HW154794   9.469   7.345   3.281  1.9166  0.3674  0.8806
18072SOL    HW254795   9.514   7.209   3.328 -2.5518 -1.7539 -0.3582
18073SOL     OW54796   5.960   4.587   0.529 -0.2995 -0.0101 -0.0983
18073SOL    HW154797   5.934   4.655   0.590  0.6558 -0.2310  0.5736
18073SOL    HW254798   6.040   4.620   0.488 -0.4618 -0.2301 -0.6044
18074SOL     OW54799   6.469   8.708   8.194 -0.0577  0.5202 -0.2037
18074SOL    HW154800   6.512   8.792   8.180  0.1386  0.5001  0.2809
18074SOL    HW254801   6.394   8.709   8.134  0.4664  0.6596 -0.8672
18075SOL     OW54802   6.793   8.134   2.592  0.0954 -0.7321  0.2592
18075SOL    HW154803   6.823   8.048   2.621  0.9252 -1.2547 -1.8900
18075SOL    HW254804   6.822   8.195   2.660  0.0028 -2.0711  1.5326
18076SOL     OW54805   8.781   4.743   0.488 -0.2141  0.4366 -0.1128
18076SOL    HW154806   8.698   4.745   0.536  0.7474 -0.4189  1.6987
18076SOL    HW254807   8.847   4.723   0.555  1.6171  2.1783 -1.2921
18077SOL     OW54808   8.551   3.565   2.895 -0.0220 -0.0351 -0.8032
18077SOL    HW154809   8.634   3.573   2.847 -0.4047  2.1471 -1.2064
18077SOL    HW254810   8.519   3.655   2.903 -1.5157 -0.6446  0.8616
18078SOL     OW54811   5.179   7.545   8.796 -0.3944 -0.2615  0.3585
18078SOL    HW154812   5.237   7.605   8.843 -0.3161  0.5038 -0.6994
18078SOL    HW254813   5.091   7.583   8.806 -0.3237  0.1226 -0.4441
18079SOL     OW54814   4.788   8.350   0.082 -0.2316 -0.1886 -0.0416
18079SOL    HW154815   4.734   8.418   0.123 -0.0212 -0.8451  1.3694
18079SOL    HW254816   4.727   8.302   0.026 -0.5708  0.5956 -0.3560
18080SOL     OW54817   3.898   4.082   8.874 -0.2250 -0.3689  0.2725
18080SOL    HW154818   3.901   4.002   8.926 -0.1904  1.0442  2.5614
18080SOL    HW254819   3.805   4.091   8.851 -0.3922 -0.5587  0.8486
18081SOL     OW54820   1.607   1.015   4.709  0.0013 -0.5004  0.4398
18081SOL    HW154821   1.569   1.078   4.770  0.4281 -0.9886  1.2284
18081SOL    HW254822   1.682   1.060   4.671  0.0728 -0.3974  0.7028
18082SOL     OW54823   8.767   8.370   0.465 -0.5051 -0.0824 -0.6378
18082SOL    HW154824   8.797   8.439   0.524 -0.5373 -1.1486  0.6485
18082SOL    HW254825   8.718   8.417   0.398  0.8011  1.3094 -0.6911
18083SOL     OW54826   9.797   5.177   5.949  0.2195  0.0550  0.2683
18083SOL    HW154827   9.779   5.103   5.892  1.0476 -0.2988  0.4577
18083SOL    HW254828   9.750   5.158   6.030 -1.6364  0.9434 -0.5423
18084SOL     OW54829   3.155   0.534   6.222  0.6211  0.6735 -0.2091
18084SOL    HW154830   3.085   0.509   6.162 -0.7819 -1.2740  2.0835
18084SOL    HW254831   3.230   0.552   6.164 -1.4161  1.8892 -2.6717
18085SOL     OW54832   0.961   7.609   3.504  0.0430 -0.4742  0.1509
18085SOL    HW154833   1.041   7.587   3.553  0.1516 -1.1474 -0.3027
18085SOL    HW254834   0.974   7.699   3.476  0.0024 -0.0983  1.3047
18086SOL     OW54835   1.251   0.933   3.472 -0.2335  0.2474  0.3817
18086SOL    HW154836   1.176   0.988   3.450  0.4627  0.7931 -0.7522
18086SOL    HW254837   1.281   0.966   3.557 -0.5066  0.8910  0.2367
18087SOL     OW54838   2.474   0.200   5.105 -0.4177  0.3687 -0.3866
18087SOL    HW154839   2.480   0.137   5.033  0.4113 -0.1316  0.1107
18087SOL    HW254840   2.409   0.162   5.164  0.7635 -0.5283  0.3819
18088SOL     OW54841   7.544   7.771   5.083 -0.0925 -0.1443 -0.2673
18088SOL    HW154842   7.632   7.804   5.066  0.0781  0.1686  1.0743
18088SOL    HW254843   7.552   7.725   5.167 -1.3576  0.6046  0.2982
18089SOL     OW54844   9.726   8.938   7.577  0.5026 -0.8652  0.0063
18089SOL    HW154845   9.672   9.013   7.603  0.1136 -1.7482  1.8930
18089SOL    HW254846   9.750   8.956   7.486 -1.0205  0.6913 -0.1287
18090SOL     OW54847   3.561   3.140   0.113 -0.1861 -0.1456  0.4111
18090SOL    HW154848   3.525   3.160   0.199  1.3605 -2.4752  1.6998
18090SOL    HW254849   3.642   3.190   0.109 -0.6814  0.6472 -0.1129
18091SOL     OW54850   1.946   3.534   9.197  0.4737  0.4356  0.4987
18091SOL    HW154851   1.987   3.450   9.176 -0.2634  0.5143 -1.4755
18091SOL    HW254852   1.972   3.593   9.126 -1.2202  1.0804  0.3420
18092SOL     OW54853   6.757   9.004   0.283 -0.5895 -0.1572 -0.0891
18092SOL    HW154854   6.823   8.975   0.219  1.3717  0.9890  1.2913
18092SOL    HW254855   6.689   9.045   0.230  1.3258  1.4715 -1.4569
18093SOL     OW54856   7.733   5.039   8.381 -0.4816  0.2145  0.5216
18093SOL    HW154857   7.648   5.047   8.424 -1.0109 -0.0814 -0.4432
18093SOL    HW254858   7.784   4.983   8.439 -1.2601 -0.3743  0.6501
18094SOL     OW54859   0.086   0.650   0.264 -0.4825  0.4332  0.2158
18094SOL    HW154860   0.164   0.658   0.318  0.0457 -0.7775 -0.3484
18094SOL    HW254861   0.105   0.580   0.202 -1.7750  0.5383 -0.3504
18095SOL     OW54862   3.772   5.395   5.375  0.1457 -0.2416 -0.4004
18095SOL    HW154863   3.812   5.479   5.351 -0.4674  0.5416  1.1315
18095SOL    HW254864   3.715   5.417   5.449 -0.5526 -1.9054 -0.4076
18096SOL     OW54865   2.419   7.403   9.800 -0.5644 -0.0069  0.3093
18096SOL    HW154866   2.423   7.307   9.805 -0.3956 -0.0327 -0.2517
18096SOL    HW254867   2.486   7.433   9.861 -0.4417 -0.2534  0.2969
18097SOL     OW54868   4.441   8.064   6.747 -0.0447 -0.4865  0.0790
18097SOL    HW154869   4.473   8.150   6.774  0.7210 -0.7092 -0.1028
18097SOL    HW254870   4.517   8.006   6.756 -0.0933 -0.8117 -1.3991
18098SOL     OW54871   1.278   3.968   1.015  0.2352 -0.9424 -0.3786
18098SOL    HW154872   1.336   3.908   0.967  2.7013  0.0367  1.1392
18098SOL    HW254873   1.260   3.923   1.097 -0.1932 -0.7481 -0.3677
18099SOL     OW54874   3.067   9.407   7.228  0.0974  0.0106 -0.2046
18099SOL    HW154875   3.031   9.335   7.280  0.9648  0.5516  1.2173
18099SOL    HW254876   3.131   9.365   7.170 -0.8958 -0.6070 -0.8703
18100SOL     OW54877   2.968   3.395   9.000  0.5233  0.3056  0.4837
18100SOL    HW154878   2.949   3.482   8.966 -1.1325 -0.6117 -1.1682
18100SOL    HW254879   2.883   3.351   8.999  1.5932 -1.8826 -0.4800
18101SOL     OW54880   7.045   7.772   7.180 -0.0230  0.2800 -0.0051
18101SOL    HW154881   7.109   7.842   7.196  3.8489 -2.5720 -1.3941
18101SOL    HW254882   7.043   7.764   7.085 -2.4937  0.1453  0.0023
18102SOL     OW54883   8.710   1.290   2.527  0.0652 -0.0251  0.1716
18102SOL    HW154884   8.771   1.280   2.599 -0.3385 -1.1300  0.3752
18102SOL    HW254885   8.625   1.306   2.569 -0.1409 -0.5030 -0.0554
18103SOL     OW54886   7.285   0.026   8.112 -0.4452  0.1756 -0.2120
18103SOL    HW154887   7.358   0.013   8.052 -0.1593 -0.3471  0.2454
18103SOL    HW254888   7.324   0.020   8.199 -0.9981  0.0935  0.0331
18104SOL     OW54889   2.332   4.410   2.131  0.0291 -0.1525 -0.2392
18104SOL    HW154890   2.270   4.483   2.139  0.0290 -0.3062  1.3832
18104SOL    HW254891   2.360   4.414   2.039 -1.0449  0.9989 -0.5619
18105SOL     OW54892   8.136   9.406   2.807 -0.3482 -0.3416  0.2822
18105SOL    HW154893   8.099   9.321   2.832 -0.8059  0.3928  2.3132
18105SOL    HW254894   8.192   9.387   2.732  1.0785 -2.7965  1.8243
18106SOL     OW54895   1.238   7.654   0.292 -0.2015 -0.3378  0.1402
18106SOL    HW154896   1.235   7.626   0.201  0.5876 -0.8769  0.2743
18106SOL    HW254897   1.218   7.574   0.342 -0.4139 -0.0939  0.4510
18107SOL     OW54898   9.568   0.259   5.410  0.0777  0.0073  0.1847
18107SOL    HW154899   9.592   0.345   5.442  0.4238  0.5594 -1.4641
18107SOL    HW254900   9.484   0.240   5.452  0.3477  0.8127  1.1219
18108SOL     OW54901   2.719   9.389   9.210 -0.5715 -0.2579 -0.4132
18108SOL    HW154902   2.676   9.330   9.149  0.6483  0.0139 -1.5870
18108SOL    HW254903   2.807   9.400   9.175 -0.1893  0.8053  0.7885
18109SOL     OW54904   6.453   1.758   2.232  0.4856  0.5599  0.4824
18109SOL    HW154905   6.533   1.778   2.280  0.0800 -0.3485  1.5925
18109SOL    HW254906   6.461   1.665   2.210  0.2981  0.7684 -0.5260
18110SOL     OW54907   1.328   5.776   2.725  0.4371 -0.1364 -0.6207
18110SOL    HW154908   1.245   5.805   2.688  0.8124 -0.4256 -1.7256
18110SOL    HW254909   1.317   5.682   2.739  0.9016 -0.3769 -1.7337
18111SOL     OW54910   7.776   3.152   2.875  0.7129  0.0950  0.1177
18111SOL    HW154911   7.791   3.246   2.865 -1.8022  0.4690 -1.1250
18111SOL    HW254912   7.775   3.137   2.969  0.3755  1.4954  0.3604
18112SOL     OW54913   1.711   5.900   4.774 -0.4264  0.4984 -0.3086
18112SOL    HW154914   1.728   5.987   4.808  0.5588  0.3266 -0.3226
18112SOL    HW254915   1.795   5.872   4.737 -1.3743  0.5835 -2.6705
18113SOL     OW54916   3.144   4.373   1.464  0.4512 -0.7702 -0.2037
18113SOL    HW154917   3.158   4.460   1.503  0.5439 -0.4522 -0.9300
18113SOL    HW254918   3.230   4.348   1.430  0.7215 -1.7094  1.0929
18114SOL     OW54919   0.228   1.556   4.906 -0.2470  0.4114 -0.0144
18114SOL    HW154920   0.289   1.582   4.837  1.2068  1.3361  1.5508
18114SOL    HW254921   0.270   1.484   4.952 -1.3482 -0.4227 -0.2618
18115SOL     OW54922   5.024   7.756   5.281 -0.0141  0.2353 -0.2459
18115SOL    HW154923   5.009   7.697   5.207 -0.8679 -0.0244  0.1197
18115SOL    HW254924   4.986   7.710   5.356  2.5477 -0.4141  0.7802
18116SOL     OW54925   3.754   9.076   7.097  0.2072 -0.3098 -0.0148
18116SOL    HW154926   3.752   9.139   7.025  0.2583 -0.4559 -0.1447
18116SOL    HW254927   3.716   9.123   7.172  0.4530 -0.0479 -0.0512
18117SOL     OW54928   5.651   3.999   3.834  0.3938 -0.0131  0.0923
18117SOL    HW154929   5.646   3.945   3.755 -0.8022  0.1027  0.0734
18117SOL    HW254930   5.619   4.085   3.806 -2.0192 -0.5017  1.1394
18118SOL     OW54931   1.838   8.081   8.964  0.3361  0.1817 -0.1213
18118SOL    HW154932   1.933   8.074   8.968  0.6891 -2.0058 -4.9777
18118SOL    HW254933   1.821   8.162   8.917 -0.2222  0.4390  0.5050
18119SOL     OW54934   0.671   6.642   6.844 -0.3649  0.0973 -0.4866
18119SOL    HW154935   0.694   6.725   6.802 -2.6290  1.4063  0.6315
18119SOL    HW254936   0.602   6.605   6.789 -1.3358  0.4070  0.4743
18120SOL     OW54937   6.313   7.650   1.921  0.6357  0.3731  0.1236
18120SOL    HW154938   6.365   7.608   1.852  0.7214 -0.1903  0.5232
18120SOL    HW254939   6.338   7.604   2.001 -1.1613 -0.5731  0.1970
18121SOL     OW54940   8.282   0.441   6.956 -0.3636  0.2641 -0.0062
18121SOL    HW154941   8.223   0.514   6.938 -0.4089  0.0835 -0.5988
18121SOL    HW254942   8.233   0.363   6.929  0.3698  0.1603 -1.0833
18122SOL     OW54943   3.545   6.167   9.969  0.2902 -0.4617  0.1108
18122SOL    HW154944   3.605   6.117   9.913 -0.0439 -1.3020  0.4905
18122SOL    HW254945   3.558   6.258   9.942  0.5949 -0.7883 -0.8953
18123SOL     OW54946   5.767   0.860   4.930  0.7892 -0.0748  0.0525
18123SOL    HW154947   5.762   0.955   4.917  2.6959 -0.0081 -0.5245
18123SOL    HW254948   5.825   0.849   5.006  0.5888 -0.7795  0.1106
18124SOL     OW54949   9.990   5.875   1.280 -0.1317 -0.1259 -0.3485
18124SOL    HW154950   9.982   5.810   1.211  0.2166 -0.3795 -0.1577
18124SOL    HW254951   9.947   5.953   1.246  0.4202 -0.1143 -1.0195
18125SOL     OW54952   8.331   3.388   0.104  0.3940 -0.0467 -0.0390
18125SOL    HW154953   8.251   3.436   0.119  0.4758 -0.0704  0.4936
18125SOL    HW254954   8.315   3.338   0.024 -0.5111 -0.8683  0.6337
18126SOL     OW54955   8.054   2.326   0.807  0.0074  0.3632 -0.4881
18126SOL    HW154956   8.120   2.289   0.749  0.7141 -1.3730  1.3286
18126SOL    HW254957   8.054   2.420   0.787  0.5807 -0.1004 -2.8740
18127SOL     OW54958   4.078   7.827   1.170  0.1260 -0.3377  0.1678
18127SOL    HW154959   4.088   7.773   1.092  1.8013 -2.0469  1.4590
18127SOL    HW254960   4.163   7.871   1.180 -0.6699  1.3128  0.0632
18128SOL     OW54961   1.123   0.608   3.531  0.2575  0.2733  0.3299
18128SOL    HW154962   1.073   0.680   3.570 -1.1651 -0.3855 -0.2268
18128SOL    HW254963   1.190   0.588   3.596 -0.9696  0.3523  1.6705
18129SOL     OW54964   2.550   7.881   3.888 -0.8550  0.5370 -0.7571
18129SOL    HW154965   2.507   7.796   3.884  1.2713 -0.6336 -0.1330
18129SOL    HW254966   2.642   7.861   3.906 -0.7006  3.0482  2.0231
18130SOL     OW54967   5.352   7.749   8.903  0.2880  0.4809 -0.4227
18130SOL    HW154968   5.436   7.703   8.889 -0.9779 -1.9430 -0.6451
18130SOL    HW254969   5.365   7.798   8.984  2.3377  1.2913 -1.1635
18131SOL     OW54970   9.882   0.772   6.955  0.3455  0.3512  0.3398
18131SOL    HW154971   9.854   0.855   6.916  0.0759  0.3678  0.5637
18131SOL    HW254972   9.907   0.718   6.880 -0.8422  0.1302  0.0821
18132SOL     OW54973   7.590   7.450   2.857  0.8814  0.2915 -0.0337
18132SOL    HW154974   7.568   7.536   2.895 -0.6955  0.8123 -1.9723
18132SOL    HW254975   7.633   7.403   2.928  1.5433  2.5892  1.1780
18133SOL     OW54976   0.747   8.476   0.992 -0.1414 -0.5092  0.0460
18133SOL    HW154977   0.708   8.424   1.062  2.1005 -1.7020  0.5176
18133SOL    HW254978   0.687   8.549   0.979 -2.3019 -2.0514  0.8826
18134SOL     OW54979   3.556   8.190   4.397  0.2678  0.0419  0.0120
18134SOL    HW154980   3.640   8.201   4.352  1.0932 -1.2019  1.1701
18134SOL    HW254981   3.511   8.122   4.347  0.2159  0.2575 -0.2379
18135SOL     OW54982   7.431   3.672   9.890 -0.1229  0.0843 -0.1542
18135SOL    HW154983   7.432   3.606   9.820  0.9679 -0.0588 -0.0184
18135SOL    HW254984   7.505   3.648   9.946 -1.4460 -0.2597  1.5054
18136SOL     OW54985   2.842   8.876   6.275 -0.1634 -0.3622  0.7186
18136SOL    HW154986   2.894   8.798   6.295 -0.2359 -0.2994  1.1648
18136SOL    HW254987   2.822   8.914   6.361 -1.8902 -0.9973  0.6360
18137SOL     OW54988   0.552   1.909   4.274  0.0002 -0.4084 -0.1642
18137SOL    HW154989   0.632   1.954   4.245 -1.1074  1.4216 -0.5373
18137SOL    HW254990   0.502   1.977   4.319 -1.3973 -1.4901 -0.0537
18138SOL     OW54991   1.804   4.906   9.893  0.0444 -0.6179  0.6667
18138SOL    HW154992   1.730   4.880   9.948 -1.7370 -0.3884 -1.4910
18138SOL    HW254993   1.796   4.852   9.814  1.0369  0.7782 -0.4444
18139SOL     OW54994   8.063   6.878   6.916  0.2890  0.1664 -0.0060
18139SOL    HW154995   8.057   6.810   6.983  1.4736  0.7390  0.7121
18139SOL    HW254996   8.004   6.947   6.947 -1.1352 -0.6104 -0.8795
18140SOL     OW54997   7.731   2.479   1.766 -0.4566 -0.2947  0.0214
18140SOL    HW154998   7.740   2.392   1.728 -1.7045 -1.4902  2.2974
18140SOL    HW254999   7.777   2.474   1.850 -2.1858  0.5997  1.0871
18141SOL     OW55000   3.502   2.563   1.398  0.1565  0.1928 -0.0702
18141SOL    HW155001   3.430   2.537   1.340 -1.3941 -0.7764  2.1730
18141SOL    HW255002   3.478   2.652   1.426  0.4573  0.3256 -0.2311
18142SOL     OW55003   7.662   1.067   5.575 -0.4897 -0.4235 -0.5812
18142SOL    HW155004   7.652   0.972   5.585  0.1401 -0.4820 -0.4494
18142SOL    HW255005   7.753   1.078   5.546 -0.4095  0.1675 -0.1157
18143SOL     OW55006   2.850   4.419   3.456 -0.1461 -0.1083 -0.0370
18143SOL    HW155007   2.919   4.437   3.520  0.3186 -0.7608 -0.3444
18143SOL    HW255008   2.769   4.444   3.501  0.2412  0.1515  0.5298
18144SOL     OW55009   6.213   0.101   6.561  0.6853  0.5755  0.0704
18144SOL    HW155010   6.277   0.152   6.511  1.3154 -0.1131  0.1368
18144SOL    HW255011   6.226   0.128   6.651 -0.7089  2.0894 -0.1518
18145SOL     OW55012   2.674   5.142   3.601  0.1621 -0.0466 -0.5662
18145SOL    HW155013   2.694   5.193   3.680 -1.1501 -0.5859  0.1464
18145SOL    HW255014   2.663   5.053   3.633 -1.8715 -0.0374 -1.0885
18146SOL     OW55015   2.144   5.878   0.746 -0.6099  0.4965 -0.1820
18146SOL    HW155016   2.219   5.937   0.737 -0.8834  0.7987 -0.5203
18146SOL    HW255017   2.131   5.841   0.659 -1.6796  1.4774 -0.4699
18147SOL     OW55018   4.702   8.200   7.222  0.6140  0.0238  0.6256
18147SOL    HW155019   4.708   8.284   7.175  0.8753 -0.6365 -0.5496
18147SOL    HW255020   4.750   8.216   7.304  2.1213  0.5469 -0.2985
18148SOL     OW55021   1.865   8.729   4.178  0.4648 -0.4962 -0.1624
18148SOL    HW155022   1.830   8.757   4.262  1.6383  0.8250 -0.0847
18148SOL    HW255023   1.817   8.649   4.158 -1.5618  0.4694  0.5884
18149SOL     OW55024   2.409   1.626   9.816  0.4602  0.2091  0.2436
18149SOL    HW155025   2.455   1.674   9.747 -1.7162  0.2762 -1.2514
18149SOL    HW255026   2.424   1.534   9.795  1.4791  0.2016  0.9125
18150SOL     OW55027   5.597   5.960   7.852 -0.6577 -0.1749 -0.5286
18150SOL    HW155028   5.663   5.965   7.783  0.0254  0.2807  0.1441
18150SOL    HW255029   5.614   6.037   7.907 -0.5672 -1.0513  0.7070
18151SOL     OW55030   2.839   9.256   3.997 -0.2982  0.6827  0.2483
18151SOL    HW155031   2.865   9.295   3.913 -0.3905  0.6366  0.1972
18151SOL    HW255032   2.771   9.193   3.973  0.3387 -0.0182  0.2463
18152SOL     OW55033   6.883   1.203   0.125  0.0969  0.0363  0.0820
18152SOL    HW155034   6.965   1.158   0.103  0.4012  0.2989  0.6597
18152SOL    HW255035   6.863   1.255   0.047  0.9104  0.5911  0.2328
18153SOL     OW55036   7.796   1.290   3.519 -0.6702 -0.0007 -0.4383
18153SOL    HW155037   7.793   1.202   3.481 -1.4092  0.1515 -0.7450
18153SOL    HW255038   7.816   1.275   3.611  2.0701 -0.3276 -1.0012
18154SOL     OW55039   7.317   7.921   5.415 -0.4873 -0.1198 -0.0431
18154SOL    HW155040   7.397   7.964   5.446 -0.1846  0.3913 -1.4678
18154SOL    HW255041   7.331   7.828   5.434 -0.1942  0.1267  1.0365
18155SOL     OW55042   9.642   0.295   3.049  0.9310 -0.1531 -0.1563
18155SOL    HW155043   9.639   0.236   3.125  0.5827  1.5993  1.2627
18155SOL    HW255044   9.661   0.381   3.087  0.6997  0.7925 -2.0796
18156SOL     OW55045   4.838   1.724   0.426  0.1944  0.2450  0.1468
18156SOL    HW155046   4.767   1.787   0.418 -0.2513 -0.3343 -0.5522
18156SOL    HW255047   4.866   1.708   0.336  1.1614  0.4058  0.4097
18157SOL     OW55048   2.029   5.485   7.043 -0.1544  0.9314 -0.1356
18157SOL    HW155049   1.993   5.571   7.064 -1.3694  0.0921  1.5390
18157SOL    HW255050   1.976   5.454   6.970  0.6478  1.7913 -1.1111
18158SOL     OW55051   6.973   2.749   4.844 -0.5021  0.3499  0.3917
18158SOL    HW155052   7.054   2.793   4.870  1.8625 -1.8370 -2.5153
18158SOL    HW255053   6.945   2.794   4.764 -1.5594  0.4109  0.7833
18159SOL     OW55054   4.981   8.785   0.911 -0.5105 -0.0167  0.0273
18159SOL    HW155055   4.992   8.730   0.989  0.1804 -1.0768 -0.7957
18159SOL    HW255056   5.069   8.816   0.890 -0.7964  0.8613  0.0781
18160SOL     OW55057   5.163   9.696   5.537  0.1400  0.3392 -0.5193
18160SOL    HW155058   5.257   9.686   5.526  0.0324  0.1990 -1.3936
18160SOL    HW255059   5.153   9.741   5.621  1.0554  1.8167 -1.1614
18161SOL     OW55060   9.501   3.407   0.474 -0.4508 -0.1024  0.0517
18161SOL    HW155061   9.450   3.452   0.408  0.7175  0.5330 -0.4439
18161SOL    HW255062   9.580   3.460   0.485 -0.7753  0.0316  2.2495
18162SOL     OW55063   4.972   0.259   7.492 -0.0587 -0.2683  0.1826
18162SOL    HW155064   5.033   0.192   7.523  2.2520  1.7295  0.2352
18162SOL    HW255065   4.960   0.317   7.567 -0.3990  0.4886 -0.4421
18163SOL     OW55066   9.811   7.332   3.173  0.6566 -0.0331 -0.0702
18163SOL    HW155067   9.851   7.245   3.181  2.2345  0.7680  1.5841
18163SOL    HW255068   9.823   7.372   3.259 -2.2888  0.9537 -0.0044
18164SOL     OW55069   2.920   9.242   5.832  0.2880 -0.7573 -0.1669
18164SOL    HW155070   2.891   9.259   5.922  0.6577 -0.3645 -0.1187
18164SOL    HW255071   2.842   9.208   5.788  0.7550 -3.6464  0.9860
18165SOL     OW55072   4.123   6.804   1.443 -0.1865  0.0411 -0.5502
18165SOL    HW155073   4.137   6.806   1.348  0.8026  0.7626 -0.4099
18165SOL    HW255074   4.186   6.867   1.477 -0.3077 -0.4533  0.6219
18166SOL     OW55075   5.617   2.110   9.147  0.0045 -0.5436 -0.4020
18166SOL    HW155076   5.707   2.118   9.116 -0.6526 -0.1237 -2.3355
18166SOL    HW255077   5.586   2.201   9.153  0.2442 -0.5629  2.0874
18167SOL     OW55078   1.626   7.052   7.240  0.0863 -0.1792 -0.1804
18167SOL    HW155079   1.649   6.979   7.184  2.1713  0.1107  0.1995
18167SOL    HW255080   1.664   7.129   7.197  2.2916 -0.0218  1.7763
18168SOL     OW55081   7.120   2.143   8.065  0.7136  0.1690  0.3380
18168SOL    HW155082   7.104   2.228   8.106  0.0558  0.3306 -0.2412
18168SOL    HW255083   7.214   2.129   8.075  0.9990  1.4049 -0.4160
18169SOL     OW55084   6.244   1.692   0.889  0.3445  0.0417  0.3995
18169SOL    HW155085   6.220   1.634   0.961 -2.1091  0.7803  0.2764
18169SOL    HW255086   6.164   1.740   0.869  1.1560  0.4351 -2.3219
18170SOL     OW55087   9.883   0.692   6.477 -0.1468  0.4669 -0.5028
18170SOL    HW155088   9.896   0.608   6.433 -0.6335 -0.8005  1.6484
18170SOL    HW255089   9.795   0.688   6.513  0.5441  1.0285  1.3811
18171SOL     OW55090   7.560   4.267   7.441  0.4854  0.2710  0.5607
18171SOL    HW155091   7.611   4.191   7.469  1.3727  0.3730 -0.6865
18171SOL    HW255092   7.580   4.277   7.348 -1.5852  0.5274  0.0866
18172SOL     OW55093   9.462   4.886   4.103 -0.1187 -0.6188 -0.8239
18172SOL    HW155094   9.550   4.882   4.067  0.3672  0.4363  0.1677
18172SOL    HW255095   9.472   4.937   4.184 -1.3620 -1.8630  0.1493
18173SOL     OW55096   5.893   5.829   2.898 -0.8933 -0.4912  0.9325
18173SOL    HW155097   5.838   5.811   2.822 -1.3746  0.1477  1.1223
18173SOL    HW255098   5.941   5.908   2.875 -0.4706 -0.7240  0.9960
18174SOL     OW55099   8.284   8.177   9.325  0.2452  0.0659  0.5704
18174SOL    HW155100   8.339   8.109   9.285 -0.7383 -0.2080 -0.3761
18174SOL    HW255101   8.296   8.254   9.269 -2.4748 -0.8127 -1.4543
18175SOL     OW55102   1.413   2.578   9.248 -0.2380 -0.2539  0.2302
18175SOL    HW155103   1.345   2.512   9.244 -0.2901 -0.1636 -0.4370
18175SOL    HW255104   1.431   2.600   9.157  0.7256 -0.3202  0.3909
18176SOL     OW55105   2.297   2.995   2.830  0.0925 -0.0533 -0.3237
18176SOL    HW155106   2.364   3.038   2.777  0.6325 -0.6088 -0.1070
18176SOL    HW255107   2.253   3.066   2.876  2.3793  0.2002  1.7098
18177SOL     OW55108   3.657   0.662   5.335  0.0370  0.2414 -0.2727
18177SOL    HW155109   3.719   0.634   5.268  0.5395 -0.4055  0.4433
18177SOL    HW255110   3.592   0.592   5.339  0.9817 -0.6147  1.1212
18178SOL     OW55111   9.178   8.748   9.731 -0.2788  0.1835  0.5331
18178SOL    HW155112   9.102   8.807   9.734 -1.3677 -1.1309 -0.1725
18178SOL    HW255113   9.164   8.687   9.803  0.9837  0.9157  1.4274
18179SOL     OW55114   2.181   0.741   6.690  0.4716  0.1978 -0.4114
18179SOL    HW155115   2.151   0.658   6.652  0.0567  0.4495 -0.6522
18179SOL    HW255116   2.211   0.719   6.778  0.1762 -0.1774 -0.4036
18180SOL     OW55117   1.876   6.068   9.942  0.1929 -0.2239 -0.4112
18180SOL    HW155118   1.849   5.991   9.892  0.8063 -0.3430 -0.5692
18180SOL    HW255119   1.908   6.129   9.876  0.6636 -0.2348 -0.1925
18181SOL     OW55120   6.514   3.904   0.152  0.0072 -0.0683  0.0112
18181SOL    HW155121   6.546   3.885   0.240 -0.3366  0.2876  0.2180
18181SOL    HW255122   6.419   3.917   0.163  0.0661  0.6778 -0.2895
18182SOL     OW55123   4.778   2.820   5.160  0.0593 -0.6108 -0.1275
18182SOL    HW155124   4.822   2.904   5.142  0.1169 -1.2398 -3.5242
18182SOL    HW255125   4.847   2.754   5.150 -0.4787 -1.2271  0.1689
18183SOL     OW55126   5.872   0.858   7.729 -0.6760  0.1599 -0.0035
18183SOL    HW155127   5.956   0.884   7.691 -0.5205  0.1090  0.3065
18183SOL    HW255128   5.889   0.773   7.769 -0.3140  1.0830  1.9234
18184SOL     OW55129   2.404   0.880   7.294  0.1748  0.4934 -0.0380
18184SOL    HW155130   2.405   0.885   7.389 -1.9429  1.8996 -0.0283
18184SOL    HW255131   2.417   0.971   7.265  1.3584  0.0075 -1.1310
18185SOL     OW55132   5.941   2.193   9.875  0.8684 -0.7583  0.0949
18185SOL    HW155133   5.977   2.180   9.963  1.3050  0.3732  0.1078
18185SOL    HW255134   5.991   2.267   9.840 -2.8984  2.5711  1.0238
18186SOL     OW55135   4.092   5.860   9.609 -0.1580  0.2511 -1.0043
18186SOL    HW155136   4.156   5.825   9.548 -0.1607  0.2634 -1.0142
18186SOL    HW255137   4.139   5.928   9.657 -0.3662  0.7530 -1.5019
18187SOL     OW55138   2.542   6.695   7.677 -0.2095 -0.5659  0.1069
18187SOL    HW155139   2.526   6.617   7.624  0.5728 -1.1680  0.7189
18187SOL    HW255140   2.624   6.676   7.724  0.0861  0.6919  0.1482
18188SOL     OW55141   7.864   0.797   5.044 -0.2302  0.1567  0.2358
18188SOL    HW155142   7.800   0.865   5.021 -0.9323  0.1874  2.1035
18188SOL    HW255143   7.905   0.775   4.961  0.2972  3.1159 -0.4298
18189SOL     OW55144   8.857   0.527   6.031 -0.3015 -0.0403  0.5027
18189SOL    HW155145   8.942   0.561   6.060 -1.1035  3.3115 -0.5495
18189SOL    HW255146   8.799   0.543   6.106 -0.6478  0.8462  0.0625
18190SOL     OW55147   8.243   6.444   6.140 -0.4440  0.2464  0.6613
18190SOL    HW155148   8.271   6.356   6.165  0.8232  0.5666  0.4372
18190SOL    HW255149   8.282   6.457   6.054  0.2932  1.4357  1.1626
18191SOL     OW55150   7.135   5.776   5.107  0.4843 -0.2200  0.2218
18191SOL    HW155151   7.230   5.781   5.100  0.6644  1.3166  2.6381
18191SOL    HW255152   7.104   5.859   5.073 -0.1138 -1.0568 -1.3691
18192SOL     OW55153   5.227   8.535   0.717  0.4516  0.2118 -0.4038
18192SOL    HW155154   5.159   8.502   0.658 -0.9685  1.5873  0.3783
18192SOL    HW255155   5.192   8.519   0.805  0.4876  2.1182  0.0123
18193SOL     OW55156   1.249   8.688   3.264  0.2024 -0.4697  0.4678
18193SOL    HW155157   1.290   8.705   3.179 -0.0770 -1.3509  0.1521
18193SOL    HW255158   1.322   8.674   3.324  0.3853 -1.5756  0.0030
18194SOL     OW55159   0.924   8.864   6.373  0.0861 -0.2556  0.1923
18194SOL    HW155160   0.835   8.867   6.407 -0.1942 -2.1628 -0.2663
18194SOL    HW255161   0.914   8.845   6.279  0.9772 -0.1277  0.0537
18195SOL     OW55162   0.996   0.421   7.071  0.1654 -0.2977  0.0999
18195SOL    HW155163   1.072   0.446   7.124 -1.1502  1.3555  1.2948
18195SOL    HW255164   0.931   0.392   7.135 -0.2925 -1.5409 -0.8944
18196SOL     OW55165   7.969   9.068   1.341  0.6762  0.5383  0.0748
18196SOL    HW155166   8.007   9.088   1.427  0.3757 -1.7100  0.8139
18196SOL    HW255167   8.032   9.103   1.278  1.1190  1.8533  1.2046
18197SOL     OW55168   7.361   8.826   4.931 -0.3082  0.7324  0.7745
18197SOL    HW155169   7.355   8.783   4.846 -0.7259  0.6668  0.8300
18197SOL    HW255170   7.392   8.758   4.990  1.2814  1.1231  0.4409
18198SOL     OW55171   7.811   1.875   6.553 -0.0797  0.0566  0.2098
18198SOL    HW155172   7.842   1.900   6.466  1.5408 -1.0399  0.4371
18198SOL    HW255173   7.828   1.781   6.559 -1.7929 -0.2551  1.0795
18199SOL     OW55174   1.797   7.703   3.024 -0.1535 -0.0553 -0.0300
18199SOL    HW155175   1.849   7.623   3.013 -0.3647 -0.2603  0.4301
18199SOL    HW255176   1.748   7.710   2.942 -1.6830 -1.5448  0.6895
18200SOL     OW55177   4.291   4.186   7.526 -0.1049  0.1600 -0.3525
18200SOL    HW155178   4.298   4.280   7.511  3.6896 -0.3757 -3.8561
18200SOL    HW255179   4.203   4.164   7.497 -1.4086  2.6165  1.3741
18201SOL     OW55180   1.088   5.915   8.622 -0.2546  0.2506  0.9787
18201SOL    HW155181   1.016   5.963   8.664  0.2948  0.7224  1.4039
18201SOL    HW255182   1.068   5.917   8.529  0.2103  2.1102  0.8866
18202SOL     OW55183   9.306   7.165   5.245 -0.1345 -0.4668 -0.0488
18202SOL    HW155184   9.380   7.131   5.295 -0.1615  1.8480  1.7145
18202SOL    HW255185   9.346   7.219   5.177 -0.1273  1.3726  1.3475
18203SOL     OW55186   0.609   4.726   3.092 -0.3362 -0.1090  0.5590
18203SOL    HW155187   0.675   4.794   3.076 -2.4468  1.7114 -1.1786
18203SOL    HW255188   0.657   4.644   3.084  1.9751  1.1029  0.8660
18204SOL     OW55189   2.525   5.241   8.854  0.7108  0.3023  0.7815
18204SOL    HW155190   2.553   5.332   8.859  1.2356  0.2926 -1.1861
18204SOL    HW255191   2.442   5.243   8.806 -0.0223 -0.1530  1.9768
18205SOL     OW55192   4.072   8.498   0.886  0.1359 -0.0746  0.2470
18205SOL    HW155193   4.027   8.579   0.910 -1.6184 -1.7734  3.4221
18205SOL    HW255194   4.165   8.521   0.888 -0.1861  1.4912  3.2165
18206SOL     OW55195   2.171   4.933   5.365 -1.0646  0.5600 -0.1137
18206SOL    HW155196   2.170   5.007   5.426  1.0160  0.6877 -0.1740
18206SOL    HW255197   2.249   4.883   5.388 -0.9460 -0.1079 -1.8238
18207SOL     OW55198   1.200   1.743   2.564  0.2842 -0.0955 -0.0930
18207SOL    HW155199   1.231   1.755   2.654 -1.2987 -0.8196  0.5907
18207SOL    HW255200   1.191   1.833   2.530  1.5610  0.1674  0.1919
18208SOL     OW55201   9.532   2.225   8.109  0.1809 -0.4868 -0.1584
18208SOL    HW155202   9.447   2.269   8.107  0.0596 -0.7109 -1.7799
18208SOL    HW255203   9.554   2.217   8.201 -0.9463  0.7615  0.2377
18209SOL     OW55204   9.918   0.505   9.309 -0.5608 -0.1064  0.1665
18209SOL    HW155205   9.855   0.502   9.381  0.6994 -1.1190  1.2676
18209SOL    HW255206   9.989   0.448   9.337  1.8918  2.5989 -0.0892
18210SOL     OW55207   9.306   5.785   9.410 -0.4128 -0.2072  0.0344
18210SOL    HW155208   9.272   5.721   9.473 -0.5512 -0.7616 -0.5878
18210SOL    HW255209   9.253   5.771   9.331 -0.1185  0.3448 -0.2668
18211SOL     OW55210   7.536   1.359   7.345 -0.2761 -0.6557  0.0112
18211SOL    HW155211   7.566   1.412   7.271 -1.7336  0.9782  0.5145
18211SOL    HW255212   7.578   1.274   7.332 -0.1234 -0.2959 -2.4410
18212SOL     OW55213   6.616   7.344   9.433  0.7249  0.0194  0.4389
18212SOL    HW155214   6.533   7.323   9.389 -0.5614  2.6817  1.3633
18212SOL    HW255215   6.614   7.294   9.514 -0.1337  0.2380  0.5630
18213SOL     OW55216   3.499   2.652   6.979  0.0456 -0.2221  0.0617
18213SOL    HW155217   3.483   2.740   6.945  0.5224 -0.2362 -0.1968
18213SOL    HW255218   3.503   2.664   7.074 -2.0933 -0.3013  0.2046
18214SOL     OW55219   8.035   2.729   8.480  0.5140 -0.3493 -0.1688
18214SOL    HW155220   7.975   2.678   8.426 -1.5828  0.8737  0.8699
18214SOL    HW255221   8.031   2.688   8.567 -0.3285  0.8250  0.3842
18215SOL     OW55222   4.060   5.558   2.314  0.1599  0.1484 -0.6471
18215SOL    HW155223   4.065   5.470   2.276  0.0544  0.0505 -0.4422
18215SOL    HW255224   3.968   5.583   2.302 -0.8055 -1.2656  2.4928
18216SOL     OW55225   7.674   2.145   2.190  0.8294  0.1424 -0.1965
18216SOL    HW155226   7.650   2.078   2.254  1.4577  0.9997  0.9774
18216SOL    HW255227   7.738   2.199   2.235  1.6228  0.5218 -1.7240
18217SOL     OW55228   4.208   8.884   1.668 -0.4868 -0.0716  0.8069
18217SOL    HW155229   4.129   8.896   1.720 -1.0570  0.6713 -0.2010
18217SOL    HW255230   4.249   8.971   1.666 -1.6241  0.5157 -1.7422
18218SOL     OW55231   1.703   2.477   7.239  0.4766 -0.9350 -0.1998
18218SOL    HW155232   1.750   2.413   7.185 -4.1640 -2.5615 -2.9084
18218SOL    HW255233   1.634   2.426   7.282 -2.5530  1.8839 -1.3211
18219SOL     OW55234   6.533   8.590   6.774  0.1867 -0.1193  0.0971
18219SOL    HW155235   6.548   8.500   6.804 -0.6502 -0.1951  0.3345
18219SOL    HW255236   6.451   8.585   6.725  0.9685  0.2162 -1.2979
18220SOL     OW55237   5.195   5.593   6.443  0.1916 -0.2927  0.1127
18220SOL    HW155238   5.285   5.561   6.432  0.3508  0.2218 -0.1467
18220SOL    HW255239   5.168   5.559   6.528  0.6142 -0.5067  0.1660
18221SOL     OW55240   5.171   6.393   9.139  0.2027  0.5867  0.0742
18221SOL    HW155241   5.262   6.423   9.137  1.0901 -1.7517  1.5417
18221SOL    HW255242   5.160   6.347   9.056  0.6071  0.2575  0.1974
18222SOL     OW55243   7.643   9.426   7.023  0.2476  0.5549 -0.0856
18222SOL    HW155244   7.587   9.426   6.946 -0.3626  1.4981  0.3429
18222SOL    HW255245   7.727   9.391   6.992  0.0816  1.1343 -1.2203
18223SOL     OW55246   5.975   9.893   5.342 -0.2778  0.2711  0.1151
18223SOL    HW155247   6.067   9.885   5.364 -0.1463 -0.5477 -0.6650
18223SOL    HW255248   5.931   9.823   5.391 -0.3065 -0.0809 -0.3965
18224SOL     OW55249   7.329   8.511   4.834 -0.1056 -0.0326 -0.0121
18224SOL    HW155250   7.348   8.431   4.786 -0.6463  0.1353 -0.5197
18224SOL    HW255251   7.281   8.482   4.911 -0.6431 -0.1763 -0.3899
18225SOL     OW55252   6.088   9.583   2.363  0.1857  0.8713 -0.3013
18225SOL    HW155253   6.097   9.577   2.268 -1.5235 -3.8884 -0.3839
18225SOL    HW255254   6.178   9.592   2.395  1.1201 -0.6327 -2.3085
18226SOL     OW55255   7.179   0.372   5.462  0.4358 -0.2101  0.5724
18226SOL    HW155256   7.133   0.360   5.379 -0.1155  2.5777  0.3976
18226SOL    HW255257   7.234   0.448   5.449 -0.6276  1.1159  3.0978
18227SOL     OW55258   1.333   1.836   1.681 -0.7978  0.4662  0.1526
18227SOL    HW155259   1.384   1.916   1.666  0.2447  0.2288  2.1151
18227SOL    HW255260   1.396   1.774   1.717 -1.8952 -0.8131 -0.0682
18228SOL     OW55261   1.031   4.399   5.432 -0.2678 -0.6328  0.1037
18228SOL    HW155262   1.026   4.458   5.507  0.4969  0.9506 -1.0317
18228SOL    HW255263   0.940   4.383   5.408 -0.5296 -1.3790  1.5024
18229SOL     OW55264   5.321   3.073   0.909  0.1025 -0.5133  0.0895
18229SOL    HW155265   5.398   3.114   0.869  0.4646 -0.3560  0.9193
18229SOL    HW255266   5.358   3.006   0.967 -0.3118  0.4207  1.4844
18230SOL     OW55267   6.373   9.804   6.687 -0.3806  0.0614  0.2902
18230SOL    HW155268   6.278   9.807   6.674 -0.4832 -2.0149  0.2832
18230SOL    HW255269   6.406   9.760   6.609  0.8511  2.4329 -0.6316
18231SOL     OW55270   8.465   6.603   3.440  0.0085  0.2264 -0.0456
18231SOL    HW155271   8.469   6.527   3.381 -0.2026  1.4476 -1.6922
18231SOL    HW255272   8.543   6.653   3.420  0.1966  0.4161  1.1081
18232SOL     OW55273   3.061   4.221   2.893  0.0592  0.2168  0.2232
18232SOL    HW155274   3.105   4.306   2.896 -0.6707  0.5886  0.5687
18232SOL    HW255275   3.092   4.176   2.972  2.3526 -0.8293 -1.1696
18233SOL     OW55276   6.141   2.008   9.235  0.0744 -0.1592  0.4162
18233SOL    HW155277   6.234   2.011   9.254  0.0331 -1.0175  0.7948
18233SOL    HW255278   6.133   1.950   9.159 -0.0655  0.7253 -0.2655
18234SOL     OW55279   0.256   3.892   0.026  0.3911 -0.4689  0.0334
18234SOL    HW155280   0.231   3.900   0.118 -0.4142 -2.3737  0.0313
18234SOL    HW255281   0.178   3.921  -0.022  1.6519  3.0210 -0.1798
18235SOL     OW55282   3.713   1.473   3.501  0.0291 -0.1494 -0.6495
18235SOL    HW155283   3.695   1.540   3.567  0.7461  1.6572 -2.1957
18235SOL    HW255284   3.769   1.409   3.545 -0.8093  0.1513  0.9111
18236SOL     OW55285   8.032   4.579   3.195  0.1634 -0.0857  0.1190
18236SOL    HW155286   8.005   4.669   3.175  1.3446  0.2176 -0.1987
18236SOL    HW255287   7.987   4.525   3.130 -0.4948  0.2831  0.2669
18237SOL     OW55288   1.732   4.538   5.072 -0.4674 -0.0947 -0.2699
18237SOL    HW155289   1.709   4.484   4.997  0.4165 -2.8133  1.2569
18237SOL    HW255290   1.823   4.563   5.057 -0.3672 -0.4335 -0.2361
18238SOL     OW55291   3.146   1.799   8.543 -0.3174  0.3386 -0.9442
18238SOL    HW155292   3.168   1.887   8.574 -0.8611 -0.0503  0.6392
18238SOL    HW255293   3.208   1.741   8.587 -1.8315 -0.3424  0.4175
18239SOL     OW55294   8.492   5.076   6.255  0.1891 -0.0156  0.2544
18239SOL    HW155295   8.441   5.003   6.291 -0.7517  0.7058  0.4320
18239SOL    HW255296   8.576   5.037   6.229 -0.9339 -1.5197 -1.3336
18240SOL     OW55297   5.448   4.486   4.148  0.1884 -0.5557  0.0614
18240SOL    HW155298   5.465   4.569   4.104  2.7839 -0.8635  0.3279
18240SOL    HW255299   5.419   4.426   4.079  0.0277  0.0913 -0.4341
18241SOL     OW55300   1.626   5.809   3.330  0.1759 -0.0539  0.5710
18241SOL    HW155301   1.600   5.882   3.387 -0.7800 -0.9373  1.3012
18241SOL    HW255302   1.545   5.762   3.313  0.5733 -0.2785 -0.9011
18242SOL     OW55303   1.937   5.893   3.599 -0.4421  0.2303 -0.1510
18242SOL    HW155304   1.959   5.868   3.509 -1.8197  0.2538 -0.5138
18242SOL    HW255305   1.931   5.810   3.646 -1.1036  0.1282 -0.4142
18243SOL     OW55306   9.460   9.738   0.792 -0.2318 -0.5202 -0.3475
18243SOL    HW155307   9.365   9.735   0.803 -0.1980 -0.5273 -0.0632
18243SOL    HW255308   9.480   9.664   0.735 -0.4858 -0.0440 -1.0678
18244SOL     OW55309   4.577   4.968   9.561 -0.1486  0.2344  0.0022
18244SOL    HW155310   4.668   4.960   9.587 -0.8720  0.2071  2.8598
18244SOL    HW255311   4.549   4.879   9.541 -0.3349 -0.2525  2.2417
18245SOL     OW55312   2.754   4.857   4.689  0.4889  0.0003 -0.4973
18245SOL    HW155313   2.802   4.923   4.640  2.4665 -2.0499 -1.4945
18245SOL    HW255314   2.794   4.858   4.776 -0.5483  1.0953  0.0141
18246SOL     OW55315   0.796   5.734   1.120 -0.2472 -0.1465 -0.0567
18246SOL    HW155316   0.806   5.821   1.159  1.6518  0.8887 -2.5912
18246SOL    HW255317   0.710   5.737   1.077  0.5000  1.1888 -1.5860
18247SOL     OW55318   5.234   1.264   4.197  0.3822 -0.1571 -0.6666
18247SOL    HW155319   5.188   1.348   4.199 -1.7267 -1.2525  0.0402
18247SOL    HW255320   5.248   1.247   4.104 -2.0905 -0.4579 -1.0542
18248SOL     OW55321   8.917   4.786   4.114  0.0690 -0.0319  0.0914
18248SOL    HW155322   8.980   4.781   4.185 -1.1922  0.2782  1.2728
18248SOL    HW255323   8.914   4.879   4.091  0.7962 -0.1918 -0.6812
18249SOL     OW55324   5.185   1.567   0.528 -0.2292  0.6002 -0.2777
18249SOL    HW155325   5.244   1.503   0.488 -0.4905 -0.4480  0.9327
18249SOL    HW255326   5.101   1.521   0.536 -0.9373  1.7252 -1.0291
18250SOL     OW55327   3.179   7.168   9.556  0.9154  0.4029 -0.0705
18250SOL    HW155328   3.124   7.097   9.524  2.1705 -1.1603  1.0704
18250SOL    HW255329   3.235   7.192   9.482 -1.3542  2.2044 -1.3356
18251SOL     OW55330   4.150   5.363   1.347  0.0752 -0.1004  0.1404
18251SOL    HW155331   4.178   5.389   1.259  0.3175 -0.6971  0.0349
18251SOL    HW255332   4.181   5.434   1.404 -2.1160  1.4693 -0.5091
18252SOL     OW55333   4.626   7.909   2.761  0.3596 -0.0749  0.5007
18252SOL    HW155334   4.584   7.833   2.720  0.6243 -0.1019  0.2735
18252SOL    HW255335   4.557   7.976   2.763  0.5960  0.2428 -0.8568
18253SOL     OW55336   1.412   6.018   0.038 -0.0141 -0.3340 -0.1469
18253SOL    HW155337   1.423   6.029   0.132  1.4441 -1.7877 -0.1182
18253SOL    HW255338   1.396   5.924   0.026  0.9083 -0.3511 -1.4340
18254SOL     OW55339   1.063   2.374   4.029  0.2700  0.0280 -0.0196
18254SOL    HW155340   1.109   2.414   3.954  0.0388 -0.9227 -0.6833
18254SOL    HW255341   0.972   2.400   4.017  0.4470  1.0595  0.7344
18255SOL     OW55342   3.338   1.279   7.280 -0.3434 -0.3331 -0.6483
18255SOL    HW155343   3.402   1.324   7.335 -1.4996 -0.1369  0.6105
18255SOL    HW255344   3.364   1.298   7.191  1.9161 -1.0741 -0.1995
18256SOL     OW55345   3.401   6.874   6.053  0.4189 -0.2165  0.2547
18256SOL    HW155346   3.370   6.962   6.030  0.5684 -0.1992  0.1217
18256SOL    HW255347   3.436   6.839   5.971 -0.1804 -0.6236  0.1643
18257SOL     OW55348   5.448   7.089   1.398 -0.4215 -0.3352 -0.1525
18257SOL    HW155349   5.404   7.010   1.429 -0.9533 -0.1424 -0.3870
18257SOL    HW255350   5.531   7.091   1.444 -1.3848  0.2093  1.6447
18258SOL     OW55351   1.474   4.272   2.718 -0.0636  0.5920  0.2619
18258SOL    HW155352   1.557   4.269   2.767 -0.1438  1.7011  0.4979
18258SOL    HW255353   1.466   4.363   2.691 -0.4173  0.1600 -1.1620
18259SOL     OW55354   4.642   3.904   6.862 -0.4242  0.4871 -0.4291
18259SOL    HW155355   4.727   3.916   6.904 -1.5600  0.2602  2.1113
18259SOL    HW255356   4.642   3.966   6.789  2.0979  0.0730 -0.8651
18260SOL     OW55357   3.930   2.103   9.896  0.2534  0.3907  0.9576
18260SOL    HW155358   3.981   2.185   9.893  0.8533 -0.0088 -0.5129
18260SOL    HW255359   3.839   2.131   9.886  0.3466  0.9649  1.6404
18261SOL     OW55360   8.730   9.632   4.308  0.3668 -0.0782  0.0077
18261SOL    HW155361   8.824   9.618   4.293  0.1841 -0.6809 -0.6092
18261SOL    HW255362   8.687   9.591   4.233 -0.4232 -0.3815  0.6097
18262SOL     OW55363   8.489   7.439   0.599 -0.4512 -0.6961  0.2648
18262SOL    HW155364   8.499   7.524   0.641 -3.1874 -0.8721  1.4814
18262SOL    HW255365   8.577   7.417   0.568  1.3007  0.5739  3.7852
18263SOL     OW55366   6.106   8.235   3.863 -0.3719  0.0350 -0.2718
18263SOL    HW155367   6.125   8.197   3.949 -0.1360  0.6269 -0.0565
18263SOL    HW255368   6.032   8.185   3.830 -0.2941 -0.3720  0.1621
18264SOL     OW55369   0.562   9.042   7.924  0.1069 -0.0401  0.5107
18264SOL    HW155370   0.649   9.006   7.939  0.1561  0.0906  0.5374
18264SOL    HW255371   0.504   8.986   7.976 -0.0213 -1.0893 -0.7237
18265SOL     OW55372   0.310   3.963   7.474  0.1401  0.0490 -0.1793
18265SOL    HW155373   0.399   3.990   7.499  0.2921  0.4918 -1.1437
18265SOL    HW255374   0.292   4.012   7.394 -0.7766 -0.4486 -0.2904
18266SOL     OW55375   3.991   5.380   9.883  0.0835 -0.0680  0.1158
18266SOL    HW155376   3.947   5.432   9.950  1.0101  0.2119  0.5240
18266SOL    HW255377   4.049   5.441   9.838  0.0092 -0.4115 -0.4627
18267SOL     OW55378   1.729   0.954   4.292 -0.5131 -0.1545  0.2660
18267SOL    HW155379   1.749   0.963   4.198  1.2900 -2.0347  0.4081
18267SOL    HW255380   1.751   1.039   4.329  0.0263  0.2062 -0.8217
18268SOL     OW55381   9.622   0.516   5.473 -0.0365  0.0621  0.0803
18268SOL    HW155382   9.596   0.539   5.562  0.7976  0.1691  0.3088
18268SOL    HW255383   9.589   0.588   5.419 -0.8929 -0.2044  0.2418
18269SOL     OW55384   0.813   5.763   3.777 -0.1789 -0.1111 -0.2821
18269SOL    HW155385   0.726   5.803   3.779 -0.8159 -1.4637  0.2726
18269SOL    HW255386   0.867   5.825   3.728 -1.7863  0.1007 -1.8819
18270SOL     OW55387   1.187   2.114   0.447  0.0446  0.0494  0.2485
18270SOL    HW155388   1.195   2.089   0.539  0.4773  0.1291  0.2365
18270SOL    HW255389   1.274   2.100   0.411 -0.0855  0.1622 -0.1147
18271SOL     OW55390   1.285   6.510   6.533 -0.3582 -0.2033 -0.9467
18271SOL    HW155391   1.245   6.597   6.527 -0.2320 -0.1845 -1.6369
18271SOL    HW255392   1.292   6.481   6.442  2.0462  0.1775 -0.9350
18272SOL     OW55393   0.877   0.068   6.984 -0.1152  0.0074  0.0080
18272SOL    HW155394   0.829   0.059   6.902 -0.6225 -1.0023  0.3975
18272SOL    HW255395   0.969   0.063   6.958 -0.2847 -2.6402 -0.2884
18273SOL     OW55396   2.413   6.642   1.101 -0.6237 -0.2524  0.0270
18273SOL    HW155397   2.447   6.591   1.027 -0.3076 -0.4290  0.2897
18273SOL    HW255398   2.471   6.619   1.174 -1.3507 -0.6139  0.4985
18274SOL     OW55399   8.567   7.314   1.897  0.5093 -1.0769 -0.0120
18274SOL    HW155400   8.568   7.254   1.972  1.0199  0.0654  0.9247
18274SOL    HW255401   8.593   7.399   1.934  0.1037 -0.3413 -1.3624
18275SOL     OW55402   0.445   6.713   9.357 -0.2423  0.0170 -0.0586
18275SOL    HW155403   0.540   6.701   9.356 -0.1483  0.6481  0.4610
18275SOL    HW255404   0.428   6.765   9.436 -0.8768  1.0560 -0.8453
18276SOL     OW55405   7.402   9.943   0.075 -0.5637  0.4391 -0.0581
18276SOL    HW155406   7.487   9.906   0.051 -0.2662  1.0780 -0.0171
18276SOL    HW255407   7.423  10.017   0.132 -1.2365 -0.5967  1.6011
18277SOL     OW55408   7.876   0.285   5.606 -0.3976  0.0675  0.4488
18277SOL    HW155409   7.856   0.219   5.540 -0.1921 -0.9912  1.4172
18277SOL    HW255410   7.959   0.323   5.578 -0.8812  0.4558 -0.5100
18278SOL     OW55411   4.640   1.103   2.480 -0.1020 -0.4921  0.0193
18278SOL    HW155412   4.723   1.139   2.511 -0.0522 -0.0738 -0.5692
18278SOL    HW255413   4.606   1.169   2.420 -1.7544  0.1695  1.5881
18279SOL     OW55414   3.748   3.651   1.532 -0.3820  0.0702 -0.4166
18279SOL    HW155415   3.802   3.575   1.554 -0.4165  0.1476 -0.0619
18279SOL    HW255416   3.802   3.726   1.555  0.1679  0.1866 -1.9605
18280SOL     OW55417   0.100   5.889   5.575  0.4970  0.0212 -0.3522
18280SOL    HW155418   0.064   5.857   5.492 -3.0043 -0.6837  1.2460
18280SOL    HW255419   0.079   5.819   5.637 -0.0968  1.9657  1.7424
18281SOL     OW55420   5.901   6.595   6.301  0.3606 -0.5994 -0.5142
18281SOL    HW155421   5.860   6.509   6.313  0.1956 -0.3908  0.5689
18281SOL    HW255422   5.938   6.616   6.387 -2.1194  1.6715  0.1381
18282SOL     OW55423   5.695   5.792   1.113  0.3540  0.0248  0.2166
18282SOL    HW155424   5.671   5.748   1.195  2.3863 -1.7957 -0.1099
18282SOL    HW255425   5.612   5.828   1.081 -0.8828 -1.1184  1.9496
18283SOL     OW55426   8.434   8.331   6.086 -0.3882 -0.1681  0.2416
18283SOL    HW155427   8.502   8.398   6.079 -1.6360  1.1482  0.3361
18283SOL    HW255428   8.352   8.379   6.083 -1.3510 -1.7492 -0.1934
18284SOL     OW55429   9.808   3.834   0.773  0.1873  0.4077 -0.5181
18284SOL    HW155430   9.819   3.746   0.738  0.2212  0.3823 -0.4449
18284SOL    HW255431   9.799   3.822   0.867 -1.6246  0.3312 -0.6724
18285SOL     OW55432   8.191   3.567   5.809  0.0331 -0.3736  0.4989
18285SOL    HW155433   8.112   3.541   5.857 -0.6041  0.6266  0.0211
18285SOL    HW255434   8.163   3.570   5.718  0.9246 -1.0742  0.1876
18286SOL     OW55435   7.123   3.877   5.916 -0.0181  0.5157  0.6683
18286SOL    HW155436   7.119   3.908   6.006 -0.6396  0.4524  0.6691
18286SOL    HW255437   7.203   3.915   5.880  0.1685  0.6333  1.2125
18287SOL     OW55438   5.168   9.199   8.789  0.2196 -0.0927  0.0748
18287SOL    HW155439   5.135   9.134   8.851  1.5475 -1.3531 -0.4753
18287SOL    HW255440   5.176   9.279   8.840  0.1875 -0.8064  1.2354
18288SOL     OW55441   2.454   0.276   4.321 -0.3759  0.5538  0.2902
18288SOL    HW155442   2.529   0.315   4.275  0.6042  0.9705  2.1272
18288SOL    HW255443   2.394   0.349   4.334 -1.5394  0.0745 -1.8457
18289SOL     OW55444   5.813   1.131   4.316 -0.0279  0.4363  0.1462
18289SOL    HW155445   5.878   1.174   4.372  1.9364 -3.0788  0.8500
18289SOL    HW255446   5.767   1.071   4.375 -0.2333 -0.9352 -1.3373
18290SOL     OW55447   8.503   7.828   8.141  0.2113 -0.0490 -0.1076
18290SOL    HW155448   8.571   7.883   8.102 -1.0938  1.0138 -0.9530
18290SOL    HW255449   8.527   7.739   8.113  1.4833  0.2443 -0.0232
18291SOL     OW55450   5.010   7.024   4.788  0.4355 -0.0157 -0.2076
18291SOL    HW155451   5.039   7.112   4.808 -1.5802  0.7016 -0.2043
18291SOL    HW255452   5.049   6.969   4.856  0.6066  1.0859  0.5918
18292SOL     OW55453   3.226   2.243   2.083  0.0889 -0.3071  0.0438
18292SOL    HW155454   3.254   2.234   2.175  0.0028  0.1395  0.1154
18292SOL    HW255455   3.135   2.214   2.083 -0.4112  1.1468  0.4094
18293SOL     OW55456   3.202   0.831   0.710  0.4228  0.1816 -0.0399
18293SOL    HW155457   3.245   0.906   0.668 -0.3697  1.0376  0.6304
18293SOL    HW255458   3.222   0.841   0.803  0.4065 -0.5211  0.0459
18294SOL     OW55459   0.572   5.630   8.810 -0.0557 -0.7267 -0.3487
18294SOL    HW155460   0.529   5.545   8.800  0.6090 -1.0418 -0.5514
18294SOL    HW255461   0.653   5.622   8.760  0.5425 -0.3461  0.5424
18295SOL     OW55462   9.140   0.856   9.898 -0.1258 -0.4125  0.3013
18295SOL    HW155463   9.103   0.878   9.984  3.0298  1.9308  1.2492
18295SOL    HW255464   9.173   0.767   9.908  0.5022 -0.0412  1.6401
18296SOL     OW55465   2.576   7.822   1.590  0.0933  0.5257  0.0289
18296SOL    HW155466   2.533   7.737   1.590  1.8887 -0.5403 -2.5269
18296SOL    HW255467   2.647   7.813   1.653  0.3709  0.0327 -0.3412
18297SOL     OW55468   7.119   1.763   9.426  0.3976 -0.3317 -0.3931
18297SOL    HW155469   7.163   1.846   9.444  2.0067 -1.1541 -0.3512
18297SOL    HW255470   7.133   1.711   9.505 -1.2565 -0.3969 -0.1122
18298SOL     OW55471   9.121   9.121   8.346  0.2411 -0.0132  0.3409
18298SOL    HW155472   9.186   9.113   8.276  1.8122  2.0202  1.4579
18298SOL    HW255473   9.097   9.213   8.346 -1.2692 -0.3739  1.1862
18299SOL     OW55474   7.745   5.462   4.137 -0.2985 -0.0387  0.0622
18299SOL    HW155475   7.810   5.518   4.181 -0.3150  2.3713 -2.7000
18299SOL    HW255476   7.676   5.449   4.202  0.6460  1.5278  1.4423
18300SOL     OW55477   0.124   2.471   4.421 -0.4909  0.7207  1.1268
18300SOL    HW155478   0.210   2.509   4.402  0.2110 -1.1424  0.2648
18300SOL    HW255479   0.065   2.546   4.425  0.7676  1.8995 -0.5752
18301SOL     OW55480   7.595   2.855   6.364  0.2819  0.7114  0.3121
18301SOL    HW155481   7.559   2.789   6.305 -1.5948 -0.5354  2.6758
18301SOL    HW255482   7.656   2.807   6.420  0.8522  1.5376  0.4214
18302SOL     OW55483   8.912   9.458   5.308  0.4916 -0.3600  0.9214
18302SOL    HW155484   8.959   9.412   5.238  2.0081 -0.6661  2.0940
18302SOL    HW255485   8.937   9.412   5.388 -1.1828  0.0033  1.6966
18303SOL     OW55486   6.248   9.946   2.326  0.3658 -0.0617 -0.1639
18303SOL    HW155487   6.333   9.948   2.370  0.2948 -1.3714  0.0665
18303SOL    HW255488   6.264   9.900   2.244 -0.3161 -1.2776  0.3616
18304SOL     OW55489   5.019   2.768   6.650 -0.3920  0.8059  0.6785
18304SOL    HW155490   5.006   2.862   6.658 -0.4260  0.9693 -0.9864
18304SOL    HW255491   5.114   2.756   6.650 -0.3678  0.9456  0.0541
18305SOL     OW55492   7.568   6.509   9.477 -0.6784 -0.2054 -0.2871
18305SOL    HW155493   7.579   6.425   9.432 -1.0322 -0.9422  0.9244
18305SOL    HW255494   7.542   6.570   9.409  0.3796 -0.8902 -1.3342
18306SOL     OW55495   8.247   7.709   6.815  0.8116 -0.0637 -0.0813
18306SOL    HW155496   8.220   7.658   6.891 -0.4511  0.2052 -0.3280
18306SOL    HW255497   8.251   7.645   6.744  1.4545 -0.2173  0.0914
18307SOL     OW55498   2.040   1.752   6.823  0.2267  0.4847  0.5388
18307SOL    HW155499   1.989   1.702   6.887 -0.5138 -0.8636 -1.0488
18307SOL    HW255500   2.130   1.724   6.837  0.2202  0.9423  1.6196
18308SOL     OW55501   8.800   6.830   5.289 -0.5017  0.6956  0.5568
18308SOL    HW155502   8.852   6.828   5.209 -0.3867  1.2489  0.6115
18308SOL    HW255503   8.736   6.759   5.278 -0.3276  0.6082  0.0865
18309SOL     OW55504   4.636   2.772  -0.010  0.2582  0.3342  0.0949
18309SOL    HW155505   4.717   2.753   0.039  0.1113  1.4447  0.8133
18309SOL    HW255506   4.577   2.808   0.056 -1.8543 -2.9515  0.1969
18310SOL     OW55507   7.791   9.191   3.987  0.0008  0.2184  0.1150
18310SOL    HW155508   7.842   9.266   3.956  0.3018 -0.0872 -0.1327
18310SOL    HW255509   7.706   9.201   3.944  0.2847  0.0161 -0.5036
18311SOL     OW55510   8.547   7.066   9.484  0.4819  0.1821  0.4668
18311SOL    HW155511   8.609   6.995   9.466 -1.5976 -1.4849 -0.4587
18311SOL    HW255512   8.514   7.091   9.397 -1.7876 -0.5542  1.0603
18312SOL     OW55513   5.155   3.966   0.783  0.6251 -0.2086 -0.5203
18312SOL    HW155514   5.236   3.937   0.740  1.2974  0.7269  0.0579
18312SOL    HW255515   5.128   4.043   0.733  2.5584  2.1984  1.7690
18313SOL     OW55516   2.306   8.538   8.121 -0.3149  0.0955  0.2900
18313SOL    HW155517   2.270   8.455   8.091 -1.5120  0.3033  1.0866
18313SOL    HW255518   2.370   8.514   8.187  0.4303 -0.2376 -0.5233
18314SOL     OW55519   5.964   0.735   3.176 -0.3478 -0.5625 -0.0114
18314SOL    HW155520   5.910   0.664   3.212 -0.2026 -0.9568 -0.5522
18314SOL    HW255521   5.908   0.777   3.111  0.0809 -1.1642 -0.7931
18315SOL     OW55522   7.197   1.360   0.269 -0.1680 -0.6862  0.1140
18315SOL    HW155523   7.120   1.382   0.321  1.4473  0.0753  2.3536
18315SOL    HW255524   7.228   1.444   0.234  1.1648 -0.5174  1.5692
18316SOL     OW55525   9.289   7.578   1.729 -0.7473 -0.1531 -0.4146
18316SOL    HW155526   9.239   7.505   1.691  1.2859 -1.2379 -1.1946
18316SOL    HW255527   9.356   7.597   1.664  1.3591 -0.4111  1.5605
18317SOL     OW55528   7.124   7.640   3.755  0.8737  0.5638 -0.2506
18317SOL    HW155529   7.169   7.651   3.671  0.3508 -0.1773 -0.6447
18317SOL    HW255530   7.108   7.728   3.786  2.7410  0.8720 -0.0134
18318SOL     OW55531   6.952   1.260   9.494  0.4613 -0.1299  0.4663
18318SOL    HW155532   6.955   1.335   9.554 -1.4860 -0.1429  0.6272
18318SOL    HW255533   6.938   1.184   9.551  1.0319 -0.4563  0.1823
18319SOL     OW55534   6.215   0.097   9.310 -0.2475 -0.3108  0.1844
18319SOL    HW155535   6.144   0.109   9.247 -3.7220  3.8548  4.2276
18319SOL    HW255536   6.187   0.023   9.364 -0.3232 -0.0899  0.4450
18320SOL     OW55537   8.120   5.190   1.521 -0.2650 -0.0815 -0.0300
18320SOL    HW155538   8.196   5.138   1.547  0.3429  0.1597 -1.2349
18320SOL    HW255539   8.114   5.259   1.586 -0.4956 -1.0825  1.0410
18321SOL     OW55540   6.831   1.677   6.349  0.0787  0.3307  0.1852
18321SOL    HW155541   6.814   1.770   6.362 -1.3546 -0.0814  1.6365
18321SOL    HW255542   6.894   1.654   6.417  2.1448  0.6475 -1.5441
18322SOL     OW55543   7.426   8.971   7.120  0.3703  0.5249  0.3965
18322SOL    HW155544   7.445   8.947   7.211  1.3636 -0.2744 -0.0081
18322SOL    HW255545   7.444   8.892   7.069 -0.9678  0.7116 -0.4256
18323SOL     OW55546   9.333   1.620   0.566  0.1557 -0.0816 -0.4240
18323SOL    HW155547   9.416   1.599   0.522  0.5819 -1.1212  0.8085
18323SOL    HW255548   9.316   1.711   0.542  0.7549 -0.3629 -2.0850
18324SOL     OW55549   8.937   9.912   5.130 -1.0255  0.2065 -0.0415
18324SOL    HW155550   8.930   9.817   5.134 -1.8343  0.2203 -1.0059
18324SOL    HW255551   8.977   9.936   5.214 -1.2900 -0.9290  0.4268
18325SOL     OW55552   5.317   0.895   5.020  0.1886  0.1437  0.1607
18325SOL    HW155553   5.238   0.903   4.966 -0.9070  0.3676  1.7101
18325SOL    HW255554   5.340   0.802   5.016  0.0589  0.1408 -0.5837
18326SOL     OW55555   5.970   2.670   3.056 -0.0051 -0.1759  0.1137
18326SOL    HW155556   5.902   2.615   3.094  0.1245 -0.2780  0.1979
18326SOL    HW255557   5.922   2.743   3.015 -0.1108  0.4564  1.3058
18327SOL     OW55558   1.817   3.117   2.511 -0.7666  0.1682 -0.0015
18327SOL    HW155559   1.899   3.121   2.462 -1.0952  1.5876 -0.4928
18327SOL    HW255560   1.782   3.207   2.507 -2.0397 -0.2651  0.7082
18328SOL     OW55561   0.105   4.077   2.449  0.0419  0.6652 -0.5873
18328SOL    HW155562   0.068   4.045   2.367 -0.5732  1.5155 -0.6433
18328SOL    HW255563   0.043   4.142   2.481  0.7149  0.9899  0.1042
18329SOL     OW55564   6.199   8.874   4.361  0.1996  0.3007  0.9745
18329SOL    HW155565   6.184   8.783   4.338 -1.7540  0.8351 -0.1123
18329SOL    HW255566   6.267   8.903   4.301 -1.2310  0.2875 -0.7425
18330SOL     OW55567   8.419   2.447   4.232  0.4761  0.5627 -0.4084
18330SOL    HW155568   8.460   2.426   4.316 -0.2897  1.0210  0.0899
18330SOL    HW255569   8.400   2.540   4.237  1.5444  0.8818 -1.5991
18331SOL     OW55570   1.639   6.864   7.040  0.2410 -0.1714  0.5907
18331SOL    HW155571   1.622   6.772   7.019  0.2520 -0.1394  0.4432
18331SOL    HW255572   1.647   6.907   6.955  1.9786 -0.3542  0.6183
18332SOL     OW55573   8.615   8.463   0.190 -0.0902 -0.2976 -0.2555
18332SOL    HW155574   8.660   8.543   0.163  0.1052 -0.3856 -0.1973
18332SOL    HW255575   8.623   8.404   0.115  2.1518 -1.2478  0.6321
18333SOL     OW55576   4.352   4.632   2.704 -0.2355 -0.2028 -0.0288
18333SOL    HW155577   4.430   4.576   2.707  0.5417  0.7924 -0.9567
18333SOL    HW255578   4.378   4.711   2.752 -0.6043  0.2122 -0.5005
18334SOL     OW55579   9.989   0.190   0.034 -0.0751  0.6764 -0.1977
18334SOL    HW155580   9.908   0.143   0.052  0.3359 -0.5059 -1.3166
18334SOL    HW255581   9.961   0.269  -0.012 -0.5608  0.0547 -0.9775
18335SOL     OW55582   9.447   8.186   1.133 -0.2281 -0.0394  0.3714
18335SOL    HW155583   9.475   8.152   1.218  0.2757  0.7190  0.5206
18335SOL    HW255584   9.505   8.144   1.070  2.6999  2.9612  0.8354
18336SOL     OW55585   8.287   8.252   4.440  0.2675  0.0439 -0.2343
18336SOL    HW155586   8.357   8.205   4.394 -0.3216  0.7743 -1.9515
18336SOL    HW255587   8.329   8.332   4.472  0.6788 -0.4631  0.5204
18337SOL     OW55588   1.402   3.654   7.351 -0.3042 -0.4798 -0.0657
18337SOL    HW155589   1.311   3.624   7.349 -0.7239  0.6184  1.3011
18337SOL    HW255590   1.414   3.699   7.267 -0.5962 -1.7423 -0.8083
18338SOL     OW55591   9.356   0.358   0.193 -0.6746  0.2587 -0.4266
18338SOL    HW155592   9.377   0.451   0.203 -0.3399  0.2022 -0.5918
18338SOL    HW255593   9.426   0.313   0.240 -0.4256  0.0675 -0.9747
18339SOL     OW55594   9.385   6.001   2.134  0.2763  0.3374  0.0836
18339SOL    HW155595   9.290   5.989   2.134  0.2478  0.3826 -1.7415
18339SOL    HW255596   9.404   6.038   2.221 -1.5212  1.4923  0.0305
18340SOL     OW55597   2.370   1.890   2.165 -0.5690 -0.5782  0.3675
18340SOL    HW155598   2.451   1.942   2.165 -0.1526 -0.9660 -2.9858
18340SOL    HW255599   2.309   1.942   2.113 -1.1595 -2.0130 -0.4148
18341SOL     OW55600   6.285   8.055   4.791  0.2963 -0.2512 -0.6746
18341SOL    HW155601   6.231   7.977   4.778  0.1025 -0.1588 -0.4032
18341SOL    HW255602   6.371   8.029   4.756 -0.2358  0.0184 -2.2521
18342SOL     OW55603   1.344   9.598   9.075  0.6131 -0.3568 -0.0613
18342SOL    HW155604   1.404   9.612   9.002  1.4015 -0.3863  0.5704
18342SOL    HW255605   1.291   9.678   9.078  0.4756 -0.4173 -0.7459
18343SOL     OW55606   3.554   3.225   6.264  0.4819 -0.3751 -0.5590
18343SOL    HW155607   3.472   3.195   6.224 -0.1315  0.2674  0.1776
18343SOL    HW255608   3.604   3.263   6.192 -1.2142  2.1031 -0.5609
18344SOL     OW55609   6.086   8.542   1.346 -0.1630 -0.3340  0.0387
18344SOL    HW155610   6.164   8.549   1.402 -0.1876 -0.4425  0.0868
18344SOL    HW255611   6.038   8.623   1.362  0.3511  0.1071 -0.6173
18345SOL     OW55612   0.883   4.769   9.616 -0.1399 -0.5925  0.3044
18345SOL    HW155613   0.834   4.852   9.612 -0.3714 -0.7645 -0.6558
18345SOL    HW255614   0.864   4.735   9.704 -1.5543 -0.5346  0.0474
18346SOL     OW55615   2.787   1.724   3.327  0.2309 -0.2648  0.3302
18346SOL    HW155616   2.766   1.636   3.360  0.4374 -1.0261 -1.4866
18346SOL    HW255617   2.746   1.783   3.391  0.4731 -1.6532  1.8401
18347SOL     OW55618   0.065   0.112   9.636  0.2458  0.6251 -0.4086
18347SOL    HW155619   0.013   0.154   9.568  0.9921  0.0505 -1.3430
18347SOL    HW255620   0.023   0.027   9.651  0.1536  0.7004 -0.2346
18348SOL     OW55621   2.884   8.304   1.726  0.1850  0.3371 -0.1964
18348SOL    HW155622   2.928   8.382   1.691 -0.3932  0.7220 -0.0670
18348SOL    HW255623   2.800   8.302   1.682  0.1200 -0.1062 -0.0522
18349SOL     OW55624   5.449   8.741   4.233 -0.8806  0.1442 -0.1957
18349SOL    HW155625   5.540   8.713   4.239 -1.4361 -1.6388  0.5447
18349SOL    HW255626   5.454   8.835   4.217  1.0908 -0.0641 -1.1486
18350SOL     OW55627   6.466   3.754   3.840  0.3489  0.4420  0.1755
18350SOL    HW155628   6.547   3.744   3.790 -1.0941 -1.4768 -1.9894
18350SOL    HW255629   6.415   3.818   3.790  0.4787  1.6622  1.5374
18351SOL     OW55630   1.096   1.536   1.759  0.2839 -0.2252 -0.2091
18351SOL    HW155631   1.171   1.477   1.749 -0.4879 -1.0577 -1.2734
18351SOL    HW255632   1.089   1.549   1.853  2.7138  1.1460 -0.1185
18352SOL     OW55633   4.859   8.691   2.490  0.3661  0.1536 -0.1413
18352SOL    HW155634   4.798   8.713   2.560 -0.8419 -0.8402 -0.8160
18352SOL    HW255635   4.867   8.595   2.495  1.4327  0.2213 -0.4167
18353SOL     OW55636   1.781   2.282   1.296 -0.1659  0.0839 -0.4173
18353SOL    HW155637   1.790   2.206   1.238  0.4934  0.0826 -0.3165
18353SOL    HW255638   1.832   2.350   1.253  0.9036 -0.1142  0.5096
18354SOL     OW55639   8.334   7.273   1.782 -0.0218 -0.1851 -0.3604
18354SOL    HW155640   8.420   7.270   1.823  0.1958  0.4398 -0.7495
18354SOL    HW255641   8.346   7.330   1.706 -0.4715 -1.0899 -1.1447
18355SOL     OW55642   8.618   4.495   9.329 -0.0630 -0.4379 -0.6848
18355SOL    HW155643   8.596   4.486   9.237 -0.2959 -0.6562 -0.6103
18355SOL    HW255644   8.710   4.521   9.330 -0.7833  2.4192 -1.0622
18356SOL     OW55645   4.260   2.298   2.688 -0.3042 -0.0324 -0.0032
18356SOL    HW155646   4.223   2.238   2.623 -0.1647  0.7563 -0.8294
18356SOL    HW255647   4.191   2.308   2.753 -0.7104 -0.2952 -0.3854
18357SOL     OW55648   6.340   3.090   2.125 -0.0461 -0.6670 -0.0345
18357SOL    HW155649   6.260   3.140   2.142 -0.7274 -1.4113 -0.9299
18357SOL    HW255650   6.354   3.040   2.205 -0.8646 -1.0219 -0.0987
18358SOL     OW55651   7.982   0.015   5.975 -0.6149 -0.0679  0.2809
18358SOL    HW155652   7.934   0.071   5.915 -2.0129  0.5806  1.9001
18358SOL    HW255653   7.916  -0.012   6.040  1.0380  0.3493  2.2549
18359SOL     OW55654   7.383   4.946   5.919 -0.1849 -0.0410 -0.0107
18359SOL    HW155655   7.375   5.038   5.942  0.1446 -0.1213  0.4352
18359SOL    HW255656   7.380   4.944   5.824  0.1525  0.4599 -0.0293
18360SOL     OW55657   7.207   4.267   6.581  0.8219  0.1818  0.3576
18360SOL    HW155658   7.189   4.361   6.587  1.8860  0.4463 -0.3455
18360SOL    HW255659   7.300   4.259   6.600  0.9849 -0.6022 -0.6507
18361SOL     OW55660   2.648   1.242   7.659 -0.2320  0.3878  0.0276
18361SOL    HW155661   2.618   1.220   7.747  1.1438 -1.4929  0.0837
18361SOL    HW255662   2.648   1.338   7.657  2.8223  0.6439  3.2608
18362SOL     OW55663   3.020   7.434   7.765 -0.9978 -0.5786  0.1052
18362SOL    HW155664   2.964   7.496   7.718 -1.1770  0.1381  1.2110
18362SOL    HW255665   3.089   7.489   7.802 -1.5163 -0.9285  1.6455
18363SOL     OW55666   7.946   9.264   3.355 -0.3187  0.7996 -0.2710
18363SOL    HW155667   7.884   9.193   3.341 -0.5685  1.2294 -1.5557
18363SOL    HW255668   7.949   9.276   3.449 -0.9164 -0.3406 -0.0885
18364SOL     OW55669   0.600   1.027   5.343 -0.6043 -0.0530  0.4059
18364SOL    HW155670   0.681   0.993   5.305 -0.7903 -2.4720  1.9146
18364SOL    HW255671   0.627   1.100   5.398  0.3291  0.1027 -0.2349
18365SOL     OW55672   7.459   9.108   5.971  0.0397  0.8945  0.5868
18365SOL    HW155673   7.394   9.160   5.923  0.2376  1.8901  1.3787
18365SOL    HW255674   7.417   9.088   6.054  0.5293  1.0561  0.8741
18366SOL     OW55675   8.164   2.659   4.833  0.1565  0.1161  0.0179
18366SOL    HW155676   8.194   2.670   4.923  0.3653 -2.8206  0.3776
18366SOL    HW255677   8.072   2.686   4.834 -0.2818 -1.3448  1.4868
18367SOL     OW55678   2.082   7.295   3.589  0.0430 -0.0925 -0.0110
18367SOL    HW155679   2.048   7.213   3.626  1.8614 -1.4759 -1.1626
18367SOL    HW255680   2.021   7.317   3.519 -0.0084 -0.9858 -0.2659
18368SOL     OW55681   6.871   8.013   6.272 -0.2998 -0.3490  0.4046
18368SOL    HW155682   6.928   8.024   6.197 -0.4673 -0.6546  0.2305
18368SOL    HW255683   6.892   8.087   6.329 -1.5073  0.9760 -0.7906
18369SOL     OW55684   2.273   8.554   4.302  0.4694 -0.0826  0.0940
18369SOL    HW155685   2.271   8.476   4.246  0.5708 -0.3285  0.4304
18369SOL    HW255686   2.346   8.606   4.268  0.6271 -0.3039  0.0935
18370SOL     OW55687   4.236   0.415   3.620  0.4786 -0.0554 -0.0775
18370SOL    HW155688   4.260   0.494   3.572 -0.8824  0.4972  0.1047
18370SOL    HW255689   4.248   0.438   3.712  2.1789 -0.8058 -0.0727
18371SOL     OW55690   6.897   2.660   5.796 -0.5113 -0.3702  0.0732
18371SOL    HW155691   6.820   2.611   5.768 -0.2233 -0.9457  0.2722
18371SOL    HW255692   6.897   2.738   5.740  0.1896 -1.5926 -1.7289
18372SOL     OW55693   8.239   2.297   2.980 -0.2152 -0.2337 -0.5263
18372SOL    HW155694   8.173   2.291   2.911 -2.3806  0.9987  1.3010
18372SOL    HW255695   8.278   2.384   2.968 -1.5499  0.5543  0.5158
18373SOL     OW55696   7.230   3.014   8.833  0.3403 -0.6345  0.4282
18373SOL    HW155697   7.157   3.069   8.804  1.2714  0.6989  0.5513
18373SOL    HW255698   7.267   2.979   8.752 -0.0408 -0.8239  0.3293
18374SOL     OW55699   8.524   2.506   7.264  0.2821  0.3379  0.1320
18374SOL    HW155700   8.508   2.427   7.315  3.5577  0.2050  1.1919
18374SOL    HW255701   8.526   2.476   7.173 -2.4679  0.0059  0.1201
18375SOL     OW55702   8.192   5.139   7.528 -0.1078 -0.1736  0.5561
18375SOL    HW155703   8.195   5.183   7.443  0.8608  0.9793  1.1555
18375SOL    HW255704   8.274   5.164   7.571 -0.7758 -0.3581  2.0064
18376SOL     OW55705   6.310   1.574   9.025 -0.2576  0.2206  0.1465
18376SOL    HW155706   6.406   1.569   9.021 -0.2339  0.9609 -0.4576
18376SOL    HW255707   6.286   1.619   8.944 -0.9219  2.7794  1.6739
18377SOL     OW55708   4.811   5.528   1.574 -0.4218 -0.0519 -0.2590
18377SOL    HW155709   4.817   5.622   1.563  1.6283  0.1209  1.5149
18377SOL    HW255710   4.748   5.515   1.644  1.8457  0.3507  2.0028
18378SOL     OW55711   6.705   9.192   6.334  0.6209  0.5197  0.9636
18378SOL    HW155712   6.685   9.220   6.423 -1.7034  0.2073  0.6007
18378SOL    HW255713   6.659   9.109   6.324  1.7303  0.0176 -0.1989
18379SOL     OW55714   4.931   0.562   7.901  0.3236 -0.1708  0.0500
18379SOL    HW155715   5.023   0.564   7.924  0.6128  1.0543 -1.0758
18379SOL    HW255716   4.893   0.639   7.944 -0.2408 -0.7917  0.6962
18380SOL     OW55717   4.076   2.663   2.613  0.1473  0.1276  0.3944
18380SOL    HW155718   4.103   2.643   2.703  1.2788 -0.1639  0.0082
18380SOL    HW255719   4.125   2.742   2.591  0.5104 -0.2586 -0.2315
18381SOL     OW55720   8.910   4.078   0.569 -0.1307  0.3585 -0.3366
18381SOL    HW155721   8.827   4.106   0.530 -0.2738  0.8468  0.2956
18381SOL    HW255722   8.933   3.999   0.521 -0.7153  0.4871 -0.8496
18382SOL     OW55723   3.054   3.523   2.878  0.7349 -0.3105  0.0632
18382SOL    HW155724   3.117   3.510   2.949 -0.2042 -1.0748  0.7829
18382SOL    HW255725   3.012   3.607   2.898 -0.9457 -1.4410  1.5831
18383SOL     OW55726   3.832   5.363   1.785  0.5476 -0.0398  0.0090
18383SOL    HW155727   3.882   5.396   1.860 -0.1601  0.8916  0.0899
18383SOL    HW255728   3.895   5.310   1.736  1.6220  1.0996  0.1020
18384SOL     OW55729   5.410   5.562   5.009  0.6407  0.6330 -0.3491
18384SOL    HW155730   5.320   5.543   5.037 -0.0016  1.6398 -1.6584
18384SOL    HW255731   5.426   5.652   5.038  0.7039  0.9581 -1.3720
18385SOL     OW55732   1.063   0.283   8.282 -0.1390  0.7437 -0.0061
18385SOL    HW155733   1.074   0.362   8.335  0.6760  0.2255  0.6292
18385SOL    HW255734   0.978   0.248   8.311  0.7298 -0.0640  1.7442
18386SOL     OW55735   9.669   8.639   3.084  0.8160  0.1438  0.4430
18386SOL    HW155736   9.646   8.551   3.054  1.1433  0.4998 -0.9105
18386SOL    HW255737   9.646   8.639   3.177 -0.6141 -0.8717  0.1206
18387SOL     OW55738   3.443   3.924   0.073 -0.0857  0.0793  0.1260
18387SOL    HW155739   3.518   3.937   0.016  0.1821  0.7342  0.6244
18387SOL    HW255740   3.393   3.854   0.030  0.5539 -0.0353 -0.4529
18388SOL     OW55741   0.421   5.597   9.743  0.5281  0.0818  0.4346
18388SOL    HW155742   0.413   5.663   9.675 -0.4153 -0.5226 -0.0761
18388SOL    HW255743   0.512   5.568   9.739  0.9215  1.2587  0.5955
18389SOL     OW55744   2.773   7.686   8.445  0.3058 -0.0855  0.4002
18389SOL    HW155745   2.741   7.769   8.480  0.0796 -0.3910  0.9434
18389SOL    HW255746   2.709   7.621   8.474  1.1397 -0.6358  1.0841
18390SOL     OW55747   6.581   8.940   9.702  0.3171  0.4250  0.1525
18390SOL    HW155748   6.510   8.981   9.652  0.5057  1.4287  0.6900
18390SOL    HW255749   6.648   9.007   9.708 -0.2962  0.8991  3.0043
18391SOL     OW55750   1.209   4.989   2.504  0.3599 -0.5140 -0.2365
18391SOL    HW155751   1.121   4.964   2.478  0.4541  0.0829 -1.1825
18391SOL    HW255752   1.202   5.082   2.528  0.8765 -0.2470 -1.0818
18392SOL     OW55753   2.652   4.296   2.883 -0.8612 -0.1393  0.3471
18392SOL    HW155754   2.566   4.330   2.856 -1.9320 -1.5740  1.7895
18392SOL    HW255755   2.691   4.367   2.934 -2.1728 -0.2339  1.5473
18393SOL     OW55756   5.625   8.626   5.672 -0.1901  0.4288 -0.0300
18393SOL    HW155757   5.713   8.603   5.641  0.0048  0.0969  0.7181
18393SOL    HW255758   5.639   8.657   5.762 -0.8700  0.0500  0.2169
18394SOL     OW55759   6.901   5.469   8.053 -0.5966 -0.1103  0.3255
18394SOL    HW155760   6.953   5.405   8.005  2.7002  2.0680  0.7127
18394SOL    HW255761   6.919   5.451   8.145  0.4927  1.3600  0.4370
18395SOL     OW55762   5.288   3.645   2.187  0.5158 -0.1191  0.2109
18395SOL    HW155763   5.281   3.737   2.210  0.5405 -0.2469  0.7487
18395SOL    HW255764   5.366   3.614   2.234  1.3107 -0.1018 -1.0334
18396SOL     OW55765   5.774   2.123   9.550 -0.1269 -0.2535 -0.0317
18396SOL    HW155766   5.694   2.105   9.501 -0.5397  1.8066 -0.1855
18396SOL    HW255767   5.844   2.094   9.493 -0.6960 -0.1168 -0.8168
18397SOL     OW55768   3.648   5.296   9.156 -0.2213  0.2037 -0.3844
18397SOL    HW155769   3.602   5.364   9.206 -0.2527 -0.8677  1.1236
18397SOL    HW255770   3.607   5.214   9.184  0.6264 -0.5404 -1.2477
18398SOL     OW55771   5.977   1.809   9.629  0.3200 -0.0491 -0.3785
18398SOL    HW155772   6.013   1.890   9.592  1.1742  0.1867  0.8790
18398SOL    HW255773   5.886   1.831   9.651  0.2159  0.2222 -1.0569
18399SOL     OW55774   0.152   5.161   5.847  0.1675 -0.4328 -0.0716
18399SOL    HW155775   0.134   5.136   5.756 -1.4748 -1.4891  0.4909
18399SOL    HW255776   0.117   5.088   5.898 -0.8278  1.0890  1.4949
18400SOL     OW55777   7.623   2.221   3.513  0.5123  0.0839 -0.4093
18400SOL    HW155778   7.527   2.224   3.513  0.4254 -1.4826  0.5848
18400SOL    HW255779   7.648   2.277   3.587  0.2460 -1.0612  0.5796
18401SOL     OW55780   8.728   5.829   2.451 -0.3727  0.1968 -0.6804
18401SOL    HW155781   8.736   5.910   2.501 -2.4289  0.0346  0.0004
18401SOL    HW255782   8.794   5.771   2.490 -0.8818  0.5905  0.8488
18402SOL     OW55783   2.227   5.102   1.702  0.1653  0.2570  0.6864
18402SOL    HW155784   2.151   5.139   1.657  1.1417  2.3889  0.6691
18402SOL    HW255785   2.192   5.071   1.786 -1.1444 -1.1574 -0.3243
18403SOL     OW55786   1.050   6.065   5.896 -0.4179  0.2191  0.0984
18403SOL    HW155787   1.145   6.074   5.895 -0.3359 -0.0075  1.8624
18403SOL    HW255788   1.018   6.150   5.925 -0.7054  0.0916  0.1628
18404SOL     OW55789   7.990   0.155   2.464  0.0132 -0.0218 -0.9788
18404SOL    HW155790   7.896   0.174   2.468  0.0252 -0.1460  1.3916
18404SOL    HW255791   8.032   0.241   2.471  0.1003 -0.0188 -1.4665
18405SOL     OW55792   9.603   6.624   5.353  0.5384  0.4674 -0.0305
18405SOL    HW155793   9.603   6.702   5.408  1.0724 -0.2680  1.0300
18405SOL    HW255794   9.657   6.649   5.277  1.0371  1.0051  0.4869
18406SOL     OW55795   6.177   1.754   2.145 -0.1285 -0.0132  0.1019
18406SOL    HW155796   6.269   1.747   2.173 -0.0239  0.4940 -0.1030
18406SOL    HW255797   6.166   1.846   2.122  0.4865 -0.7130 -3.8251
18407SOL     OW55798   1.713   3.678   7.186  0.0692 -0.3782  0.4003
18407SOL    HW155799   1.777   3.615   7.153 -0.5638 -0.8492  0.0474
18407SOL    HW255800   1.705   3.659   7.279 -0.2052 -0.8995  0.2727
18408SOL     OW55801   6.026   3.050   4.836 -0.0940 -0.1887 -0.5088
18408SOL    HW155802   6.110   3.008   4.854 -0.1950 -0.4357 -0.6059
18408SOL    HW255803   5.965   2.977   4.824  0.1208 -0.0766 -2.6877
18409SOL     OW55804   6.314   9.781   2.120  0.9057 -0.6652  0.0968
18409SOL    HW155805   6.352   9.809   2.037 -0.4195 -0.0550 -0.3256
18409SOL    HW255806   6.255   9.710   2.097  0.6412 -0.5926  0.5306
18410SOL     OW55807   1.837   0.638   3.199  0.2967  0.5901  0.0324
18410SOL    HW155808   1.917   0.683   3.226 -0.3726  1.9031 -0.1017
18410SOL    HW255809   1.861   0.545   3.199  1.5671  0.8898  0.8196
18411SOL     OW55810   8.905   9.514   4.688 -0.2993  0.1281  1.0021
18411SOL    HW155811   8.823   9.537   4.645  0.9342  1.1909 -0.9567
18411SOL    HW255812   8.973   9.545   4.628  1.5598 -2.3221  1.6405
18412SOL     OW55813   1.425   2.296   4.498 -0.0387 -0.1939 -0.0435
18412SOL    HW155814   1.439   2.201   4.493  0.6195 -0.0768 -0.5631
18412SOL    HW255815   1.367   2.315   4.424 -1.8283 -0.4630  1.2325
18413SOL     OW55816   7.409   4.432   8.891 -0.6711 -0.4284  0.0344
18413SOL    HW155817   7.488   4.381   8.904 -1.0089 -1.2737 -1.0743
18413SOL    HW255818   7.423   4.480   8.810 -1.3515 -0.7142 -0.2650
18414SOL     OW55819   6.916   2.584   7.781  0.0798  0.2587 -0.0319
18414SOL    HW155820   6.879   2.562   7.696  0.0659 -0.5004  0.1596
18414SOL    HW255821   6.860   2.653   7.816 -1.4403 -1.1611  0.4441
18415SOL     OW55822   9.105   3.631   0.432  0.3307  0.5685 -0.5208
18415SOL    HW155823   9.057   3.712   0.417  2.6505  2.5316  1.7952
18415SOL    HW255824   9.174   3.654   0.494  1.1798 -3.1807  0.2170
18416SOL     OW55825   7.662   4.086   2.159 -0.0181  0.8693 -0.1536
18416SOL    HW155826   7.726   4.020   2.132  0.4681  1.1792  0.2250
18416SOL    HW255827   7.607   4.099   2.082  1.2943  1.6775 -0.9967
18417SOL     OW55828   6.634   0.588   8.971  0.1486  0.5869  0.4180
18417SOL    HW155829   6.726   0.560   8.961 -0.2014 -0.5731  0.2189
18417SOL    HW255830   6.636   0.653   9.041  0.7188 -1.9638  2.9940
18418SOL     OW55831   7.898   7.965   7.889  0.2087  0.2206  0.6460
18418SOL    HW155832   7.845   7.898   7.844  0.5184  0.1018  0.4576
18418SOL    HW255833   7.879   8.046   7.842 -0.7466  0.4168  1.3424
18419SOL     OW55834   2.218   7.581   0.661 -0.0749 -0.5362  0.1663
18419SOL    HW155835   2.299   7.580   0.611 -1.4043  0.9765 -2.2205
18419SOL    HW255836   2.221   7.663   0.710 -0.1175 -0.5251  0.1503
18420SOL     OW55837   2.365   2.918   0.186  0.4723 -0.1848 -0.2768
18420SOL    HW155838   2.387   2.975   0.112  1.9945  0.9567  0.9808
18420SOL    HW255839   2.369   2.976   0.262 -2.0616 -1.1001  0.6467
18421SOL     OW55840   0.220   6.520   1.344 -0.6243  0.3533 -0.2490
18421SOL    HW155841   0.205   6.527   1.438  0.3373 -1.1426  0.0507
18421SOL    HW255842   0.258   6.433   1.332  0.6983  1.0901 -1.8457
18422SOL     OW55843   2.751   4.217   2.216  0.0022  0.1403  0.2861
18422SOL    HW155844   2.796   4.172   2.145 -0.2569 -1.0531  0.8533
18422SOL    HW255845   2.804   4.198   2.294 -1.1167 -0.7686  0.8531
18423SOL     OW55846   5.212   8.831   6.000  0.3321 -0.7751 -0.6309
18423SOL    HW155847   5.245   8.759   5.947  0.1139 -1.0045 -0.4613
18423SOL    HW255848   5.122   8.806   6.021 -0.4398  0.4450 -2.2157
18424SOL     OW55849   0.587   4.026   7.446 -0.1661  0.6295 -0.2759
18424SOL    HW155850   0.645   4.074   7.386  0.2015  1.3013  0.5872
18424SOL    HW255851   0.565   4.090   7.514  0.1072 -0.3324  0.7632
18425SOL     OW55852   5.871   6.971   4.297 -0.1165  0.0376 -0.0009
18425SOL    HW155853   5.806   7.040   4.291 -0.8476 -0.6990 -0.7587
18425SOL    HW255854   5.952   7.012   4.267 -0.3750  0.7527  0.2510
18426SOL     OW55855   4.691   9.019   2.298 -0.1328  0.9256  0.0812
18426SOL    HW155856   4.596   9.015   2.312 -0.0077  2.1243  1.5016
18426SOL    HW255857   4.712   8.934   2.260 -1.7416  0.5402 -0.0541
18427SOL     OW55858   7.876   8.621   8.910 -0.7378 -0.0032 -0.4612
18427SOL    HW155859   7.801   8.629   8.969 -1.3715  0.4040 -1.2926
18427SOL    HW255860   7.898   8.528   8.912 -1.2904 -0.1360 -0.2165
18428SOL     OW55861   4.549   7.608   8.618 -0.5232  0.3654 -0.5684
18428SOL    HW155862   4.492   7.608   8.541 -0.2527 -0.9289 -0.7884
18428SOL    HW255863   4.540   7.520   8.655  1.3759  0.0740 -0.6636
18429SOL     OW55864   1.578   9.650   1.604  0.0208 -0.4622  0.1508
18429SOL    HW155865   1.540   9.627   1.689  0.2942  0.4484  0.5287
18429SOL    HW255866   1.539   9.587   1.543 -0.9469 -0.4918  0.7808
18430SOL     OW55867   6.112   6.413   2.111 -0.5057 -0.0760  0.0751
18430SOL    HW155868   6.089   6.506   2.118 -1.7683 -0.4604  1.6439
18430SOL    HW255869   6.028   6.368   2.101 -0.0035 -1.1395  0.4582
18431SOL     OW55870   9.274   1.678   9.182  0.1834 -0.1083 -0.2629
18431SOL    HW155871   9.334   1.753   9.174 -0.9202  0.6060 -2.5570
18431SOL    HW255872   9.295   1.623   9.107  0.1849 -1.5636  0.7710
18432SOL     OW55873   6.238   6.043   5.395  0.2537  0.2224  0.6990
18432SOL    HW155874   6.330   6.054   5.422  0.1267  2.5973  0.3939
18432SOL    HW255875   6.239   6.057   5.300 -0.3102 -0.6941  0.5493
18433SOL     OW55876   7.606   9.087   2.530 -0.3637 -0.2612  0.3100
18433SOL    HW155877   7.591   9.177   2.559  1.0836  0.2775 -0.4970
18433SOL    HW255878   7.607   9.036   2.610  0.2537  0.6734  0.9167
18434SOL     OW55879   8.927   6.385   9.736  0.1185  0.3138  0.6215
18434SOL    HW155880   8.971   6.469   9.733  1.4469 -0.3703  0.1669
18434SOL    HW255881   8.950   6.342   9.654 -0.8589 -0.3429  0.6725
18435SOL     OW55882   2.934   6.431   5.875  0.6279 -0.2952 -0.1951
18435SOL    HW155883   2.965   6.501   5.818  1.2840  0.7432  1.3845
18435SOL    HW255884   2.843   6.454   5.893  1.2657  1.0674  1.5617
18436SOL     OW55885   0.159   1.373   8.981 -0.0358  0.2818 -0.5202
18436SOL    HW155886   0.218   1.306   9.015  0.1174 -1.1916 -3.3778
18436SOL    HW255887   0.078   1.362   9.030  0.1183 -1.7864 -0.6608
18437SOL     OW55888   4.224   6.475   6.432  0.1222 -0.3405  0.4322
18437SOL    HW155889   4.310   6.507   6.405  0.0112 -1.0820 -0.9002
18437SOL    HW255890   4.164   6.508   6.365 -0.8062  0.9647  1.8499
18438SOL     OW55891   7.665   0.078   2.250  0.0398  0.2479  0.4915
18438SOL    HW155892   7.691   0.126   2.328  0.1911 -1.1989  1.3757
18438SOL    HW255893   7.712   0.121   2.179  0.2466  1.3166  1.2502
18439SOL     OW55894   4.381   8.840   6.360 -0.7995  0.3052 -0.1819
18439SOL    HW155895   4.399   8.915   6.303 -0.2608  0.8883  0.7270
18439SOL    HW255896   4.464   8.793   6.364 -0.9919 -0.0482 -0.3188
18440SOL     OW55897   7.063   2.527   3.052 -0.1331  0.2505 -0.3691
18440SOL    HW155898   6.974   2.526   3.019 -0.1660  0.2032 -0.2811
18440SOL    HW255899   7.077   2.438   3.086  0.0476  0.1688 -0.6498
18441SOL     OW55900   7.737   3.746   7.764  0.6858 -0.0982  0.1581
18441SOL    HW155901   7.798   3.775   7.696  0.2720 -0.1037 -0.2172
18441SOL    HW255902   7.650   3.756   7.724  0.4227  0.2128  0.8027
18442SOL     OW55903   9.185   8.188   6.917  0.1232 -0.2495 -0.2842
18442SOL    HW155904   9.207   8.168   6.826 -0.7075 -0.9145 -0.3473
18442SOL    HW255905   9.261   8.158   6.967  0.6995  0.3599 -0.7658
18443SOL     OW55906   4.198   4.710   1.778  0.4304  0.0886 -0.1369
18443SOL    HW155907   4.135   4.678   1.714 -1.3136  1.8073  0.5863
18443SOL    HW255908   4.194   4.646   1.850 -0.5201  0.1728 -0.1021
18444SOL     OW55909   2.592   0.176   9.943  0.1598 -0.3038  0.2511
18444SOL    HW155910   2.520   0.239   9.938  1.2828  1.0498  0.4404
18444SOL    HW255911   2.574   0.114   9.872 -0.6627  0.5658 -0.3333
18445SOL     OW55912   9.614   8.167   2.133 -0.4485  0.1524 -0.2449
18445SOL    HW155913   9.605   8.197   2.043 -0.1521  0.6145 -0.1245
18445SOL    HW255914   9.525   8.167   2.168 -0.4586  0.8491 -0.2640
18446SOL     OW55915   5.532   4.171   9.774 -0.4411  0.2540 -0.2086
18446SOL    HW155916   5.589   4.107   9.818  0.1501  1.0392  0.2051
18446SOL    HW255917   5.582   4.253   9.777 -1.0380  0.6627 -1.0295
18447SOL     OW55918   1.282   0.557   7.455 -1.2753  0.1955  0.2574
18447SOL    HW155919   1.335   0.634   7.472  1.1459 -1.3502  0.1071
18447SOL    HW255920   1.204   0.591   7.410 -0.3002  2.5169  0.2058
18448SOL     OW55921   6.857   8.004   7.085 -0.2159  0.6224  0.4813
18448SOL    HW155922   6.832   7.960   7.166  0.2933  0.8889  0.7895
18448SOL    HW255923   6.812   8.089   7.090 -0.4833  0.4887  0.3107
18449SOL     OW55924   7.532   5.113   8.553  0.0859 -0.5153  0.2884
18449SOL    HW155925   7.452   5.165   8.549 -0.2505 -0.7519  2.5186
18449SOL    HW255926   7.591   5.164   8.609  0.7071 -1.3346  0.4024
18450SOL     OW55927   5.644   2.990   3.306 -1.1553 -0.2674 -0.3978
18450SOL    HW155928   5.564   3.016   3.351 -0.9947 -0.9339  0.2942
18450SOL    HW255929   5.615   2.925   3.242 -1.4781  1.1651 -1.7469
18451SOL     OW55930   0.628   1.418   2.309 -0.1007 -0.3961 -0.3885
18451SOL    HW155931   0.642   1.495   2.365 -0.7779  0.2087 -1.0416
18451SOL    HW255932   0.549   1.377   2.344  0.3100 -0.8516  0.0145
18452SOL     OW55933   5.132   5.129   2.805  0.2427 -0.0770  0.8489
18452SOL    HW155934   5.206   5.103   2.860  0.6500 -0.1534  0.2821
18452SOL    HW255935   5.054   5.107   2.856  0.6144  0.0232  1.4592
18453SOL     OW55936   5.662   8.659   3.906  0.5459  0.0380 -0.3546
18453SOL    HW155937   5.737   8.615   3.948 -0.1056 -0.3705  0.4216
18453SOL    HW255938   5.651   8.740   3.956  1.2576  0.7304 -1.2889
18454SOL     OW55939   3.744   4.238   2.859  0.1041 -0.1942  0.1778
18454SOL    HW155940   3.808   4.178   2.820  0.6035  0.3177  0.1991
18454SOL    HW255941   3.754   4.227   2.953  2.2059  1.9488  0.2782
18455SOL     OW55942   5.810   3.272   1.153  0.3998  0.0360 -0.1025
18455SOL    HW155943   5.764   3.276   1.069 -1.2021 -2.0728  0.5868
18455SOL    HW255944   5.749   3.308   1.217  1.3757  1.0832  0.2713
18456SOL     OW55945   8.020   0.700   1.702  0.0441 -0.0746  0.5979
18456SOL    HW155946   8.096   0.661   1.745  0.7911 -0.6275 -1.1332
18456SOL    HW255947   8.057   0.752   1.631 -1.2100 -0.8104 -0.6188
18457SOL     OW55948   3.102   9.886   2.068  0.1270  0.3684  0.5325
18457SOL    HW155949   3.080   9.976   2.092  0.8703  0.3897  1.1903
18457SOL    HW255950   3.056   9.871   1.986  1.8760  2.1771 -0.8815
18458SOL     OW55951   3.252   5.990   7.493 -0.5215  0.3688 -0.3378
18458SOL    HW155952   3.248   5.896   7.480  0.8661  0.3600 -0.9043
18458SOL    HW255953   3.312   6.001   7.568  1.0917  0.8335 -1.6284
18459SOL     OW55954   1.821   9.950   1.626  0.3931  0.1656  0.1187
18459SOL    HW155955   1.778   9.900   1.557  1.4565 -2.7051  1.3481
18459SOL    HW255956   1.859  10.025   1.582 -0.3743 -0.6639 -2.0950
18460SOL     OW55957   2.163   4.439   2.410 -0.0726 -0.6156  0.3314
18460SOL    HW155958   2.238   4.380   2.419 -0.4576 -1.4413 -1.3208
18460SOL    HW255959   2.196   4.511   2.356 -0.0311 -0.1287  1.0031
18461SOL     OW55960   3.009   5.769   9.472  0.0317  0.3853 -0.1669
18461SOL    HW155961   3.100   5.780   9.442  0.2168  0.7475  0.5004
18461SOL    HW255962   2.957   5.777   9.392  0.6227 -0.4865 -0.6593
18462SOL     OW55963   2.355   4.056   8.891  0.1863 -0.4339 -0.1895
18462SOL    HW155964   2.413   4.108   8.835  1.8605  0.6687  2.3574
18462SOL    HW255965   2.408   3.981   8.917  0.4699  0.4190  1.9146
18463SOL     OW55966   0.655   4.863   6.965 -0.5459  0.3770  0.0808
18463SOL    HW155967   0.559   4.864   6.972 -0.7987 -1.2066 -2.1665
18463SOL    HW255968   0.672   4.871   6.871  1.4243 -1.8254  0.1877
18464SOL     OW55969   5.506   2.812   2.888 -0.0256 -0.0642  0.1309
18464SOL    HW155970   5.428   2.796   2.834 -1.0357  1.0854  1.2038
18464SOL    HW255971   5.531   2.902   2.868  0.4641 -0.1131  0.5200
18465SOL     OW55972   2.576   7.564   9.947  0.0793  0.5140  0.3734
18465SOL    HW155973   2.664   7.538   9.920  0.3572  2.3629 -0.6294
18465SOL    HW255974   2.590   7.615  10.027 -0.2693 -0.4576  1.0897
18466SOL     OW55975   6.696   4.934   5.713  0.1591  0.0737  0.0338
18466SOL    HW155976   6.698   4.976   5.628 -0.1222 -0.0443 -0.0315
18466SOL    HW255977   6.635   4.986   5.765 -1.6006 -1.2802 -0.5979
18467SOL     OW55978   5.712   7.109   1.143  0.5032  0.0562  0.1247
18467SOL    HW155979   5.769   7.119   1.067 -1.1454 -0.3261 -1.2205
18467SOL    HW255980   5.737   7.025   1.181  0.4062 -0.4477 -0.8721
18468SOL     OW55981   5.765   6.353   1.138  0.5661 -0.3841  0.0512
18468SOL    HW155982   5.767   6.424   1.074  1.4118 -1.0211 -0.6480
18468SOL    HW255983   5.780   6.396   1.223  3.4328  0.0416 -0.5780
18469SOL     OW55984   7.791   5.428   5.849 -0.0317  0.2906  0.0125
18469SOL    HW155985   7.752   5.463   5.929  1.1390 -0.0245  0.7537
18469SOL    HW255986   7.886   5.441   5.861  0.2888 -1.2834 -0.5741
18470SOL     OW55987   4.029   4.340   4.413 -0.1134  0.0440 -0.0297
18470SOL    HW155988   4.012   4.308   4.502  3.8466  0.6058  1.1714
18470SOL    HW255989   3.965   4.297   4.358 -3.1591  0.1071  3.1376
18471SOL     OW55990   2.034   5.695   5.843  0.1711 -0.2934  0.4628
18471SOL    HW155991   1.958   5.732   5.888  0.3525  0.4320  0.1875
18471SOL    HW255992   1.997   5.656   5.764 -0.0228 -0.7197  0.7575
18472SOL     OW55993   8.501   1.201   8.983  0.1862  0.0996 -0.0283
18472SOL    HW155994   8.503   1.292   9.011  0.5712  0.1263 -0.1413
18472SOL    HW255995   8.471   1.153   9.060 -0.8375  0.4118 -0.2211
18473SOL     OW55996   2.520   6.015   5.632 -0.1810  0.5519  0.2250
18473SOL    HW155997   2.524   5.924   5.604 -0.1527  0.3244  0.9503
18473SOL    HW255998   2.497   6.011   5.725  0.4273  1.2568  0.4213
18474SOL     OW55999   0.807   1.830   7.222 -0.4180 -0.1281 -0.1544
18474SOL    HW156000   0.846   1.849   7.307 -0.4100 -0.1333 -0.1568
18474SOL    HW256001   0.854   1.752   7.191 -1.9154 -1.4694  0.8185
18475SOL     OW56002   8.252   2.839   2.877  0.6241  0.5963 -0.0853
18475SOL    HW156003   8.294   2.923   2.860 -2.4522  2.3938  0.4287
18475SOL    HW256004   8.215   2.813   2.793 -0.1858  0.8564  0.1789
18476SOL     OW56005   5.990   0.623   9.873  0.0300  0.0171  0.4086
18476SOL    HW156006   5.956   0.566   9.804 -0.7793 -0.0563  0.8495
18476SOL    HW256007   6.025   0.699   9.827 -0.5855  0.0127 -0.0786
18477SOL     OW56008   7.146   4.604   9.289  0.0258  0.4532 -0.0857
18477SOL    HW156009   7.075   4.567   9.236  0.9725 -1.4627 -0.1030
18477SOL    HW256010   7.151   4.547   9.366 -0.1620  2.1461  1.2265
18478SOL     OW56011   3.663   5.804   0.266 -0.0234  0.2595  0.1131
18478SOL    HW156012   3.663   5.725   0.320  1.4164  0.5663  0.6044
18478SOL    HW256013   3.681   5.773   0.177  0.8377  0.0514  0.3530
18479SOL     OW56014   6.762   5.059   5.473  0.0300 -0.1938 -0.2202
18479SOL    HW156015   6.809   5.125   5.423 -0.7847 -0.0211 -0.7879
18479SOL    HW256016   6.710   5.012   5.407  0.6990 -1.4957  0.1461
18480SOL     OW56017   0.604   5.317   7.430  0.1012 -0.0517  0.3784
18480SOL    HW156018   0.683   5.356   7.393 -0.5755 -0.1951 -1.3090
18480SOL    HW256019   0.635   5.241   7.480  1.1108  0.5491  0.6728
18481SOL     OW56020   8.364   9.295   0.370  0.1521 -0.0328 -0.0821
18481SOL    HW156021   8.276   9.284   0.333  0.7294 -0.7876 -1.2977
18481SOL    HW256022   8.398   9.206   0.378  0.5056  0.1986  1.1776
18482SOL     OW56023   7.062   2.734   9.585  0.2895  0.6991  0.6940
18482SOL    HW156024   6.991   2.695   9.534  1.7492 -0.9858 -0.1799
18482SOL    HW256025   7.108   2.792   9.524  1.6727 -0.8561  0.1692
18483SOL     OW56026   4.210   6.138   6.418 -0.2610 -0.7301  0.2979
18483SOL    HW156027   4.244   6.109   6.502 -0.5584 -1.4209  0.1857
18483SOL    HW256028   4.204   6.233   6.426 -1.5410 -0.8823  1.5399
18484SOL     OW56029   5.870   3.878   9.374 -0.3095 -0.3618  0.0699
18484SOL    HW156030   5.859   3.844   9.463  0.1588 -0.9749 -0.1074
18484SOL    HW256031   5.900   3.804   9.323 -1.7395 -0.3289 -0.8754
18485SOL     OW56032   3.173   4.142   3.148 -0.0224 -0.3854 -0.0953
18485SOL    HW156033   3.095   4.186   3.182  0.6197 -0.4185  1.5391
18485SOL    HW256034   3.206   4.091   3.222  0.9082 -1.2770 -1.0935
18486SOL     OW56035   3.677   9.234   1.152 -0.0201  0.4463 -0.1437
18486SOL    HW156036   3.730   9.259   1.228  0.9203 -1.2658 -0.1974
18486SOL    HW256037   3.684   9.139   1.147  0.0504  0.5080 -2.4622
18487SOL     OW56038   7.901   3.488   5.756 -0.5871 -0.2764  0.3220
18487SOL    HW156039   7.844   3.422   5.716 -1.7934  1.2797 -0.6334
18487SOL    HW256040   7.957   3.518   5.685 -1.0832  0.7803  0.3571
18488SOL     OW56041   1.217   2.983   8.998 -0.6184 -0.0493  0.1880
18488SOL    HW156042   1.191   2.928   8.924  0.0615 -0.1892  0.0400
18488SOL    HW256043   1.307   2.957   9.016 -0.7623  0.0249  1.0361
18489SOL     OW56044   1.926   7.260   9.659  0.4942  0.5609  0.0702
18489SOL    HW156045   1.931   7.270   9.754  2.3986  2.3734 -0.1472
18489SOL    HW256046   1.844   7.303   9.635  0.0789  0.2336  0.8636
18490SOL     OW56047   6.431   2.939   0.283 -0.3225  0.0216  0.0875
18490SOL    HW156048   6.365   2.870   0.275 -0.9470  0.8695 -3.2112
18490SOL    HW256049   6.402   2.991   0.358 -0.8660 -2.1364  1.4612
18491SOL     OW56050   3.665   2.299   0.974  0.9144 -0.4135  0.5650
18491SOL    HW156051   3.572   2.297   0.955  0.9024  1.8116  0.1316
18491SOL    HW256052   3.705   2.335   0.895  2.5742 -3.9351 -0.4163
18492SOL     OW56053   5.878   5.660   4.657  0.3729  0.2249 -0.0657
18492SOL    HW156054   5.839   5.746   4.641  0.1508  1.1756  4.3316
18492SOL    HW256055   5.804   5.600   4.662  0.3180  0.2291 -0.7619
18493SOL     OW56056   5.412   5.938   0.781  0.1611 -0.4527 -0.2995
18493SOL    HW156057   5.459   5.951   0.863 -0.2632  0.6811 -0.2134
18493SOL    HW256058   5.422   5.845   0.762  0.0059 -0.8038  1.2039
18494SOL     OW56059   0.882   8.823   2.357  0.0581  0.3511 -0.5266
18494SOL    HW156060   0.833   8.863   2.285  0.6784  0.7240 -0.7519
18494SOL    HW256061   0.816   8.808   2.425 -0.3676  0.8534 -0.8191
18495SOL     OW56062   1.259   6.633   9.621 -0.0460 -0.2089  0.3373
18495SOL    HW156063   1.174   6.642   9.577  0.5243  0.2991 -0.6897
18495SOL    HW256064   1.257   6.701   9.689 -0.6206 -0.4877  0.6145
18496SOL     OW56065   5.035   6.622   9.329 -0.3054  0.1248 -0.5269
18496SOL    HW156066   4.951   6.627   9.282 -0.0807 -1.6748 -1.2015
18496SOL    HW256067   5.097   6.592   9.263  1.2032  2.6417 -0.3689
18497SOL     OW56068   3.139   9.325   7.921  0.0187  0.2350  0.2414
18497SOL    HW156069   3.194   9.303   7.845 -0.1429  0.9249 -0.0842
18497SOL    HW256070   3.051   9.333   7.885  0.0658  1.3820  0.3388
18498SOL     OW56071   2.824   0.487   2.354 -0.6009  0.1279 -0.0446
18498SOL    HW156072   2.892   0.445   2.405 -1.0680  1.8481  2.1565
18498SOL    HW256073   2.752   0.501   2.416 -1.7387  1.1525 -1.5042
18499SOL     OW56074   3.602   0.747   6.106  0.5321 -0.1929 -0.8564
18499SOL    HW156075   3.567   0.835   6.119 -0.8295 -0.0613 -4.2202
18499SOL    HW256076   3.690   0.761   6.071  1.2969 -0.3284  0.8911
18500SOL     OW56077   4.664   0.383   5.799  0.5800 -0.1947 -0.8058
18500SOL    HW156078   4.639   0.415   5.713 -0.2436 -1.4714 -1.0747
18500SOL    HW256079   4.659   0.288   5.792  0.6721 -0.3286  0.5921
18501SOL     OW56080   0.238   3.964   5.283  0.0060  0.1631  0.1128
18501SOL    HW156081   0.178   4.021   5.234 -1.4661 -0.9072  0.5970
18501SOL    HW256082   0.281   4.024   5.345 -0.6908  0.9316 -0.1231
18502SOL     OW56083   0.070   6.843   4.899  0.6357  0.1487 -0.4552
18502SOL    HW156084   0.030   6.844   4.811 -0.7436 -2.7778  0.0226
18502SOL    HW256085   0.055   6.931   4.932 -0.1313  0.9055 -2.6138
18503SOL     OW56086   8.797   5.318   1.602  0.2763 -0.7629  0.4924
18503SOL    HW156087   8.801   5.226   1.576 -0.0869 -1.1085  1.6109
18503SOL    HW256088   8.877   5.332   1.654 -0.2098 -0.7605  1.2601
18504SOL     OW56089   3.749   4.917   8.484 -0.4350 -0.0091 -0.3985
18504SOL    HW156090   3.811   4.990   8.474  0.7796 -0.6619  1.7228
18504SOL    HW256091   3.802   4.839   8.468 -0.8401 -0.5517  0.8438
18505SOL     OW56092   2.441   7.438   3.212 -0.2214 -0.7666  0.1340
18505SOL    HW156093   2.399   7.455   3.297 -0.4417 -0.6994  0.0134
18505SOL    HW256094   2.423   7.345   3.196  3.0961 -1.8787  1.9637
18506SOL     OW56095   6.274   3.785   0.236  0.4442 -0.3393 -0.1558
18506SOL    HW156096   6.318   3.763   0.318  3.2733  0.6684 -1.2797
18506SOL    HW256097   6.196   3.729   0.234  1.2179 -1.6328  2.3788
18507SOL     OW56098   1.625   9.327   9.948  0.4194 -0.6906  0.0910
18507SOL    HW156099   1.675   9.251   9.975  1.5460 -0.2704 -0.7517
18507SOL    HW256100   1.590   9.305   9.862  0.3178 -0.4498  0.0679
18508SOL     OW56101   7.801   8.823   7.508  0.1211  0.6225  0.0020
18508SOL    HW156102   7.776   8.785   7.592 -0.8455  1.0680 -0.0649
18508SOL    HW256103   7.821   8.748   7.452 -2.1781  0.1408 -0.2701
18509SOL     OW56104   0.322   0.366   2.751  0.4856  0.3981 -0.5016
18509SOL    HW156105   0.273   0.290   2.720  0.8157 -0.0236 -0.0050
18509SOL    HW256106   0.391   0.378   2.685  0.0799  0.6367 -0.8919
18510SOL     OW56107   0.770   3.200   2.104  0.1198 -0.0228  0.1758
18510SOL    HW156108   0.713   3.267   2.066  0.1614 -0.6858 -1.1010
18510SOL    HW256109   0.787   3.139   2.033  3.3148  0.6790  0.1739
18511SOL     OW56110   8.164   8.495   1.810  0.1413  0.7600  0.4498
18511SOL    HW156111   8.146   8.426   1.747  3.5228  1.2299 -1.2651
18511SOL    HW256112   8.152   8.576   1.761  1.2099  1.1957  0.8809
18512SOL     OW56113   1.214   9.050   9.403  0.6362 -0.0871 -0.3528
18512SOL    HW156114   1.216   9.145   9.398 -2.6277  0.2566  1.8933
18512SOL    HW256115   1.206   9.021   9.312 -2.1630  2.0753 -0.9352
18513SOL     OW56116   4.090   7.458   5.751 -0.1294  0.2978  0.2411
18513SOL    HW156117   4.114   7.458   5.658  0.2102 -0.8106  0.3064
18513SOL    HW256118   4.127   7.540   5.785  3.0734 -0.9530  0.1781
18514SOL     OW56119   5.791   0.908   0.936 -0.2059  0.5891 -0.4746
18514SOL    HW156120   5.856   0.849   0.898  0.9507  1.4328  0.1238
18514SOL    HW256121   5.727   0.850   0.978 -0.0189 -0.2655 -1.3286
18515SOL     OW56122   3.232   0.737   7.136 -0.1820 -0.2650  0.4908
18515SOL    HW156123   3.291   0.802   7.097 -1.0343  0.7588  0.8363
18515SOL    HW256124   3.210   0.775   7.221  0.3312 -1.6579  1.2749
18516SOL     OW56125   5.912   5.965   1.141 -0.0855 -0.5838  0.5117
18516SOL    HW156126   5.982   5.899   1.141  0.0631 -0.4751 -1.3238
18516SOL    HW256127   5.831   5.914   1.137 -0.0273 -0.6805  0.5602
18517SOL     OW56128   6.973   5.164   7.148  0.5451 -0.0230  0.1128
18517SOL    HW156129   7.033   5.201   7.214 -0.0991  0.9818  0.1508
18517SOL    HW256130   6.913   5.109   7.199 -0.3993  1.3141  0.4920
18518SOL     OW56131   7.341   4.663   3.678 -0.0103 -0.0976 -0.4912
18518SOL    HW156132   7.377   4.598   3.618 -0.1551 -0.0374 -0.6432
18518SOL    HW256133   7.398   4.659   3.755 -1.7790 -2.5750  0.8251
18519SOL     OW56134   0.506   1.669   9.061  0.3312 -0.1467  0.1254
18519SOL    HW156135   0.415   1.658   9.034  0.1499 -0.9267  1.0223
18519SOL    HW256136   0.514   1.762   9.082 -0.5525 -0.2829  1.0934
18520SOL     OW56137   9.911   4.657   1.146  0.0625  0.1235  0.2113
18520SOL    HW156138   9.971   4.704   1.204  0.6511  1.0600 -1.1077
18520SOL    HW256139   9.912   4.707   1.065 -0.6815 -1.1913 -0.6465
18521SOL     OW56140   4.818   2.472   8.437  0.1417  0.3293  0.3408
18521SOL    HW156141   4.808   2.534   8.510 -0.4698  1.7058 -0.8517
18521SOL    HW256142   4.775   2.516   8.363  0.5495 -1.1195 -0.7973
18522SOL     OW56143   8.367   3.710   5.397  0.3482 -0.2365  0.4644
18522SOL    HW156144   8.422   3.745   5.327 -1.2278 -1.0113 -1.2362
18522SOL    HW256145   8.413   3.631   5.427  0.3371 -0.7124 -0.7260
18523SOL     OW56146   4.652   5.929   1.928  0.1349 -0.0535  0.1633
18523SOL    HW156147   4.597   5.997   1.966 -0.2745 -0.1331 -0.2817
18523SOL    HW256148   4.599   5.891   1.858  0.4702 -0.6345  0.2160
18524SOL     OW56149   7.448   9.817   7.740 -0.5866 -0.0391 -0.9185
18524SOL    HW156150   7.447   9.722   7.757  0.7354 -0.2238 -1.6961
18524SOL    HW256151   7.474   9.856   7.824  0.0454 -0.4703 -0.9031
18525SOL     OW56152   2.890   4.895   5.248  0.0711 -0.0110 -0.1435
18525SOL    HW156153   2.829   4.943   5.304  1.1639  0.2916  0.8232
18525SOL    HW256154   2.882   4.804   5.275  0.8694  0.1849  0.7899
18526SOL     OW56155   6.454   9.890   4.674 -0.5133 -0.3683 -0.1308
18526SOL    HW156156   6.532   9.944   4.666 -0.9767  0.2218 -0.7282
18526SOL    HW256157   6.452   9.837   4.594 -1.6822  0.9192 -1.0000
18527SOL     OW56158   5.387   3.349   0.107  0.1275  0.2800  0.2993
18527SOL    HW156159   5.441   3.407   0.159  0.7214 -0.7381  0.8431
18527SOL    HW256160   5.309   3.401   0.085  0.0195  0.8388  1.9040
18528SOL     OW56161   6.388   1.829   5.030 -0.9968 -0.0952  0.0638
18528SOL    HW156162   6.469   1.794   4.993 -0.7000  1.2506 -0.6294
18528SOL    HW256163   6.417   1.884   5.103 -1.4214 -0.8714  0.8396
18529SOL     OW56164   8.811   3.213   5.410  0.5014  0.3347 -0.6304
18529SOL    HW156165   8.726   3.211   5.454  0.8851 -0.1194  0.1145
18529SOL    HW256166   8.794   3.172   5.325 -0.0877  0.5118 -0.6051
18530SOL     OW56167   8.942   9.270   4.181 -0.2626  0.4281 -0.0078
18530SOL    HW156168   8.888   9.299   4.255  0.7152  0.4330  0.7249
18530SOL    HW256169   9.025   9.245   4.221  0.1593  0.0876 -1.0766
18531SOL     OW56170   4.800   9.946   8.685 -0.5316 -0.1993 -0.6527
18531SOL    HW156171   4.775   9.903   8.603 -2.3828 -3.1899  1.2857
18531SOL    HW256172   4.731  10.011   8.700 -0.4398  0.0355 -1.2217
18532SOL     OW56173   3.873   6.362   8.019 -0.9997  0.1712  0.4349
18532SOL    HW156174   3.924   6.440   7.996  0.1267 -0.4228  0.7902
18532SOL    HW256175   3.785   6.394   8.038 -1.6950  0.8656 -3.3197
18533SOL     OW56176   3.202   3.997   3.711 -0.0583  0.1496  0.0330
18533SOL    HW156177   3.283   3.987   3.661 -2.1635 -2.4248 -3.3519
18533SOL    HW256178   3.167   4.082   3.684 -0.0257 -0.1840 -1.1003
18534SOL     OW56179   4.293   6.771   9.407  0.0046 -0.1107  0.3975
18534SOL    HW156180   4.316   6.690   9.361  1.5930  0.0122  0.9052
18534SOL    HW256181   4.343   6.766   9.489  3.0474  2.9838 -1.0580
18535SOL     OW56182   8.724   4.754   6.423  0.2687  0.1375 -0.1945
18535SOL    HW156183   8.756   4.718   6.506  0.0519  0.0896 -0.1312
18535SOL    HW256184   8.712   4.678   6.366  1.0527  0.2339 -0.4897
18536SOL     OW56185   8.083   9.779   6.443 -0.4258 -0.1649 -0.0574
18536SOL    HW156186   8.165   9.802   6.399  0.4811 -0.6782  1.3099
18536SOL    HW256187   8.109   9.758   6.532 -2.0946 -0.0796  0.4756
18537SOL     OW56188   8.604   0.409   4.508 -0.4180  0.1905 -0.3031
18537SOL    HW156189   8.563   0.468   4.571  2.5242  3.0510 -0.7491
18537SOL    HW256190   8.657   0.350   4.561  1.8330  2.4112  0.0954
18538SOL     OW56191   6.497   5.718   1.000  0.3661  0.1600 -0.4005
18538SOL    HW156192   6.559   5.652   1.030  0.4045  0.5222  0.3485
18538SOL    HW256193   6.483   5.698   0.907  0.8448 -0.5180 -0.3333
18539SOL     OW56194   8.806   1.821   0.937  0.2217  0.0005  0.2285
18539SOL    HW156195   8.742   1.854   1.000 -1.7417  0.1239 -1.7365
18539SOL    HW256196   8.755   1.771   0.873  2.2027 -0.6669 -0.9368
18540SOL     OW56197   3.477   7.850   2.512  0.1399  0.1059 -0.2042
18540SOL    HW156198   3.461   7.834   2.419 -0.8525 -0.8107  0.1088
18540SOL    HW256199   3.470   7.764   2.552 -0.9825  0.6989  0.9328
18541SOL     OW56200   5.853   6.916   3.615  0.0278  0.2779  0.2351
18541SOL    HW156201   5.869   6.846   3.552 -0.3128 -0.7672  1.2656
18541SOL    HW256202   5.922   6.906   3.680 -0.6483  0.1980  0.9578
18542SOL     OW56203   3.493   5.975   7.622  0.0976  0.2923 -0.2208
18542SOL    HW156204   3.468   5.923   7.698  1.2517  1.1153  0.7618
18542SOL    HW256205   3.548   5.916   7.570  0.8782  0.3167  0.5612
18543SOL     OW56206   1.174   4.446   7.860  0.2061 -0.4561  0.5135
18543SOL    HW156207   1.220   4.367   7.832  0.1627 -1.0069  1.8868
18543SOL    HW256208   1.238   4.493   7.914 -0.4458 -0.6579  1.4910
18544SOL     OW56209   2.120   2.192  -0.034  0.0468 -0.0504 -0.5673
18544SOL    HW156210   2.103   2.110   0.011 -0.7402  0.1407 -0.5020
18544SOL    HW256211   2.175   2.242   0.027  1.3379 -0.8867 -1.0047
18545SOL     OW56212   0.839   0.548   7.609 -0.2433 -0.2523 -0.1006
18545SOL    HW156213   0.908   0.610   7.634 -0.2839 -0.7371  1.2789
18545SOL    HW256214   0.758   0.589   7.639 -0.4516 -0.1828 -0.7482
18546SOL     OW56215   9.664   3.591   3.127 -0.2282 -0.9302  0.0670
18546SOL    HW156216   9.603   3.558   3.061  0.9525  0.1788 -1.6884
18546SOL    HW256217   9.746   3.546   3.107  0.2226 -0.3468  0.5839
18547SOL     OW56218   5.182   0.982   4.596  0.3705  0.1668 -0.4006
18547SOL    HW156219   5.251   0.915   4.597 -1.0402 -1.3360 -0.2298
18547SOL    HW256220   5.185   1.021   4.683  1.9111  1.1322 -0.8437
18548SOL     OW56221   5.709   3.674   3.340  0.1623  0.7307 -0.0366
18548SOL    HW156222   5.662   3.591   3.345 -0.3523  0.9768 -0.6046
18548SOL    HW256223   5.801   3.650   3.329  0.0301  0.2427 -0.0682
18549SOL     OW56224   0.705   9.913   7.497 -0.0374 -0.6644 -0.1148
18549SOL    HW156225   0.756   9.973   7.442  3.0052 -0.2783  2.7932
18549SOL    HW256226   0.657   9.970   7.556  0.8674 -1.0269  1.0019
18550SOL     OW56227   3.789   9.949   3.787  0.2639  0.2620 -0.6166
18550SOL    HW156228   3.709   9.975   3.742 -0.2378  0.9788  0.6313
18550SOL    HW256229   3.852  10.018   3.767  0.9410 -0.8027 -2.4263
18551SOL     OW56230   9.830   7.266   0.263  0.5630 -0.0608  0.2229
18551SOL    HW156231   9.764   7.262   0.331  1.3087 -3.2404  0.9059
18551SOL    HW256232   9.835   7.178   0.228  2.3644  0.7639 -1.8671
18552SOL     OW56233   4.888   5.535   9.777 -0.3309 -0.2545  0.7178
18552SOL    HW156234   4.814   5.492   9.734  0.2875  1.8004 -2.8573
18552SOL    HW256235   4.850   5.615   9.814 -0.0418  0.9102 -1.3045
18553SOL     OW56236   4.189   4.188   7.798  0.5892  0.0246  0.2990
18553SOL    HW156237   4.239   4.269   7.812  2.2975 -1.2235  1.7891
18553SOL    HW256238   4.212   4.160   7.710 -0.6583  1.5187 -0.5710
18554SOL     OW56239   9.034   2.153   9.971 -0.7261  0.2364  0.3546
18554SOL    HW156240   9.019   2.072   9.922 -0.9042 -0.2326  1.1624
18554SOL    HW256241   8.987   2.220   9.922 -1.2352 -0.2995  0.0951
18555SOL     OW56242   2.126   3.079   1.324  0.2397  0.0489 -0.1721
18555SOL    HW156243   2.105   2.996   1.282  1.9023 -0.9706  0.8935
18555SOL    HW256244   2.044   3.128   1.322 -0.7429 -1.5407 -0.9921
18556SOL     OW56245   2.435   2.398   0.679 -0.4874 -0.2684 -0.1373
18556SOL    HW156246   2.373   2.472   0.679 -0.6974 -0.4148  1.2115
18556SOL    HW256247   2.489   2.412   0.602 -0.0437  1.7352  0.4716
18557SOL     OW56248   6.233   0.640   7.830 -0.2706  0.1002  0.2953
18557SOL    HW156249   6.171   0.654   7.902 -0.3754  0.0360  0.2183
18557SOL    HW256250   6.223   0.547   7.808  0.0330  0.0317  0.4498
18558SOL     OW56251   8.904   3.729   2.365 -0.6230  0.5342 -0.0095
18558SOL    HW156252   8.877   3.653   2.416 -1.5389  0.6523 -0.2899
18558SOL    HW256253   8.992   3.707   2.333 -0.2124  0.2810  1.2348
18559SOL     OW56254   2.044   3.335   4.537 -0.1833  0.3563  0.0966
18559SOL    HW156255   2.065   3.417   4.492 -1.7421  0.5948 -0.2537
18559SOL    HW256256   1.955   3.314   4.508  0.2430 -1.5503  0.0651
18560SOL     OW56257   2.793   6.680   0.768  0.5155 -0.1723  0.3566
18560SOL    HW156258   2.883   6.685   0.735  0.3087 -1.9050 -0.6221
18560SOL    HW256259   2.738   6.681   0.689 -0.2509 -0.2654  0.8737
18561SOL     OW56260   6.341   8.788   7.027  0.1251 -0.2516  0.6204
18561SOL    HW156261   6.270   8.736   6.990 -0.1343 -0.3931  1.2919
18561SOL    HW256262   6.358   8.748   7.112  1.0855 -0.2790  0.4208
18562SOL     OW56263   2.746   1.613   9.427  0.2624  0.3014  0.3054
18562SOL    HW156264   2.801   1.690   9.438 -0.4690  0.9530 -0.4442
18562SOL    HW256265   2.801   1.540   9.453  1.7691  0.8473 -1.1524
18563SOL     OW56266   4.021   0.499   2.492 -0.4162 -0.2175  0.4846
18563SOL    HW156267   3.978   0.573   2.450 -0.3073 -0.5281 -0.1823
18563SOL    HW256268   3.956   0.466   2.555 -0.5829  0.2408  0.5497
18564SOL     OW56269   2.132   1.158   8.454  0.0236  0.1112 -0.4281
18564SOL    HW156270   2.193   1.106   8.506  1.0135  2.1766  0.6114
18564SOL    HW256271   2.048   1.152   8.501 -0.1717 -1.3243 -0.9068
18565SOL     OW56272   1.547   4.646   7.810 -0.0573  0.2223 -0.5469
18565SOL    HW156273   1.498   4.622   7.731 -0.4421 -0.6604 -0.0588
18565SOL    HW256274   1.478   4.667   7.875  0.2203 -0.2632 -0.0869
18566SOL     OW56275   8.565   6.155   7.730  0.6487  0.5253  0.3911
18566SOL    HW156276   8.630   6.181   7.796  0.6283  0.3464  0.4822
18566SOL    HW256277   8.568   6.225   7.665  1.6692  0.0083 -0.1352
18567SOL     OW56278   5.432   1.246   2.600 -0.2503  0.1109  0.0852
18567SOL    HW156279   5.490   1.173   2.621  0.2082  0.6290  0.6664
18567SOL    HW256280   5.356   1.234   2.657 -0.7584 -0.6053 -0.7230
18568SOL     OW56281   9.501   1.654   9.908 -0.2226  0.0720 -0.1329
18568SOL    HW156282   9.528   1.710   9.834  0.3123  2.3953  1.6991
18568SOL    HW256283   9.406   1.665   9.912 -0.1771  0.4602 -0.0781
18569SOL     OW56284   0.510   5.403   8.427 -0.0501 -0.0462 -0.6590
18569SOL    HW156285   0.579   5.469   8.432  0.6402 -0.6391 -2.0640
18569SOL    HW256286   0.556   5.319   8.422 -0.8827 -0.4976 -0.9612
18570SOL     OW56287   9.942   0.338   7.672 -0.6074  0.8625 -0.5084
18570SOL    HW156288   9.934   0.362   7.579 -1.1792  0.1111 -0.6624
18570SOL    HW256289  10.025   0.377   7.699  0.3619 -0.2191 -1.7583
18571SOL     OW56290   5.612   7.836   4.883  0.1954 -0.6753  0.0078
18571SOL    HW156291   5.563   7.913   4.853  0.5644 -0.4028  0.0973
18571SOL    HW256292   5.553   7.794   4.946 -0.8698 -1.6337 -1.5432
18572SOL     OW56293   6.527   9.885   2.421  0.2548  0.5181 -0.2772
18572SOL    HW156294   6.532   9.795   2.388 -2.9625  0.0671  0.1814
18572SOL    HW256295   6.539   9.877   2.515  1.0451  0.7482 -0.3486
18573SOL     OW56296   8.529   8.863   8.933 -0.4539 -0.0529  0.1450
18573SOL    HW156297   8.466   8.888   9.001 -0.4141 -0.3320  0.2842
18573SOL    HW256298   8.477   8.864   8.852 -0.6530 -0.3462  0.2688
18574SOL     OW56299   7.962   2.401   2.181 -0.2934  0.2398 -0.6575
18574SOL    HW156300   7.957   2.465   2.110  2.7012  1.5418  0.1460
18574SOL    HW256301   7.978   2.453   2.259 -0.0857 -1.3514  0.4077
18575SOL     OW56302   8.907   1.628   5.294  0.5505  0.1695  0.0266
18575SOL    HW156303   8.893   1.674   5.377  1.2384  0.8080 -0.1983
18575SOL    HW256304   8.820   1.599   5.267 -0.2007  2.8957 -0.7220
18576SOL     OW56305   4.348   8.907   5.657  0.3097  0.1699 -0.6212
18576SOL    HW156306   4.268   8.941   5.697 -0.0444 -3.1862  1.9845
18576SOL    HW256307   4.416   8.969   5.682 -1.1539  2.2432 -1.5272
18577SOL     OW56308   4.003   3.052   4.877  0.2087 -0.0935  0.2222
18577SOL    HW156309   3.921   3.028   4.832 -0.0275  2.2375 -0.7407
18577SOL    HW256310   4.071   3.007   4.828 -0.3306 -0.2320 -0.4242
18578SOL     OW56311   1.456   1.311   8.812  0.3396  0.1074  0.0885
18578SOL    HW156312   1.409   1.320   8.729 -1.7887 -3.5891  0.6671
18578SOL    HW256313   1.499   1.225   8.806  0.0627 -0.3186  2.8097
18579SOL     OW56314   5.586   9.770   6.324  0.6216 -0.2193  0.0965
18579SOL    HW156315   5.628   9.782   6.239  1.8144 -0.1257  0.6742
18579SOL    HW256316   5.592   9.676   6.341 -2.6816 -0.8344 -1.4048
18580SOL     OW56317   7.193   5.163   2.613  0.0410  0.1996  0.4557
18580SOL    HW156318   7.159   5.187   2.527 -2.8274  1.0209  1.7258
18580SOL    HW256319   7.142   5.086   2.639  0.8117 -0.0026  1.4747
18581SOL     OW56320   1.707   2.897   7.504  0.0260  0.0931 -0.9788
18581SOL    HW156321   1.747   2.903   7.590 -1.0568 -0.5920 -0.4028
18581SOL    HW256322   1.779   2.883   7.444  0.8693  1.2138 -0.2762
18582SOL     OW56323   5.023   3.428   6.246  0.3979 -0.6538 -0.3427
18582SOL    HW156324   5.117   3.413   6.257  0.5142  1.0668  1.4210
18582SOL    HW256325   4.983   3.345   6.273  1.3734 -1.5924 -1.6145
18583SOL     OW56326   5.160   9.248   1.145  0.0421 -0.4117  0.6898
18583SOL    HW156327   5.212   9.180   1.103  0.0110  0.6035 -1.1050
18583SOL    HW256328   5.122   9.298   1.072 -0.7222  0.9211  1.9383
18584SOL     OW56329   4.331   9.369   0.540 -0.8846 -0.4769 -0.1293
18584SOL    HW156330   4.260   9.377   0.476  0.0763  1.6911 -1.0315
18584SOL    HW256331   4.308   9.292   0.592 -3.5591 -0.2160 -0.7800
18585SOL     OW56332   5.877   0.011   5.804  0.6828  0.1712  0.5723
18585SOL    HW156333   5.943   0.078   5.787  0.4139 -0.2628 -3.1195
18585SOL    HW256334   5.928  -0.069   5.820  1.0779  0.2474 -0.2360
18586SOL     OW56335   0.104   8.981   1.827  0.0390  0.0815  0.0748
18586SOL    HW156336   0.120   9.029   1.746 -2.4280  2.0551  0.6100
18586SOL    HW256337   0.021   8.934   1.811 -0.6869  0.8047  1.5226
18587SOL     OW56338   5.986   0.598   2.832  0.0793 -0.2798  0.7004
18587SOL    HW156339   5.952   0.550   2.756  2.2061  0.6232 -0.9168
18587SOL    HW256340   5.911   0.649   2.863 -0.8624 -0.6837 -0.7802
18588SOL     OW56341   6.264   2.404   1.406  0.5511 -0.0752  0.0545
18588SOL    HW156342   6.188   2.449   1.369  0.5471 -1.2070 -1.3966
18588SOL    HW256343   6.335   2.468   1.401  0.8630 -0.5445 -3.1571
18589SOL     OW56344   9.374   7.215   5.523  0.1266  0.1729 -0.0908
18589SOL    HW156345   9.430   7.153   5.476 -0.2484  0.7432 -1.3362
18589SOL    HW256346   9.412   7.301   5.503  0.3604  0.3919  1.2315
18590SOL     OW56347   5.684   8.975   2.164  0.3480  0.3294 -0.5072
18590SOL    HW156348   5.764   8.949   2.210  2.0220  3.4099 -1.4383
18590SOL    HW256349   5.704   8.963   2.071 -0.8815 -0.3325 -0.7110
18591SOL     OW56350   5.026   1.884   5.817  0.2248  0.2306 -0.3915
18591SOL    HW156351   4.968   1.809   5.834  0.4251 -0.3927 -2.2411
18591SOL    HW256352   5.015   1.940   5.893  1.6692 -2.6508  2.1898
18592SOL     OW56353   8.351   1.975   0.115  0.2598 -0.5261  0.1778
18592SOL    HW156354   8.445   1.963   0.125  0.6105 -0.2193 -2.1914
18592SOL    HW256355   8.329   2.046   0.175  1.4430 -0.8625  1.0444
18593SOL     OW56356   0.344   9.104   5.171 -0.1761 -0.0181  0.0569
18593SOL    HW156357   0.341   9.008   5.169  0.7726 -0.0717 -2.3710
18593SOL    HW256358   0.431   9.126   5.137 -0.9182  1.6764 -0.8601
18594SOL     OW56359   5.364   8.474   1.722  0.1743  1.1601  0.1342
18594SOL    HW156360   5.288   8.416   1.730 -0.2949  1.5849 -0.9400
18594SOL    HW256361   5.417   8.455   1.799  1.4525 -2.6830 -1.4499
18595SOL     OW56362   4.766   5.346   6.729 -0.0215  0.2450 -0.0731
18595SOL    HW156363   4.824   5.303   6.666  0.7042  1.1259 -0.0155
18595SOL    HW256364   4.794   5.313   6.814  0.5673  0.8469 -0.0251
18596SOL     OW56365   2.864   3.892   6.237 -0.3641 -0.2495 -0.2554
18596SOL    HW156366   2.952   3.906   6.201 -0.2665  0.1450  0.1221
18596SOL    HW256367   2.849   3.969   6.292 -1.4958  0.3693 -1.3879
18597SOL     OW56368   6.708   1.348   2.641 -0.2048 -0.0217  0.1631
18597SOL    HW156369   6.652   1.373   2.714 -1.1821  1.0359 -0.9135
18597SOL    HW256370   6.774   1.417   2.637  1.0246 -1.0835  1.2104
18598SOL     OW56371   5.965   2.390   0.440  0.5755  0.0256 -0.4411
18598SOL    HW156372   6.025   2.416   0.371 -0.8988  2.1966 -0.9873
18598SOL    HW256373   5.894   2.344   0.395  0.3472  0.1054 -0.1659
18599SOL     OW56374   0.332   6.340   4.255 -0.1438 -0.0645  0.0980
18599SOL    HW156375   0.348   6.263   4.201  0.5479  0.7429 -0.9036
18599SOL    HW256376   0.415   6.389   4.252 -0.3872  0.4512  1.1586
18600SOL     OW56377   1.715   8.510   4.164 -0.2982 -0.2803  0.5872
18600SOL    HW156378   1.711   8.459   4.245 -1.0118  0.5541  1.1073
18600SOL    HW256379   1.640   8.569   4.170  0.0643  0.2963 -0.3442
18601SOL     OW56380   9.880   2.125   8.917 -0.4468 -0.3001  0.5891
18601SOL    HW156381   9.918   2.205   8.954 -0.8818  0.1118  0.1728
18601SOL    HW256382   9.844   2.153   8.833 -0.1130 -1.0623  0.1793
18602SOL     OW56383   3.629   4.643   6.732 -0.5130 -0.2475  0.0395
18602SOL    HW156384   3.552   4.691   6.701 -1.1607 -2.1365 -1.4402
18602SOL    HW256385   3.685   4.637   6.655 -0.6955 -2.2841  0.0302
18603SOL     OW56386   5.875   4.190   1.930 -0.0721 -0.9709  0.6729
18603SOL    HW156387   5.866   4.127   1.858 -0.3934  0.3680 -0.5058
18603SOL    HW256388   5.804   4.252   1.916  1.1528  0.5201  0.8938
18604SOL     OW56389   7.661   0.983   0.205  0.4612 -0.0843 -1.1408
18604SOL    HW156390   7.581   0.930   0.210  0.7588 -0.5650 -1.3029
18604SOL    HW256391   7.643   1.059   0.259 -0.1289 -0.1583 -1.2204
18605SOL     OW56392   8.619   8.185   2.393 -0.2520 -0.4461  0.1309
18605SOL    HW156393   8.581   8.103   2.425 -1.7753 -0.2469 -1.0758
18605SOL    HW256394   8.583   8.252   2.451  0.2153 -0.5095  0.5020
18606SOL     OW56395   9.818   4.754   0.030  0.6823 -0.1009  0.1207
18606SOL    HW156396   9.894   4.776   0.084  0.2303  0.0149  0.7222
18606SOL    HW256397   9.757   4.826   0.045 -0.8640 -1.6991  2.1961
18607SOL     OW56398   5.070   6.703   4.685 -0.1887 -1.0044 -0.4249
18607SOL    HW156399   5.157   6.666   4.699 -0.4998 -1.7312 -0.3905
18607SOL    HW256400   5.071   6.733   4.594  1.5243  2.8794  0.6230
18608SOL     OW56401   6.594   6.823   5.547  0.8902 -0.4721  0.0283
18608SOL    HW156402   6.512   6.803   5.502  0.6217 -0.4371  0.5003
18608SOL    HW256403   6.601   6.756   5.615  0.4226  0.5012  1.0614
18609SOL     OW56404   7.152   1.224   6.110 -0.4853  0.7732 -0.7076
18609SOL    HW156405   7.057   1.221   6.117 -0.5279  1.7207 -0.8194
18609SOL    HW256406   7.173   1.155   6.047 -0.9531 -0.5438  0.5276
18610SOL     OW56407   7.174   5.215   5.683 -0.3589 -0.4993  0.2719
18610SOL    HW156408   7.214   5.128   5.678 -0.6234 -0.5559 -2.8021
18610SOL    HW256409   7.226   5.261   5.749  0.7284 -2.5099  0.9167
18611SOL     OW56410   9.547   1.336   1.281  0.1231  0.0859 -0.3891
18611SOL    HW156411   9.469   1.317   1.229  0.9232  0.1331 -1.6847
18611SOL    HW256412   9.562   1.257   1.333 -0.3662 -0.2088 -0.6925
18612SOL     OW56413   5.397   4.754   6.996 -0.3700 -0.0473  0.2645
18612SOL    HW156414   5.311   4.717   6.974  0.1180 -0.9814 -0.1170
18612SOL    HW256415   5.443   4.682   7.040 -0.1695  0.7946  1.4749
18613SOL     OW56416   1.898   8.928   1.293  0.4043  0.3749  0.9367
18613SOL    HW156417   1.821   8.871   1.295 -0.8005  1.7732 -1.5239
18613SOL    HW256418   1.880   8.996   1.357 -0.0646  0.2838  0.8999
18614SOL     OW56419   8.309   7.842   4.634  0.1798 -0.4513  0.0746
18614SOL    HW156420   8.396   7.807   4.616  0.4244  0.3909 -0.4511
18614SOL    HW256421   8.313   7.875   4.723 -0.4688 -2.9536  1.0992
18615SOL     OW56422   7.985   8.833   9.479  0.1089  0.4740 -0.1935
18615SOL    HW156423   7.933   8.889   9.420  0.5726  0.0051 -1.0651
18615SOL    HW256424   8.075   8.844   9.448  0.1795 -0.9299 -0.5272
18616SOL     OW56425   4.852   6.567   2.113  0.1885 -0.4509  0.0779
18616SOL    HW156426   4.855   6.646   2.166 -1.9662 -0.3284  0.1052
18616SOL    HW256427   4.784   6.584   2.048  1.2262 -1.4532 -1.3189
18617SOL     OW56428   3.422   6.566   2.838 -0.0631  0.2443 -0.0654
18617SOL    HW156429   3.380   6.500   2.893 -0.1020 -0.7260 -1.2056
18617SOL    HW256430   3.349   6.620   2.806 -0.2247 -0.1590 -0.3947
18618SOL     OW56431   6.877   4.080   8.108 -0.2765  0.3045 -0.6407
18618SOL    HW156432   6.919   4.055   8.026  1.2311  2.8209 -0.7450
18618SOL    HW256433   6.885   4.003   8.164  1.7834 -0.3405 -1.7116
18619SOL     OW56434   3.562   0.032   9.096 -0.5285 -0.3071 -0.1311
18619SOL    HW156435   3.481   0.035   9.148  0.4896  0.4827  1.4840
18619SOL    HW256436   3.580   0.123   9.075 -0.3218 -0.5303 -0.9587
18620SOL     OW56437   2.463   9.082   3.686 -0.1636  0.2336 -0.3095
18620SOL    HW156438   2.556   9.095   3.667 -0.0040 -1.0604 -0.4857
18620SOL    HW256439   2.422   9.076   3.600 -0.4399  0.9873 -0.2311
18621SOL     OW56440   5.304   9.677   0.081 -0.2676  0.6989 -0.4700
18621SOL    HW156441   5.243   9.614   0.042  0.4418  0.7228 -1.6659
18621SOL    HW256442   5.380   9.677   0.022  0.5340  1.2981  0.5260
18622SOL     OW56443   9.016   6.560   5.245 -0.0043  0.1087 -0.1007
18622SOL    HW156444   9.098   6.571   5.294  0.5722  0.0666 -1.0273
18622SOL    HW256445   9.006   6.641   5.196  0.9670 -0.8784 -2.1051
18623SOL     OW56446   9.819   0.798   5.366 -0.5085  0.1435 -0.2187
18623SOL    HW156447   9.850   0.749   5.289 -1.2423  0.9712 -1.0597
18623SOL    HW256448   9.726   0.813   5.350 -0.6140  0.5738  0.7118
18624SOL     OW56449   8.930   7.554   0.774  0.0772  0.6142  0.0241
18624SOL    HW156450   8.901   7.609   0.847  1.2002  1.0126  0.2028
18624SOL    HW256451   8.945   7.468   0.813 -0.4117  0.5279  0.0235
18625SOL     OW56452   7.836   6.633   2.470  0.0713 -0.5203 -0.5690
18625SOL    HW156453   7.747   6.649   2.439  0.0422  3.3009  0.8950
18625SOL    HW256454   7.829   6.556   2.526 -2.8211  0.6734  0.9381
18626SOL     OW56455   5.874   3.363   7.595  0.2915 -0.0940 -0.2244
18626SOL    HW156456   5.943   3.308   7.557 -0.4145 -0.6199 -0.7777
18626SOL    HW256457   5.884   3.448   7.552  1.2461  0.1604  0.4677
18627SOL     OW56458   6.305   8.331   6.381 -0.2074  0.0160 -0.0067
18627SOL    HW156459   6.379   8.388   6.403 -0.5069  0.1608  0.6646
18627SOL    HW256460   6.338   8.274   6.312  1.1522 -1.1932  1.5551
18628SOL     OW56461   4.022   7.058   9.069  0.4008  0.4196  0.1549
18628SOL    HW156462   3.990   6.974   9.036  0.2043  0.0853  1.1546
18628SOL    HW256463   4.094   7.035   9.129 -0.3300  0.8735  1.2473
18629SOL     OW56464   4.565   9.528   6.363 -0.2161 -0.3576 -0.5573
18629SOL    HW156465   4.568   9.581   6.443 -1.6417 -2.4358  0.9541
18629SOL    HW256466   4.477   9.542   6.328  0.3591  0.4433 -1.7565
18630SOL     OW56467   3.786   6.594   6.274  0.5810 -0.1771 -0.0219
18630SOL    HW156468   3.744   6.663   6.324  2.1205  1.1403 -0.4411
18630SOL    HW256469   3.788   6.628   6.184  1.3296 -0.7623 -0.2382
18631SOL     OW56470   4.521   2.889   1.380 -0.3840 -0.1070  0.1660
18631SOL    HW156471   4.557   2.838   1.307  0.1317  0.9008 -0.3079
18631SOL    HW256472   4.500   2.974   1.341 -0.8925  0.1712  1.0220
18632SOL     OW56473   6.348   5.075   3.897 -0.1454 -0.2704 -0.3387
18632SOL    HW156474   6.312   4.987   3.902 -0.1469 -0.2156  0.9044
18632SOL    HW256475   6.321   5.117   3.979  1.1379  0.3803 -0.2257
18633SOL     OW56476   0.025   6.735   7.171  0.0133  0.9307  0.8724
18633SOL    HW156477   0.107   6.736   7.121 -0.6828 -1.4573 -0.4478
18633SOL    HW256478   0.045   6.685   7.250 -0.6326 -1.6285 -0.4910
18634SOL     OW56479   0.060   4.473   3.703 -0.0060 -0.0706 -0.1785
18634SOL    HW156480   0.078   4.385   3.672 -0.0729 -0.3060  0.4244
18634SOL    HW256481  -0.033   4.486   3.684 -1.4176 -2.0608  4.0704
18635SOL     OW56482   1.839   1.342   8.173 -0.5529 -0.4184 -0.4246
18635SOL    HW156483   1.864   1.314   8.085 -1.7302  1.4623 -1.4352
18635SOL    HW256484   1.801   1.264   8.213  2.0229 -1.9150 -0.7040
18636SOL     OW56485   9.244   2.344   1.796 -0.5739  0.4272  0.0140
18636SOL    HW156486   9.306   2.362   1.866  0.4707 -1.8247 -0.2527
18636SOL    HW256487   9.175   2.409   1.807 -1.7947 -1.3054  4.7197
18637SOL     OW56488   8.477   2.781   1.095  0.2658  0.1253 -0.5564
18637SOL    HW156489   8.440   2.760   1.180  0.3617  1.0630 -0.2675
18637SOL    HW256490   8.453   2.707   1.039 -0.6179 -0.0535  0.0395
18638SOL     OW56491   6.390   8.445   9.287  0.2045 -0.2649  0.1500
18638SOL    HW156492   6.349   8.531   9.273 -1.3713 -0.8116  1.1273
18638SOL    HW256493   6.437   8.454   9.370  0.3242 -0.2325  0.0772
18639SOL     OW56494   6.716   6.688   9.719 -0.6682  0.5428  0.1770
18639SOL    HW156495   6.767   6.616   9.681 -0.4833  0.0692  1.2716
18639SOL    HW256496   6.689   6.655   9.805 -0.4559  1.8439  0.7659
18640SOL     OW56497   9.054   5.729   1.233 -0.3735  0.0125  0.3390
18640SOL    HW156498   9.049   5.779   1.314 -0.5736  0.6552 -0.0687
18640SOL    HW256499   9.058   5.794   1.164  1.9316 -0.4960 -0.0746
18641SOL     OW56500   5.522   9.217   4.440 -0.0647 -0.2333 -0.0786
18641SOL    HW156501   5.494   9.276   4.370  1.6729  1.3494  0.4461
18641SOL    HW256502   5.451   9.220   4.504 -0.3162  0.7599 -0.3876
18642SOL     OW56503   3.589   0.867   3.345 -0.5329 -0.7945  0.3965
18642SOL    HW156504   3.607   0.952   3.305  0.7263 -1.2081  0.0377
18642SOL    HW256505   3.543   0.888   3.426 -0.1600  0.2419  0.3556
18643SOL     OW56506   4.061   3.429   9.213  0.3238  0.2745 -0.0190
18643SOL    HW156507   4.142   3.467   9.250  0.3329 -1.0203  1.3947
18643SOL    HW256508   4.083   3.338   9.195 -0.6166  0.1014 -0.3427
18644SOL     OW56509   6.374   1.589   3.129 -0.3819  0.5807  0.3806
18644SOL    HW156510   6.311   1.533   3.175  0.1042 -1.1292 -0.9158
18644SOL    HW256511   6.454   1.585   3.181 -0.1527 -0.5063 -0.0234
18645SOL     OW56512   5.540   8.586   6.657 -0.2339  0.0991 -0.1340
18645SOL    HW156513   5.487   8.507   6.657 -1.6427  0.9081  2.4361
18645SOL    HW256514   5.493   8.647   6.600 -0.1126 -0.3327 -0.6958
18646SOL     OW56515   1.704   6.201   8.697  0.2169 -0.3840  0.9014
18646SOL    HW156516   1.708   6.221   8.603  1.0681 -0.3139  0.9407
18646SOL    HW256517   1.624   6.245   8.727 -0.4010 -0.9218  0.0992
18647SOL     OW56518   2.334   9.517   4.511 -0.7150  0.4281  0.2773
18647SOL    HW156519   2.346   9.488   4.420 -1.4473 -0.5184  0.4644
18647SOL    HW256520   2.366   9.444   4.564 -2.0786  0.1352  0.7603
18648SOL     OW56521   8.322   8.857   8.752  0.3072 -0.7201 -0.9306
18648SOL    HW156522   8.322   8.952   8.753  2.6173 -0.6504  1.0064
18648SOL    HW256523   8.229   8.833   8.752 -0.4835  1.6102  2.1630
18649SOL     OW56524   1.026   4.358   3.089 -0.1878  0.0100 -0.4707
18649SOL    HW156525   1.075   4.394   3.163 -2.1460  1.9017 -0.0047
18649SOL    HW256526   1.015   4.432   3.030  0.1707 -1.1522 -2.0494
18650SOL     OW56527   8.962   7.632   3.469 -0.6044  0.5855  0.0613
18650SOL    HW156528   8.871   7.629   3.439  0.0209  0.6200 -1.9739
18650SOL    HW256529   8.964   7.576   3.546 -1.9684 -0.9470 -0.9578
18651SOL     OW56530   2.261   1.396   2.531  0.0114  0.5638  0.1938
18651SOL    HW156531   2.265   1.416   2.437 -1.5034  0.4819  0.0915
18651SOL    HW256532   2.268   1.300   2.535 -1.1880  0.4642  0.0632
18652SOL     OW56533   1.649   4.155   4.763 -0.2795  0.2571 -0.6826
18652SOL    HW156534   1.601   4.113   4.834 -0.9448 -1.9295 -2.3149
18652SOL    HW256535   1.721   4.201   4.806 -0.7478 -0.8644  1.3961
18653SOL     OW56536   7.480   6.265   4.559  0.6231 -0.3166 -0.5215
18653SOL    HW156537   7.390   6.282   4.589  1.2328 -0.1684  1.3498
18653SOL    HW256538   7.472   6.189   4.501 -0.9147  0.7062 -1.7271
18654SOL     OW56539   3.031   5.598   5.106 -0.0747 -0.2259 -0.6467
18654SOL    HW156540   2.969   5.617   5.177  0.7876 -0.9048  0.3309
18654SOL    HW256541   3.009   5.509   5.078 -0.2389 -0.0594 -1.0477
18655SOL     OW56542   3.028   4.536   4.314  0.4471 -0.1568 -0.4510
18655SOL    HW156543   2.962   4.585   4.363  3.2010  1.5336  1.9217
18655SOL    HW256544   2.992   4.447   4.307 -1.9544  0.6313  0.8428
18656SOL     OW56545   4.862   2.756   0.946  0.3108 -0.1209 -0.1996
18656SOL    HW156546   4.902   2.712   0.871 -1.0011 -1.4417 -0.1762
18656SOL    HW256547   4.793   2.696   0.974  1.5340 -0.2857  2.8389
18657SOL     OW56548   7.654   0.570   7.844 -0.7935 -0.4184 -0.3719
18657SOL    HW156549   7.646   0.583   7.750 -0.7106 -0.3692 -0.3720
18657SOL    HW256550   7.713   0.495   7.853  0.9541  0.8955 -0.3270
18658SOL     OW56551   4.631   2.475   0.052  0.1396 -0.1846  0.1797
18658SOL    HW156552   4.679   2.558   0.047  1.5787 -1.0202 -0.4337
18658SOL    HW256553   4.681   2.422   0.114  0.2720 -1.2351 -0.8011
18659SOL     OW56554   7.298   6.067   3.815 -0.0455  0.3636  0.6928
18659SOL    HW156555   7.308   6.122   3.892  1.2671 -0.2108  0.9629
18659SOL    HW256556   7.306   5.978   3.848  1.3681  0.1275 -0.1842
18660SOL     OW56557   6.964   4.372   5.754 -0.3722  0.4060  0.0260
18660SOL    HW156558   6.902   4.337   5.819  0.0964 -0.4942  0.0040
18660SOL    HW256559   6.966   4.305   5.685  1.7056 -0.3174  0.7050
18661SOL     OW56560   3.536   4.656   2.375  0.0857  0.0751  0.2523
18661SOL    HW156561   3.563   4.622   2.460  1.0358 -2.0724 -0.8308
18661SOL    HW256562   3.617   4.661   2.324 -0.5251  0.9018 -0.6866
18662SOL     OW56563   8.178   7.305   7.178 -0.0174 -0.0777  0.0901
18662SOL    HW156564   8.094   7.270   7.210  0.3518  1.1440  2.6936
18662SOL    HW256565   8.243   7.264   7.234  0.5024  3.8603  2.7823
18663SOL     OW56566   0.970   6.381   2.957  0.5627  0.1048  0.0414
18663SOL    HW156567   1.024   6.351   3.030  1.6928  0.7953 -0.4666
18663SOL    HW256568   1.033   6.389   2.884 -0.3155  0.5608 -0.6794
18664SOL     OW56569   0.032   8.394   6.562 -0.6106  0.0228  0.2197
18664SOL    HW156570   0.045   8.380   6.656 -0.8674 -0.3869  0.1988
18664SOL    HW256571  -0.000   8.310   6.530  0.8933 -0.3002 -0.5040
18665SOL     OW56572   7.714   9.571   6.406  0.4279 -0.4078  0.0499
18665SOL    HW156573   7.719   9.534   6.318  0.9746  2.0077 -1.0312
18665SOL    HW256574   7.686   9.661   6.392  2.0394  0.5222  2.1997
18666SOL     OW56575   5.477   9.684   3.393 -0.0848  0.0629 -0.3877
18666SOL    HW156576   5.467   9.631   3.314  0.3130 -0.1193 -0.3205
18666SOL    HW256577   5.526   9.627   3.453 -1.7880 -0.4527  0.6044
18667SOL     OW56578   3.305   4.366   2.889 -0.7851 -0.0313 -0.7712
18667SOL    HW156579   3.369   4.354   2.819 -1.7773  0.8277 -1.8775
18667SOL    HW256580   3.272   4.455   2.876 -1.4589 -0.0856  0.3993
18668SOL     OW56581   7.463   4.186   5.288  0.3201 -0.1026  0.2364
18668SOL    HW156582   7.421   4.104   5.312  0.8047 -1.1540 -2.2299
18668SOL    HW256583   7.548   4.161   5.252  1.3021  1.6511  1.2180
18669SOL     OW56584   0.797   4.066  -0.019 -0.4555 -0.8393 -0.0165
18669SOL    HW156585   0.707   4.045   0.003 -0.0556 -1.3794  1.1511
18669SOL    HW256586   0.840   4.081   0.065  0.2479  0.7116 -0.5998
18670SOL     OW56587   4.859   0.207   1.140  0.2545  0.0577  0.6403
18670SOL    HW156588   4.912   0.254   1.076  0.6888 -0.2195  0.7955
18670SOL    HW256589   4.815   0.275   1.190  0.5040  0.2881  0.5450
18671SOL     OW56590   5.929   4.561   7.310 -0.0967 -0.0940  0.0173
18671SOL    HW156591   5.875   4.482   7.301 -0.8974 -0.0440  3.2130
18671SOL    HW256592   6.004   4.532   7.362  0.7973  0.7927 -0.7435
18672SOL     OW56593   7.556   7.663   0.390 -0.0086 -0.3502  0.1764
18672SOL    HW156594   7.494   7.691   0.458  0.4251  1.4252 -0.1161
18672SOL    HW256595   7.501   7.638   0.317 -0.4520 -1.3244  0.8258
18673SOL     OW56596   1.492   0.556   7.675  0.7192  0.3505 -0.2402
18673SOL    HW156597   1.448   0.478   7.707  0.4134  1.1118  1.3098
18673SOL    HW256598   1.554   0.524   7.610  1.2766 -1.3166  1.0361
18674SOL     OW56599   4.316   6.612   7.101  0.1874 -0.2595 -0.8657
18674SOL    HW156600   4.343   6.541   7.159  0.2111  1.2975  1.1592
18674SOL    HW256601   4.221   6.600   7.090  0.1499 -0.4707 -0.3314
18675SOL     OW56602   0.712   4.597   9.456  0.4299  0.4154  0.0615
18675SOL    HW156603   0.717   4.673   9.397 -1.3551  1.1721  0.8194
18675SOL    HW256604   0.751   4.629   9.538  2.5715 -0.5199 -0.5223
18676SOL     OW56605   1.313   3.602   0.376  0.2377  0.0986 -0.1971
18676SOL    HW156606   1.341   3.641   0.459 -2.4130 -1.0293  1.3826
18676SOL    HW256607   1.370   3.640   0.310  1.0945  2.6730  1.8741
18677SOL     OW56608   4.876   9.503   6.885 -0.2485  0.4651  0.0999
18677SOL    HW156609   4.910   9.512   6.795 -1.1749  0.3181 -0.2719
18677SOL    HW256610   4.791   9.461   6.874  0.3093 -1.0646  1.1568
18678SOL     OW56611   3.459   7.331   0.975  0.2832 -0.0070 -0.0011
18678SOL    HW156612   3.504   7.332   1.059  1.5997 -0.8582 -0.6551
18678SOL    HW256613   3.517   7.280   0.917  0.1254  1.7224 -1.7989
18679SOL     OW56614   4.498   5.523   7.234  0.1833  0.2901 -0.3009
18679SOL    HW156615   4.436   5.591   7.259 -0.0755  0.2267 -0.7697
18679SOL    HW256616   4.469   5.494   7.148  2.2697  1.9839 -1.7039
18680SOL     OW56617   4.978   8.512   7.480 -0.0053  0.0768  0.6380
18680SOL    HW156618   5.069   8.531   7.455 -0.1982  0.3922  0.1554
18680SOL    HW256619   4.934   8.597   7.475 -0.6160 -0.2833 -0.3921
18681SOL     OW56620   7.847   5.507   5.068  0.2391  0.4525  0.1790
18681SOL    HW156621   7.833   5.601   5.074 -0.9128  0.3656 -0.6240
18681SOL    HW256622   7.765   5.469   5.100  0.6049 -0.2666  0.2857
18682SOL     OW56623   2.018   1.450   2.658 -0.3271 -0.1875 -0.4756
18682SOL    HW156624   2.038   1.422   2.747  0.8180  0.5634 -0.4715
18682SOL    HW256625   2.101   1.441   2.611 -0.9355 -0.6467 -1.4941
18683SOL     OW56626   8.848   8.976   3.337 -0.2929  0.2786  0.7107
18683SOL    HW156627   8.789   8.934   3.273  1.1983 -1.2081  0.2596
18683SOL    HW256628   8.927   8.995   3.287 -0.4766  2.6268  1.2149
18684SOL     OW56629   2.930   1.517   9.748 -0.3835  0.4579  0.3816
18684SOL    HW156630   3.008   1.568   9.728 -0.1825 -0.5649 -1.6462
18684SOL    HW256631   2.957   1.460   9.820  0.3658  0.9179  0.4778
18685SOL     OW56632   1.261   1.293   2.017 -0.1284 -0.1851 -0.0680
18685SOL    HW156633   1.178   1.303   2.062 -1.0787 -3.2830 -0.9216
18685SOL    HW256634   1.301   1.215   2.055  2.2277  0.9485  0.0005
18686SOL     OW56635   4.311   2.862   1.109 -0.2597 -0.0082 -0.7124
18686SOL    HW156636   4.342   2.946   1.075 -0.7280 -0.0611 -1.2771
18686SOL    HW256637   4.216   2.865   1.099 -0.3896 -0.1442  0.3312
18687SOL     OW56638   4.692   7.942   5.175 -0.3463 -0.3362  0.9456
18687SOL    HW156639   4.726   8.017   5.126 -1.3768 -0.9819 -0.8407
18687SOL    HW256640   4.733   7.950   5.261  1.8381  0.6579 -0.0971
18688SOL     OW56641   5.844   1.760   1.802  0.0286 -0.0197  0.3505
18688SOL    HW156642   5.841   1.785   1.894  0.2097  1.0152  0.0878
18688SOL    HW256643   5.912   1.692   1.798  0.9203  0.8178  0.7848
18689SOL     OW56644   9.307   8.009   9.898  0.0230  0.1805  0.1784
18689SOL    HW156645   9.237   7.983   9.838 -0.8116 -0.0134  1.2127
18689SOL    HW256646   9.339   7.927   9.934  1.2594  0.2175 -0.7785
18690SOL     OW56647   1.955   4.247   2.985  0.5184 -0.7975  0.5362
18690SOL    HW156648   1.977   4.307   3.056  4.0693 -0.0531 -0.9915
18690SOL    HW256649   1.999   4.165   3.007 -1.8056 -1.9947  1.1088
18691SOL     OW56650   0.224   0.064   4.621  0.5554 -0.0933 -0.2249
18691SOL    HW156651   0.222   0.139   4.680 -1.7776 -0.2501  0.0056
18691SOL    HW256652   0.168  -0.002   4.664  2.7131 -2.0992 -0.3043
18692SOL     OW56653   6.496   1.499   2.137  0.1085 -0.7258 -0.1187
18692SOL    HW156654   6.561   1.429   2.135 -0.7829 -1.8174  2.9302
18692SOL    HW256655   6.421   1.463   2.089 -0.1299 -1.6872  0.9292
18693SOL     OW56656   1.614   8.306   9.642  0.0766  0.3616  0.0818
18693SOL    HW156657   1.641   8.353   9.563  1.0069 -0.7100 -0.2505
18693SOL    HW256658   1.519   8.295   9.632  0.1302  0.5559 -0.7014
18694SOL     OW56659   0.857   2.353   1.730  0.0556 -0.4012 -0.4541
18694SOL    HW156660   0.827   2.325   1.643 -0.6671 -0.8450 -0.0746
18694SOL    HW256661   0.926   2.417   1.713 -0.1413 -0.4232 -1.3549
18695SOL     OW56662   4.397   1.735   4.797  0.2614  0.1498 -0.5915
18695SOL    HW156663   4.332   1.755   4.730  1.8025  0.2994 -2.1085
18695SOL    HW256664   4.471   1.699   4.749  1.0543 -0.6576  1.1542
18696SOL     OW56665   3.928   8.670   6.747 -0.5262 -0.3267 -0.2238
18696SOL    HW156666   3.979   8.589   6.755 -1.1925 -0.6310  1.2358
18696SOL    HW256667   3.961   8.726   6.817 -0.8295  0.2492 -0.5380
18697SOL     OW56668   5.528   5.400   5.752 -0.1051 -0.3787  0.4647
18697SOL    HW156669   5.460   5.391   5.685 -0.1216  0.4384  0.3609
18697SOL    HW256670   5.510   5.329   5.814 -0.1447 -1.0955 -0.3388
18698SOL     OW56671   8.326   2.560   0.606  0.1948  0.4453  0.2527
18698SOL    HW156672   8.298   2.540   0.516 -0.0851  2.6746 -0.2148
18698SOL    HW256673   8.384   2.488   0.630  0.1492 -0.2821 -1.6636
18699SOL     OW56674   0.963   6.299   6.866 -0.2509  0.5953  0.2686
18699SOL    HW156675   0.968   6.208   6.897 -0.7662  0.0324 -1.2005
18699SOL    HW256676   1.028   6.305   6.796 -0.8659  1.0769 -0.2771
18700SOL     OW56677   6.216   2.807   4.453 -0.0810 -0.5202 -0.2943
18700SOL    HW156678   6.252   2.749   4.386 -0.1384 -0.3999 -0.4303
18700SOL    HW256679   6.131   2.835   4.417 -0.4296 -1.0052  0.1342
18701SOL     OW56680   7.312   0.456   3.891 -0.5383  0.0920  0.0528
18701SOL    HW156681   7.272   0.369   3.880  0.9383 -0.8749  1.8268
18701SOL    HW256682   7.244   0.509   3.931 -0.5150 -1.1761  1.8809
18702SOL     OW56683   1.635   3.487   1.017  0.2661 -0.4061  0.3732
18702SOL    HW156684   1.727   3.511   1.006 -0.2408  1.3225 -0.4230
18702SOL    HW256685   1.631   3.394   0.993  1.9876 -0.8321  1.5820
18703SOL     OW56686   0.135   4.020   2.155 -0.3140  0.1818  0.1402
18703SOL    HW156687   0.051   4.051   2.121 -1.6368 -2.4059  0.7711
18703SOL    HW256688   0.170   3.965   2.086  0.5140  0.6078  0.2082
18704SOL     OW56689   4.858   0.427   2.428 -0.3031  0.7900  0.4338
18704SOL    HW156690   4.936   0.477   2.454 -0.3603  0.2721  1.6802
18704SOL    HW256691   4.893   0.356   2.374  0.1825  0.2069  1.4798
18705SOL     OW56692   4.717   9.872   8.422  0.0544  0.0393  0.3916
18705SOL    HW156693   4.684   9.907   8.339  0.1629  0.7883  0.6542
18705SOL    HW256694   4.808   9.850   8.405 -0.3915 -1.5528 -0.1922
18706SOL     OW56695   1.352   6.478   6.281  0.0381  0.0909  0.3639
18706SOL    HW156696   1.314   6.564   6.267 -1.2627  0.0748  3.0844
18706SOL    HW256697   1.442   6.485   6.250  0.4712  2.9533  1.9880
18707SOL     OW56698   9.406   6.996   4.962  0.0273  0.5932  0.2290
18707SOL    HW156699   9.342   6.979   5.031  1.1566  2.1808  1.7496
18707SOL    HW256700   9.455   6.915   4.953 -0.8558  0.0163  0.4741
18708SOL     OW56701   1.094   4.178   1.682 -0.0104 -0.5324  0.4593
18708SOL    HW156702   1.090   4.274   1.685  0.2671 -0.5004 -0.0805
18708SOL    HW256703   1.177   4.159   1.637  0.7316 -1.0387  1.9584
18709SOL     OW56704   1.393   9.928   8.807  0.0217 -0.0708 -0.5632
18709SOL    HW156705   1.328   9.950   8.740 -1.3558 -1.0836  0.3915
18709SOL    HW256706   1.398   9.832   8.804 -0.6926 -0.2027  1.2992
18710SOL     OW56707   3.810   3.883   9.450  0.2122  0.1604 -0.5445
18710SOL    HW156708   3.766   3.968   9.453 -1.6007 -0.7417  0.7162
18710SOL    HW256709   3.790   3.848   9.364  0.3349  0.7006 -0.7940
18711SOL     OW56710   1.099   7.668   9.751 -0.6832  0.4979 -0.0357
18711SOL    HW156711   1.075   7.716   9.830 -1.6587  0.0733 -0.0581
18711SOL    HW256712   1.050   7.711   9.681 -1.3527 -0.3296 -0.0975
18712SOL     OW56713   8.079   0.416   0.303  0.1379  0.1797  0.1826
18712SOL    HW156714   8.030   0.486   0.346 -2.3206 -0.6234 -1.1166
18712SOL    HW256715   8.107   0.453   0.220 -0.9587 -0.2626 -0.4022
18713SOL     OW56716   4.727   8.593   5.785 -0.0339  0.0812  0.1809
18713SOL    HW156717   4.733   8.515   5.841  0.0723 -1.1545 -1.4638
18713SOL    HW256718   4.764   8.565   5.702 -1.8744  1.2756 -1.1022
18714SOL     OW56719   1.448   0.139   0.360  0.5994  0.1914 -0.0226
18714SOL    HW156720   1.534   0.182   0.365  1.0010 -0.5811 -0.0943
18714SOL    HW256721   1.432   0.106   0.448  0.3694  0.3398 -0.0078
18715SOL     OW56722   0.296   0.301   6.794  0.6417 -0.0650  1.2234
18715SOL    HW156723   0.253   0.250   6.864 -1.6840  0.8018  0.5375
18715SOL    HW256724   0.223   0.335   6.742  2.2675  0.6955 -0.6610
18716SOL     OW56725   0.575   3.545   0.419 -0.4920 -0.3319 -0.5775
18716SOL    HW156726   0.646   3.494   0.381 -0.9091 -0.5281 -1.0947
18716SOL    HW256727   0.618   3.624   0.454 -0.2049  0.2630 -2.1909
18717SOL     OW56728   1.729   1.557   1.258  0.2666 -0.2974  0.1040
18717SOL    HW156729   1.673   1.541   1.334  0.4443  2.9616  1.0552
18717SOL    HW256730   1.687   1.508   1.187 -2.3335 -0.0533  1.3624
18718SOL     OW56731   7.320   2.116   8.525  0.5398 -0.0755 -0.1741
18718SOL    HW156732   7.412   2.142   8.529  0.9119 -1.3831  0.3433
18718SOL    HW256733   7.311   2.074   8.439  0.2183  0.7595 -0.5541
18719SOL     OW56734   9.819   3.062   4.007  0.3460 -0.3178  0.0834
18719SOL    HW156735   9.911   3.079   3.985  0.1358  1.2673  0.3382
18719SOL    HW256736   9.770   3.092   3.930 -0.0476  0.2727  0.5534
18720SOL     OW56737   5.070   8.443   0.419 -0.2291 -0.5699 -0.2493
18720SOL    HW156738   5.032   8.404   0.341  0.3702 -0.7429 -0.4577
18720SOL    HW256739   5.159   8.469   0.393  0.3787 -1.6512  0.6720
18721SOL     OW56740   0.702   7.151   2.970  0.3342  0.1145 -0.0996
18721SOL    HW156741   0.709   7.242   2.941  0.8751  0.4030  0.8819
18721SOL    HW256742   0.781   7.109   2.938  0.9359  0.4350  0.9254
18722SOL     OW56743   0.033   1.031   0.125 -0.0218 -0.3504 -0.5784
18722SOL    HW156744  -0.053   0.997   0.149  0.4748 -0.8428  0.5761
18722SOL    HW256745   0.041   1.112   0.175  0.3937 -0.5822 -0.2649
18723SOL     OW56746   3.261   6.668   4.558  0.6875  0.5235  0.1068
18723SOL    HW156747   3.281   6.661   4.465  0.4650  0.9497  0.0242
18723SOL    HW256748   3.324   6.610   4.600 -0.1898 -0.8513 -0.4244
18724SOL     OW56749   4.723   1.562   4.235 -0.3305  0.0616  0.2969
18724SOL    HW156750   4.789   1.548   4.167  0.5942  0.7210  1.0306
18724SOL    HW256751   4.646   1.594   4.187  0.2760  0.4444 -0.4508
18725SOL     OW56752   8.358   7.831   2.316  0.0004 -0.5318  0.1342
18725SOL    HW156753   8.338   7.897   2.250 -0.9206  0.2745  1.1805
18725SOL    HW256754   8.324   7.749   2.279 -0.1802 -0.1574 -0.5359
18726SOL     OW56755   4.522   7.902   0.985 -0.0888  0.1455 -0.4352
18726SOL    HW156756   4.558   7.990   0.987  1.7975 -0.5623 -0.7895
18726SOL    HW256757   4.520   7.875   1.077 -0.1082  0.3434 -0.3776
18727SOL     OW56758   3.321   3.379   5.311 -0.1542  0.1724  0.6200
18727SOL    HW156759   3.301   3.299   5.360 -1.0275  0.6454  1.0811
18727SOL    HW256760   3.320   3.352   5.219  1.7774 -0.7865  0.8387
18728SOL     OW56761   2.536   8.732   5.008  0.1644  0.3000 -0.1588
18728SOL    HW156762   2.518   8.696   4.921 -1.3955 -0.0457  0.2796
18728SOL    HW256763   2.461   8.705   5.061  0.3743  1.7510  0.9266
18729SOL     OW56764   7.945   0.686   7.620 -0.2954  0.4779 -0.0805
18729SOL    HW156765   7.911   0.751   7.558 -2.1702 -0.3844 -0.0165
18729SOL    HW256766   7.912   0.602   7.587  1.2385 -0.3552  0.4013
18730SOL     OW56767   3.273   0.960   8.553  0.3276 -0.0783 -0.1442
18730SOL    HW156768   3.301   0.882   8.506 -0.7411 -0.3723 -0.3300
18730SOL    HW256769   3.179   0.947   8.567  0.0252  1.3880 -0.6187
18731SOL     OW56770   2.867   6.909   8.333  0.2575 -0.5236 -0.3074
18731SOL    HW156771   2.935   6.843   8.322  1.6928  0.4695  1.9840
18731SOL    HW256772   2.793   6.862   8.370  0.6591 -1.1521 -0.2899
18732SOL     OW56773   7.538   9.401   8.870  0.2219 -0.0879  0.2794
18732SOL    HW156774   7.588   9.365   8.797  1.7588 -0.9255  1.6848
18732SOL    HW256775   7.453   9.423   8.832  0.9911 -0.4303 -1.7607
18733SOL     OW56776   3.054   3.612   6.013 -1.2091  0.8418 -0.1566
18733SOL    HW156777   2.993   3.552   6.054 -0.9651  0.8479  0.2197
18733SOL    HW256778   3.136   3.563   6.006 -0.7647  1.4088  0.9405
18734SOL     OW56779   0.220   7.803   7.712 -0.4390  0.7416 -0.0321
18734SOL    HW156780   0.137   7.787   7.668 -0.3494 -0.8793  0.3099
18734SOL    HW256781   0.287   7.780   7.647 -0.2422  1.9643 -0.2806
18735SOL     OW56782   8.884   9.780   0.931 -0.1476 -0.2621 -0.4282
18735SOL    HW156783   8.933   9.855   0.967 -0.1363  0.1229 -1.2155
18735SOL    HW256784   8.795   9.793   0.962  0.4422 -1.6879  2.1401
18736SOL     OW56785   0.939   9.495   6.115  0.0241 -0.1887 -0.1275
18736SOL    HW156786   0.912   9.553   6.043 -1.9443  1.0920  1.5071
18736SOL    HW256787   0.942   9.553   6.191 -0.0675 -1.8822  1.2135
18737SOL     OW56788   4.951   4.011   2.026  0.3928 -0.3613  0.5012
18737SOL    HW156789   4.992   4.097   2.018  1.1088 -0.6879  0.6093
18737SOL    HW256790   4.859   4.027   2.006  0.0446  0.8623  2.7604
18738SOL     OW56791   3.264   8.386   4.351 -0.2122  0.1462  0.0134
18738SOL    HW156792   3.208   8.442   4.296 -1.6107 -2.6808 -1.6848
18738SOL    HW256793   3.340   8.368   4.296 -0.1575 -0.2789  0.2300
18739SOL     OW56794   9.615   2.461   2.841  0.3036  0.2826 -0.3464
18739SOL    HW156795   9.551   2.516   2.797  0.3308  0.8784  0.3340
18739SOL    HW256796   9.601   2.478   2.934  0.4311 -0.7367 -0.1260
18740SOL     OW56797   8.072   5.282   7.900  0.4026  0.0247  0.2130
18740SOL    HW156798   8.062   5.187   7.905  0.2878  0.0000 -0.3976
18740SOL    HW256799   7.986   5.316   7.925  0.8671  0.0227  1.9131
18741SOL     OW56800   4.971   6.853   7.922 -0.7852  0.1014 -0.4310
18741SOL    HW156801   4.961   6.758   7.914  0.6921 -0.1936  0.7552
18741SOL    HW256802   5.007   6.880   7.837  0.7271 -0.7257 -0.0803
18742SOL     OW56803   3.864   0.042   0.781  0.0401 -0.2032 -0.0718
18742SOL    HW156804   3.887   0.129   0.751  0.8348  0.0209  1.0968
18742SOL    HW256805   3.844  -0.007   0.702 -0.2083  0.9760 -0.7568
18743SOL     OW56806   7.908   5.698   0.513 -0.2385  0.1391 -0.2511
18743SOL    HW156807   7.953   5.652   0.584 -1.5236  1.0052  1.1782
18743SOL    HW256808   7.947   5.662   0.433  0.0172 -2.1597  0.8314
18744SOL     OW56809   3.393   9.431   7.013 -0.0155 -0.0845 -0.1056
18744SOL    HW156810   3.299   9.413   7.017 -0.2246  1.1335  1.4603
18744SOL    HW256811   3.435   9.346   7.024 -0.9586 -0.3395  1.9746
18745SOL     OW56812   4.252   2.010   1.101 -0.4322  0.1411  0.0090
18745SOL    HW156813   4.304   2.049   1.030 -1.6434 -1.4999 -1.8908
18745SOL    HW256814   4.163   2.005   1.066 -1.6177  1.4391  2.5840
18746SOL     OW56815   1.122   8.744   6.519  0.2990  0.3293 -0.2158
18746SOL    HW156816   1.099   8.803   6.590  2.9235 -0.0398  1.0980
18746SOL    HW256817   1.067   8.770   6.446 -0.9146  2.2164  1.2843
18747SOL     OW56818   9.328   2.846   4.053 -0.1016 -0.7774  0.0523
18747SOL    HW156819   9.394   2.870   4.119 -0.2145 -0.9120  0.2131
18747SOL    HW256820   9.246   2.842   4.102 -0.2262 -0.6267 -0.1469
18748SOL     OW56821   0.220   9.082   1.599  0.5780 -0.0669 -0.5277
18748SOL    HW156822   0.149   9.072   1.536 -0.9360 -0.8428  1.2370
18748SOL    HW256823   0.294   9.036   1.559 -0.0646  0.2266 -2.1240
18749SOL     OW56824   0.298   9.786   6.268 -0.1075 -0.0403 -0.2180
18749SOL    HW156825   0.256   9.817   6.348 -0.6255  1.3171 -0.9875
18749SOL    HW256826   0.230   9.740   6.221  0.3999 -1.5344  0.4503
18750SOL     OW56827   4.570   6.575   2.317  0.0445  0.1474 -0.3314
18750SOL    HW156828   4.583   6.488   2.280  2.0539 -0.1199  0.8331
18750SOL    HW256829   4.476   6.581   2.332 -0.0078 -2.4292  0.9628
18751SOL     OW56830   6.897   5.901   7.718  0.1132 -0.5475 -0.6912
18751SOL    HW156831   6.932   5.986   7.743 -0.0605 -1.2811  2.3991
18751SOL    HW256832   6.807   5.901   7.750 -0.6878 -1.0877 -2.7492
18752SOL     OW56833   8.823   7.431   7.442 -0.5903  0.2954  0.0662
18752SOL    HW156834   8.890   7.499   7.448 -0.9043  0.6876 -0.6956
18752SOL    HW256835   8.741   7.478   7.460 -0.9593  0.4196 -1.7253
18753SOL     OW56836   8.371   2.586   0.917  0.7765  0.4890 -0.4832
18753SOL    HW156837   8.294   2.630   0.879  0.0816  0.8910  1.2906
18753SOL    HW256838   8.422   2.559   0.841 -0.2216  1.7981 -1.6986
18754SOL     OW56839   8.066   5.846   3.331 -0.4962  0.3343 -0.1020
18754SOL    HW156840   8.032   5.928   3.296 -1.6716 -0.3817 -0.7269
18754SOL    HW256841   8.015   5.830   3.410 -1.9513 -0.9298 -1.2373
18755SOL     OW56842   8.358   0.063   1.410 -0.8742  0.0178  0.0564
18755SOL    HW156843   8.384  -0.001   1.477  1.4119 -0.1717 -0.9137
18755SOL    HW256844   8.347   0.011   1.331 -1.3398  0.5229 -0.2089
18756SOL     OW56845   3.024   7.614   0.757 -0.3913 -0.2731  0.4168
18756SOL    HW156846   3.030   7.699   0.713  2.1621 -1.2904 -1.4592
18756SOL    HW256847   3.017   7.636   0.850 -0.4223  1.9801 -0.0560
18757SOL     OW56848   6.502   9.626   8.938  0.0924  0.0458 -0.1800
18757SOL    HW156849   6.420   9.674   8.951  0.8134  1.4514 -0.6241
18757SOL    HW256850   6.554   9.682   8.880  1.7320 -0.3510  0.8289
18758SOL     OW56851   6.847   8.575   4.011 -0.0608 -0.2533  0.7152
18758SOL    HW156852   6.753   8.593   4.009 -0.1853 -0.7644  1.5430
18758SOL    HW256853   6.876   8.591   3.921 -0.9287 -0.0571  0.4552
18759SOL     OW56854   2.559   4.598   5.538  0.3439  0.3062  0.3335
18759SOL    HW156855   2.510   4.554   5.468  0.3502  1.3686 -0.3542
18759SOL    HW256856   2.503   4.591   5.615 -1.0798  1.7685 -0.5102
18760SOL     OW56857   3.995   9.808   1.875 -0.3726  0.0035 -0.1492
18760SOL    HW156858   3.910   9.851   1.887 -0.6881 -0.2091 -1.4844
18760SOL    HW256859   3.981   9.720   1.909 -0.9364 -0.2670 -1.0245
18761SOL     OW56860   3.901   5.256   5.568 -0.1928 -0.4599  0.3820
18761SOL    HW156861   3.861   5.338   5.541  0.7433 -0.1282 -0.0267
18761SOL    HW256862   3.963   5.235   5.499  0.3815 -0.9278  1.0203
18762SOL     OW56863   2.152   7.072   4.547  0.3740  0.1587 -0.3104
18762SOL    HW156864   2.226   7.072   4.485  0.5473  1.1168 -0.1243
18762SOL    HW256865   2.085   7.019   4.504  1.0456 -0.4412 -0.6382
18763SOL     OW56866   5.904   4.679   4.298 -0.2632  0.0189  0.2869
18763SOL    HW156867   5.916   4.592   4.334  1.0302  0.3470  0.6888
18763SOL    HW256868   5.974   4.732   4.337 -0.5335  1.0464 -0.5592
18764SOL     OW56869   9.506   8.044   8.899  0.2431 -0.0735 -0.3651
18764SOL    HW156870   9.544   7.980   8.838  0.1406 -0.8785  0.4056
18764SOL    HW256871   9.564   8.043   8.975  1.4646  2.3208 -1.1520
18765SOL     OW56872   9.622   6.189   3.249  0.3437  0.8156 -0.1295
18765SOL    HW156873   9.675   6.229   3.180  1.2015  0.5786  0.3773
18765SOL    HW256874   9.617   6.097   3.226 -1.7757  1.1719 -1.3874
18766SOL     OW56875   7.563   6.579   9.748 -0.2677  0.1436 -0.3573
18766SOL    HW156876   7.641   6.634   9.753  1.7034 -2.5196  1.0481
18766SOL    HW256877   7.558   6.552   9.657  1.9433 -1.4662 -0.0845
18767SOL     OW56878   1.418   3.019   1.647 -0.1846 -0.2841  0.4947
18767SOL    HW156879   1.367   3.086   1.694  1.6011  1.1337  0.5141
18767SOL    HW256880   1.383   3.020   1.558  0.1944  1.1474  0.3331
18768SOL     OW56881   7.815   1.223   9.527  0.4331  0.5061  0.2074
18768SOL    HW156882   7.726   1.248   9.502  1.0436  1.7132 -0.9130
18768SOL    HW256883   7.851   1.181   9.449  0.6489 -0.5426  0.8604
18769SOL     OW56884   3.442   3.845   4.548  0.1572  0.5587  0.1228
18769SOL    HW156885   3.521   3.864   4.599  0.0937  0.9796  0.0714
18769SOL    HW256886   3.475   3.815   4.463  0.2649  0.5439  0.1692
18770SOL     OW56887   5.994   7.579   7.744  0.3757 -0.0386 -0.0174
18770SOL    HW156888   6.042   7.496   7.743  1.9223  0.7942 -0.8478
18770SOL    HW256889   6.063   7.645   7.753 -0.7212  1.1953 -0.4249
18771SOL     OW56890   0.804   8.750   4.529 -0.3133  0.2794 -0.1530
18771SOL    HW156891   0.783   8.765   4.621 -0.3781  1.0759 -0.2914
18771SOL    HW256892   0.848   8.830   4.501 -1.4386  0.5743 -1.1549
18772SOL     OW56893   4.758   1.413   5.917 -0.2894  0.4750  0.0219
18772SOL    HW156894   4.819   1.370   5.856 -0.3091 -0.1867  0.4544
18772SOL    HW256895   4.760   1.505   5.892 -0.5002  0.1771 -1.1508
18773SOL     OW56896   2.550   3.605   6.249  0.5898  0.1201  0.0711
18773SOL    HW156897   2.576   3.692   6.219 -1.6092  0.1052 -2.1739
18773SOL    HW256898   2.455   3.611   6.262  0.7725 -1.2238  2.7219
18774SOL     OW56899   0.422   5.928   1.555 -0.5476 -0.0274 -0.4372
18774SOL    HW156900   0.390   5.896   1.471  2.0167 -1.4553 -0.9922
18774SOL    HW256901   0.390   5.865   1.619 -0.5367 -0.3023 -0.7004
18775SOL     OW56902   7.144   2.861   0.360 -0.5027 -0.3502 -0.7998
18775SOL    HW156903   7.212   2.823   0.305 -0.0055  0.1716 -0.5553
18775SOL    HW256904   7.092   2.916   0.301 -0.7204 -0.7525 -0.9865
18776SOL     OW56905   2.911   3.672   0.343  0.4696 -0.2874  0.0406
18776SOL    HW156906   2.985   3.730   0.327 -0.4546  0.7386 -0.5963
18776SOL    HW256907   2.836   3.730   0.355 -0.4001 -1.3276 -0.1692
18777SOL     OW56908   6.165   3.990   1.828 -0.6756  0.9934 -0.1043
18777SOL    HW156909   6.219   3.978   1.750 -0.1347 -0.7127  0.5012
18777SOL    HW256910   6.128   3.903   1.846  2.4894  0.1830  3.8729
18778SOL     OW56911   2.747   6.998   7.216 -0.0780  0.3639 -0.4474
18778SOL    HW156912   2.835   7.034   7.201 -0.4536  2.6461  2.0129
18778SOL    HW256913   2.746   6.977   7.309 -1.9725 -0.1679 -0.5530
18779SOL     OW56914   4.794   9.569   3.590  0.4432 -0.7583 -0.3070
18779SOL    HW156915   4.889   9.561   3.602  0.2915 -0.1550  1.5050
18779SOL    HW256916   4.758   9.488   3.624  0.3291 -1.3377 -1.7424
18780SOL     OW56917   3.544   0.091   2.541 -0.5300  0.1057 -0.3931
18780SOL    HW156918   3.637   0.069   2.545 -0.1699  1.4890 -0.7349
18780SOL    HW256919   3.500   0.006   2.544  0.7611 -0.6260 -0.9829
18781SOL     OW56920   5.648   6.392   4.477 -0.1268  0.1874 -0.0068
18781SOL    HW156921   5.741   6.374   4.463  0.2715  2.7298 -1.2026
18781SOL    HW256922   5.614   6.413   4.389 -1.2049  1.7019  0.7218
18782SOL     OW56923   7.625   4.500   5.750  0.0495  0.1638 -0.0669
18782SOL    HW156924   7.634   4.468   5.840  0.2972  0.0085 -0.1448
18782SOL    HW256925   7.587   4.426   5.702 -1.2743  0.6736  0.1716
18783SOL     OW56926   7.171   0.718   6.431  0.1581  0.4661  0.8184
18783SOL    HW156927   7.117   0.655   6.480  1.5110 -0.1196  1.5924
18783SOL    HW256928   7.107   0.770   6.381 -1.0520 -1.0314  0.7244
18784SOL     OW56929   6.859   4.052   3.795 -0.5044  0.1890  0.0645
18784SOL    HW156930   6.898   4.091   3.717 -0.8316  4.2710  1.6805
18784SOL    HW256931   6.918   4.077   3.866 -1.6253 -1.0495  1.5040
18785SOL     OW56932   7.719   4.030   0.272  0.2417 -0.0777  0.3601
18785SOL    HW156933   7.773   3.964   0.317  0.7108  0.4180  0.5360
18785SOL    HW256934   7.708   4.100   0.337  1.4118  0.9132 -0.4492
18786SOL     OW56935   9.640   6.717   6.237  0.3365 -0.1611  0.2987
18786SOL    HW156936   9.625   6.681   6.149  2.3512 -1.1905  0.3262
18786SOL    HW256937   9.584   6.665   6.294 -0.6822  0.2450 -0.3058
18787SOL     OW56938   8.912   0.368   9.319  0.1906  0.1364  0.0929
18787SOL    HW156939   8.950   0.349   9.405 -0.0045 -2.4438 -0.3231
18787SOL    HW256940   8.821   0.342   9.327 -0.1737  1.1603 -0.5293
18788SOL     OW56941   8.697   0.741   8.833  0.0392 -0.3470  0.0686
18788SOL    HW156942   8.784   0.716   8.802  0.2743  0.1055  0.3579
18788SOL    HW256943   8.640   0.671   8.802  0.4109 -0.3514 -0.6181
18789SOL     OW56944   4.847   7.708   4.894  0.5495  0.0716 -0.4618
18789SOL    HW156945   4.757   7.678   4.887  0.6723 -0.7300  1.0637
18789SOL    HW256946   4.896   7.648   4.837  0.0745  0.8706 -1.7541
18790SOL     OW56947   9.611   2.087   7.572 -0.3053  0.4317  0.1577
18790SOL    HW156948   9.622   1.995   7.597  1.4520  0.2116 -1.2170
18790SOL    HW256949   9.697   2.126   7.589 -0.5430  1.4108 -0.8422
18791SOL     OW56950   9.429   8.068   0.502  0.0364 -0.1904 -0.2015
18791SOL    HW156951   9.397   7.991   0.551  1.1285 -0.6302 -0.1515
18791SOL    HW256952   9.524   8.058   0.502  0.2339  1.4590  0.2699
18792SOL     OW56953   0.185   5.242   9.495 -0.3981  0.1643  0.2565
18792SOL    HW156954   0.181   5.162   9.442  1.1242  0.1647  0.0955
18792SOL    HW256955   0.126   5.303   9.451 -0.4120 -0.3695 -0.4864
18793SOL     OW56956   1.223   0.307   6.361  0.7973 -0.4477 -0.5504
18793SOL    HW156957   1.230   0.289   6.267 -0.1858 -2.0390 -0.3481
18793SOL    HW256958   1.182   0.229   6.398  0.1750  0.5823  1.0604
18794SOL     OW56959   7.038   3.509   7.854 -0.6866  0.1587  0.2210
18794SOL    HW156960   7.012   3.487   7.765 -1.9242 -0.1914  0.6488
18794SOL    HW256961   6.958   3.500   7.906  0.2913 -1.0047  1.6203
18795SOL     OW56962   7.223   0.884   3.203  0.4894  0.0076 -0.1044
18795SOL    HW156963   7.260   0.809   3.250  1.9133  0.7544  0.0245
18795SOL    HW256964   7.197   0.945   3.272 -0.9051 -0.4473 -0.2005
18796SOL     OW56965   9.569   8.735   0.319 -0.3928  0.3310 -0.3654
18796SOL    HW156966   9.602   8.705   0.234  1.4709  0.2347  0.3509
18796SOL    HW256967   9.482   8.696   0.326  0.6650 -2.3072 -0.8608
18797SOL     OW56968   4.096   5.054   5.017  0.8399 -0.2586  0.1263
18797SOL    HW156969   4.058   4.969   5.042 -1.1049  0.3958 -0.3970
18797SOL    HW256970   4.054   5.075   4.934  2.1463  0.7174 -0.3143
18798SOL     OW56971   8.535   4.461   3.552 -0.0334  0.4562 -0.3964
18798SOL    HW156972   8.478   4.493   3.622 -0.3074 -1.5286  0.3445
18798SOL    HW256973   8.481   4.399   3.504  1.2895 -1.0299 -0.0376
18799SOL     OW56974   1.034   6.043   6.915  0.0759  0.4913 -0.4440
18799SOL    HW156975   1.028   5.958   6.957  0.1365  0.5593 -0.2994
18799SOL    HW256976   1.114   6.082   6.950 -0.9624  1.4203  0.9908
18800SOL     OW56977   0.076   9.533   1.645  0.2727  0.1441 -0.2316
18800SOL    HW156978   0.058   9.506   1.555  1.2243 -0.7474 -0.1779
18800SOL    HW256979   0.001   9.499   1.695 -0.2814  0.6829 -0.6878
18801SOL     OW56980   1.250   2.382   5.127  0.1372  0.0402 -0.2130
18801SOL    HW156981   1.216   2.304   5.171 -2.4828  1.4116  0.4017
18801SOL    HW256982   1.281   2.438   5.198  0.1678  0.3803 -0.4921
18802SOL     OW56983   8.606   4.973   0.630 -0.8732 -0.4671 -0.5097
18802SOL    HW156984   8.634   4.997   0.541  1.8902 -2.2531 -0.2397
18802SOL    HW256985   8.648   5.038   0.686  1.2767 -1.9696 -0.2576
18803SOL     OW56986   9.608   4.268   1.961 -0.0231  0.1333 -0.4159
18803SOL    HW156987   9.661   4.324   2.016  2.2914 -1.7744 -0.5478
18803SOL    HW256988   9.542   4.230   2.020  1.9064 -1.2601  0.9748
18804SOL     OW56989   6.350   4.001   4.001  0.0863  1.1427 -0.4629
18804SOL    HW156990   6.305   4.072   3.955  0.2499  1.3614 -0.2818
18804SOL    HW256991   6.288   3.928   3.996 -0.1959  1.3746 -0.4112
18805SOL     OW56992   8.398   9.359   1.299  0.2029 -0.9925  0.7290
18805SOL    HW156993   8.488   9.390   1.288 -0.4896  0.9915  0.1813
18805SOL    HW256994   8.358   9.373   1.213 -0.8315 -1.1796  1.1723
18806SOL     OW56995   1.592   7.807   3.944  0.4961 -0.1848  0.0405
18806SOL    HW156996   1.589   7.843   3.856  0.0376 -1.4053 -0.4690
18806SOL    HW256997   1.669   7.750   3.944  0.5938 -0.0622  0.4915
18807SOL     OW56998   4.547   3.592   6.447  0.3398  0.0273  0.8327
18807SOL    HW156999   4.632   3.619   6.415  0.1341  0.0251  0.2803
18807SOL    HW257000   4.541   3.630   6.535  1.2298 -0.6299  1.1993
18808SOL     OW57001   8.568   9.592   0.224  0.3324  0.2633  0.1300
18808SOL    HW157002   8.654   9.558   0.249  1.0193  0.6628 -1.4916
18808SOL    HW257003   8.536   9.530   0.159 -1.0127 -0.3205  1.3021
18809SOL     OW57004   3.731   2.122   4.057 -0.3254  0.3594 -0.1405
18809SOL    HW157005   3.765   2.210   4.037  0.3354  0.5092  1.4873
18809SOL    HW257006   3.808   2.066   4.058 -0.1587  0.4976  2.5214
18810SOL     OW57007   0.973   7.789   8.339 -0.1956  0.0043 -0.4035
18810SOL    HW157008   0.898   7.815   8.286 -1.2575 -1.2059  0.4376
18810SOL    HW257009   1.041   7.765   8.276 -0.3137  1.5668 -1.1799
18811SOL     OW57010   4.242   1.936   3.970 -0.1977  0.0388  0.1833
18811SOL    HW157011   4.216   1.881   3.896 -2.5717 -0.1329  1.0610
18811SOL    HW257012   4.273   2.017   3.930  0.4362 -0.7617 -1.0288
18812SOL     OW57013   6.075   2.976   3.455  0.3948 -0.6354 -0.0972
18812SOL    HW157014   6.131   2.949   3.382  0.5089  0.2490 -0.3534
18812SOL    HW257015   6.070   3.071   3.447 -0.5388 -0.6356  0.3722
18813SOL     OW57016   5.052   8.138   7.693  0.3043 -0.1213 -0.0156
18813SOL    HW157017   5.045   8.102   7.605 -1.4809 -0.6739  0.3122
18813SOL    HW257018   4.963   8.167   7.714  0.2974 -1.5495  2.2439
18814SOL     OW57019   0.590   2.673   4.169 -0.6695 -0.8133 -0.4291
18814SOL    HW157020   0.657   2.605   4.178 -0.8701 -0.7891  1.5967
18814SOL    HW257021   0.538   2.667   4.249 -1.2406  1.1470 -0.5973
18815SOL     OW57022   0.278   0.816   0.656  0.8120 -0.1517 -0.2900
18815SOL    HW157023   0.334   0.843   0.730  0.4074  0.3302 -0.1526
18815SOL    HW257024   0.211   0.760   0.696 -1.2972  2.5548  0.3166
18816SOL     OW57025   2.241   2.478   7.646  0.6899 -0.4292 -0.1332
18816SOL    HW157026   2.164   2.495   7.700 -0.2399 -0.1203 -1.5024
18816SOL    HW257027   2.205   2.456   7.560  2.1514  0.3841 -0.9820
18817SOL     OW57028   9.614   8.999   5.149 -0.3321 -0.0186 -0.2273
18817SOL    HW157029   9.653   8.932   5.205  0.4678  0.7388  0.1370
18817SOL    HW257030   9.546   8.952   5.100 -1.0100 -0.7192  1.3065
18818SOL     OW57031   3.852   5.143   9.957  0.4434  0.0252 -0.0606
18818SOL    HW157032   3.920   5.208   9.939  1.0742 -0.0640  1.7635
18818SOL    HW257033   3.794   5.147   9.881  1.6622  1.1664 -0.9767
18819SOL     OW57034   7.630   9.230   0.855  0.2469  0.2206  0.6443
18819SOL    HW157035   7.583   9.288   0.915  0.0916  0.2484  0.4945
18819SOL    HW257036   7.705   9.199   0.906  0.6557  1.0177  0.5365
18820SOL     OW57037   9.554   2.045   3.391 -0.3289 -0.1898  0.1487
18820SOL    HW157038   9.594   2.088   3.467 -1.6916  0.9128  0.2830
18820SOL    HW257039   9.531   1.958   3.423 -0.3186  0.0458  0.8157
18821SOL     OW57040   4.723   3.153   8.549 -0.0822  0.6483 -0.1163
18821SOL    HW157041   4.769   3.123   8.471  1.1663  2.9269 -0.3524
18821SOL    HW257042   4.791   3.187   8.606 -1.2346  1.8393  0.6215
18822SOL     OW57043   8.861   5.759   6.536 -0.1004 -0.1032  0.0241
18822SOL    HW157044   8.927   5.716   6.481  0.1803  0.5158 -0.1459
18822SOL    HW257045   8.863   5.711   6.619  2.5711  1.5358  1.0461
18823SOL     OW57046   8.167   5.372   1.290  0.4515 -0.1294 -0.2262
18823SOL    HW157047   8.137   5.321   1.365 -0.9093  2.2545  0.9730
18823SOL    HW257048   8.112   5.344   1.217  0.9470 -1.5876 -0.0702
18824SOL     OW57049   0.218   2.045   0.017  0.3665 -0.5349  0.7370
18824SOL    HW157050   0.299   2.025   0.064  1.5204  1.4550 -0.3046
18824SOL    HW257051   0.202   1.968  -0.037  0.9664 -1.3749  1.7127
18825SOL     OW57052   7.707   9.321   8.660 -0.1556  0.3510  0.7051
18825SOL    HW157053   7.758   9.242   8.642 -1.0844 -0.8173  2.9073
18825SOL    HW257054   7.636   9.319   8.595  0.7991  0.3717 -0.3866
18826SOL     OW57055   0.286   1.895   8.120 -0.3257 -0.1900  0.2298
18826SOL    HW157056   0.295   1.986   8.091  0.1353 -0.0771  0.7066
18826SOL    HW257057   0.338   1.890   8.200 -0.5220 -0.8229  0.3260
18827SOL     OW57058   5.851   8.755   7.028 -0.1717  0.2462  0.6795
18827SOL    HW157059   5.790   8.827   7.011  1.4150  1.8839  1.5833
18827SOL    HW257060   5.900   8.745   6.946  0.7218  1.3839  1.0372
18828SOL     OW57061   7.952   0.738   6.378 -0.0664 -0.1069  0.1360
18828SOL    HW157062   7.857   0.750   6.386 -0.2995 -1.5314 -0.2196
18828SOL    HW257063   7.964   0.703   6.290  0.8717  0.7182 -0.0764
18829SOL     OW57064   8.524   7.329   6.598 -0.0172  0.5731 -0.3776
18829SOL    HW157065   8.555   7.244   6.566  0.8914  1.0311 -0.7241
18829SOL    HW257066   8.518   7.318   6.693 -2.1992 -0.6186 -0.5837
18830SOL     OW57067   3.549   6.504   3.551 -0.1756 -0.0587 -0.1328
18830SOL    HW157068   3.547   6.515   3.646 -0.3466 -1.1355  0.0012
18830SOL    HW257069   3.618   6.564   3.521 -1.2182  1.5154  0.4723
18831SOL     OW57070   1.695   6.621   0.249  0.4468  0.6504 -0.2596
18831SOL    HW157071   1.710   6.699   0.197 -1.0455 -0.9268 -3.3198
18831SOL    HW257072   1.770   6.565   0.231  0.6435  0.6550  0.5051
18832SOL     OW57073   3.010   0.708   5.360  1.3176  0.4517 -0.2776
18832SOL    HW157074   2.958   0.779   5.399  0.0885 -1.1977  1.2407
18832SOL    HW257075   2.946   0.646   5.328  2.3754 -0.3083 -0.9728
18833SOL     OW57076   7.577   6.879   5.010  0.0040 -0.0433 -0.0293
18833SOL    HW157077   7.597   6.959   5.059  2.0786  0.7236 -1.9389
18833SOL    HW257078   7.654   6.824   5.022  0.3894 -0.0058 -1.9843
18834SOL     OW57079   1.480   6.969   9.660  0.0031  0.2672  0.6350
18834SOL    HW157080   1.420   6.998   9.591 -0.5293 -1.4628  0.3122
18834SOL    HW257081   1.550   6.923   9.613  0.8746  1.0803  1.1061
18835SOL     OW57082   0.127   6.926   1.075  0.1501 -0.0617  0.2548
18835SOL    HW157083   0.126   7.021   1.084 -0.4185 -0.0904  0.5654
18835SOL    HW257084   0.204   6.898   1.125  0.6410  0.2737 -0.3038
18836SOL     OW57085   2.967   4.201   5.118 -0.8548  0.2883  0.2289
18836SOL    HW157086   2.907   4.250   5.061 -0.0982  1.4931  0.4333
18836SOL    HW257087   3.033   4.265   5.144  0.4838 -0.9771  0.0849
18837SOL     OW57088   7.796   4.852   0.815 -0.0471  0.5556 -0.3353
18837SOL    HW157089   7.817   4.862   0.908 -1.8567 -0.7458  0.2651
18837SOL    HW257090   7.874   4.883   0.769  0.9151  1.1404  1.6149
18838SOL     OW57091   1.594   1.652   3.883  0.7482 -0.3757  0.3928
18838SOL    HW157092   1.538   1.709   3.935  2.6105 -0.9820  3.3266
18838SOL    HW257093   1.650   1.712   3.833  0.3350  0.3006  0.7392
18839SOL     OW57094   8.379   4.395   1.667 -0.0514 -0.1501  0.0664
18839SOL    HW157095   8.445   4.327   1.669  1.2621  1.0864  0.3525
18839SOL    HW257096   8.378   4.425   1.576  0.2989  0.3024  0.2071
18840SOL     OW57097   7.944   8.452   2.715 -0.2998 -0.4806  0.1510
18840SOL    HW157098   7.857   8.438   2.677 -0.7675 -1.3922  1.4762
18840SOL    HW257099   7.980   8.364   2.726  0.7945 -0.1130 -0.3612
18841SOL     OW57100   0.101   6.471   2.659 -0.1746  0.2901 -0.0912
18841SOL    HW157101   0.060   6.428   2.584 -0.4574  0.1009  0.1658
18841SOL    HW257102   0.150   6.544   2.622  1.5137 -1.0815 -0.7196
18842SOL     OW57103   6.861   0.656   4.044 -0.9610  0.3092  0.2128
18842SOL    HW157104   6.952   0.681   4.030  0.1589 -3.5554 -0.5027
18842SOL    HW257105   6.826   0.641   3.956 -2.4901  2.1067  0.4528
18843SOL     OW57106   4.456   6.201   5.034  0.5417 -0.2241 -0.5539
18843SOL    HW157107   4.379   6.229   4.984  1.5640  0.4056 -1.8119
18843SOL    HW257108   4.530   6.245   4.993  1.5583 -0.5147  0.8709
18844SOL     OW57109   5.929   5.053   4.399  0.7570  0.2742 -0.0428
18844SOL    HW157110   5.915   5.032   4.491 -1.2754  0.9100 -0.1553
18844SOL    HW257111   5.842   5.045   4.359  0.9558  2.9796 -1.2524
18845SOL     OW57112   2.194   0.700   8.425  0.4627 -0.0755 -0.1311
18845SOL    HW157113   2.152   0.646   8.359 -1.7219  0.1351  0.9892
18845SOL    HW257114   2.144   0.685   8.505  1.4055  1.6238  0.8593
18846SOL     OW57115   7.309   8.802   3.409 -0.0561  0.4539  0.2138
18846SOL    HW157116   7.312   8.710   3.434  1.1800  0.0524 -1.2539
18846SOL    HW257117   7.285   8.800   3.316  1.3272  1.5311 -0.1866
18847SOL     OW57118   1.869   9.385   5.051  0.0800  0.0157  0.0878
18847SOL    HW157119   1.900   9.472   5.073  0.3943  0.0286 -0.3903
18847SOL    HW257120   1.884   9.377   4.957 -1.0356 -0.1145 -0.0951
18848SOL     OW57121   8.962   3.844   8.576 -0.3773 -0.0609  0.4916
18848SOL    HW157122   9.000   3.757   8.590 -0.9356 -0.3472  0.2572
18848SOL    HW257123   8.936   3.844   8.484 -2.7474 -0.6125  1.0986
18849SOL     OW57124   5.474   4.329   5.730 -0.1497  0.5330  0.1190
18849SOL    HW157125   5.396   4.340   5.676  0.5470 -0.1669 -1.0865
18849SOL    HW257126   5.542   4.300   5.669  0.8819  0.4548  1.2484
18850SOL     OW57127   0.301   5.086   6.357  0.3014 -0.3320  0.1668
18850SOL    HW157128   0.247   5.034   6.297 -0.5019 -0.8913  1.3428
18850SOL    HW257129   0.375   5.030   6.379  0.5795 -0.1384 -0.2577
18851SOL     OW57130   1.028   3.756   5.832  0.4619 -0.3132  0.4418
18851SOL    HW157131   0.934   3.741   5.846  0.4870 -0.0127  0.9364
18851SOL    HW257132   1.072   3.696   5.892  0.5608  1.8079  2.6181
18852SOL     OW57133   3.521   7.005   9.724  0.0278  0.5290  0.0681
18852SOL    HW157134   3.518   7.085   9.776  2.6430 -0.0447  1.2446
18852SOL    HW257135   3.438   6.960   9.743  0.3514  0.9392  2.7826
18853SOL     OW57136   9.225   0.746   4.784  0.0667 -0.1721 -0.0266
18853SOL    HW157137   9.222   0.816   4.719  0.5985  0.1772  0.3153
18853SOL    HW257138   9.134   0.731   4.808 -0.1031 -0.0538 -0.5888
18854SOL     OW57139   6.895   2.440   2.573 -0.4511  0.0524 -0.8090
18854SOL    HW157140   6.939   2.379   2.513 -1.1459 -1.8922  0.5438
18854SOL    HW257141   6.824   2.478   2.521 -0.6696 -1.1332 -1.4085
18855SOL     OW57142   7.109   0.870   2.041 -0.3927  0.4331 -0.1859
18855SOL    HW157143   7.117   0.789   1.991  0.1906 -0.3472  1.1063
18855SOL    HW257144   7.015   0.883   2.051 -0.5964 -1.8640  2.2155
18856SOL     OW57145   4.568   8.798   0.918  0.0995  0.5890  0.1741
18856SOL    HW157146   4.578   8.764   0.829  1.3054  0.5869  0.2896
18856SOL    HW257147   4.476   8.822   0.925 -0.5255 -1.4755 -0.3309
18857SOL     OW57148   2.070   9.901   3.604  0.0503 -0.1475 -0.2585
18857SOL    HW157149   2.089   9.898   3.510  1.0711 -1.6398 -0.0280
18857SOL    HW257150   2.155   9.896   3.647 -0.5032 -1.3693  0.7572
18858SOL     OW57151   5.022   3.830   8.094  0.4075  0.5799 -0.1177
18858SOL    HW157152   4.956   3.882   8.049  1.0453  0.7327 -0.8940
18858SOL    HW257153   5.032   3.752   8.039  2.4164  1.5398 -1.1909
18859SOL     OW57154   5.028   0.520   1.315 -0.2971 -0.4416  0.9959
18859SOL    HW157155   5.054   0.452   1.377 -0.6864 -0.9927  0.5696
18859SOL    HW257156   5.037   0.478   1.229 -0.9861 -0.1028  0.7538
18860SOL     OW57157   0.920   1.359   7.138 -0.1555 -0.3188 -0.0018
18860SOL    HW157158   0.903   1.357   7.044  0.8208  0.2410 -0.1906
18860SOL    HW257159   0.956   1.446   7.155 -1.0919 -0.1129  1.0329
18861SOL     OW57160   9.964   4.782   3.880 -0.1002 -0.0965 -0.4961
18861SOL    HW157161   9.937   4.822   3.798 -0.5162 -1.3079 -0.9650
18861SOL    HW257162  10.041   4.730   3.857  1.7808  2.0500  0.5111
18862SOL     OW57163   8.565   7.258   3.051 -0.0968 -0.8803  0.3531
18862SOL    HW157164   8.479   7.222   3.030 -0.4283  0.4721 -0.7993
18862SOL    HW257165   8.610   7.188   3.098 -1.8115 -1.6250  0.9675
18863SOL     OW57166   9.050   3.874   8.885  0.4419 -0.0772  0.8605
18863SOL    HW157167   9.014   3.829   8.808  0.0273  1.9859 -0.2085
18863SOL    HW257168   9.140   3.895   8.861 -0.3115  2.5119 -0.0459
18864SOL     OW57169   0.295   3.299   3.734 -0.3487  0.6107  0.0764
18864SOL    HW157170   0.307   3.211   3.770  0.5064  0.2561 -1.0081
18864SOL    HW257171   0.298   3.356   3.810 -1.5045 -0.3386  0.8651
18865SOL     OW57172   5.848   3.633   7.493  0.6420  0.3072 -0.2115
18865SOL    HW157173   5.784   3.684   7.542  1.3222 -0.1098  1.1682
18865SOL    HW257174   5.805   3.612   7.411 -0.7152  0.6454  0.3915
18866SOL     OW57175   7.641   1.736   8.730  0.1275  0.5198  0.1938
18866SOL    HW157176   7.555   1.751   8.770 -0.6387  1.3745 -1.6373
18866SOL    HW257177   7.621   1.719   8.637  1.9863  1.6895 -0.4667
18867SOL     OW57178   7.162   8.946   4.695  0.1174 -0.6987 -0.2435
18867SOL    HW157179   7.102   8.955   4.621 -0.4556 -1.5840  0.0964
18867SOL    HW257180   7.231   8.886   4.664  1.5893  1.3245 -1.0755
18868SOL     OW57181   9.451   6.036   4.405 -0.4021  0.1498 -0.1942
18868SOL    HW157182   9.510   5.990   4.465 -1.1022 -1.8488 -0.9584
18868SOL    HW257183   9.371   6.050   4.456 -0.1147  0.7406  0.1048
18869SOL     OW57184   0.823   2.894   9.077 -0.0485 -0.0801  0.2014
18869SOL    HW157185   0.898   2.837   9.087 -0.4335 -0.4527  1.0018
18869SOL    HW257186   0.813   2.937   9.161 -1.9374 -1.5420  0.8001
18870SOL     OW57187   7.158   5.994   4.227  0.2261 -0.1185  0.5714
18870SOL    HW157188   7.150   6.089   4.240 -1.9185 -0.3419  1.4320
18870SOL    HW257189   7.134   5.957   4.312 -0.9751 -1.4497 -0.2989
18871SOL     OW57190   2.328   7.222   3.901  0.1673 -0.1216  0.2161
18871SOL    HW157191   2.329   7.154   3.833 -1.1542 -0.9003  0.9382
18871SOL    HW257192   2.421   7.239   3.918  0.5238 -0.4972 -1.1915
18872SOL     OW57193   0.050   4.118   6.269  0.3152 -0.5066 -0.1596
18872SOL    HW157194   0.035   4.095   6.177  0.0164  0.9339 -0.4859
18872SOL    HW257195   0.138   4.156   6.270  0.8538 -1.7194  0.3984
18873SOL     OW57196   9.107   5.875   9.829 -0.0881  0.0833  0.1431
18873SOL    HW157197   9.033   5.934   9.843  0.0023  0.0958  0.5872
18873SOL    HW257198   9.178   5.913   9.880  0.1015 -0.1666  0.0667
18874SOL     OW57199   8.607   9.581   5.407 -0.3227 -0.0727  0.0346
18874SOL    HW157200   8.629   9.495   5.444  1.1027  0.4031  0.3392
18874SOL    HW257201   8.687   9.632   5.414 -0.7665  0.8835 -1.3608
18875SOL     OW57202   3.148   0.622   8.227 -0.3741 -0.0796  0.1384
18875SOL    HW157203   3.059   0.652   8.248 -0.3383  0.7302 -0.7851
18875SOL    HW257204   3.201   0.651   8.300 -0.6970  0.3695  0.1985
18876SOL     OW57205   9.531   5.085   9.113  0.6148  0.2106  0.2069
18876SOL    HW157206   9.443   5.121   9.106  0.1317 -0.9104  0.2928
18876SOL    HW257207   9.584   5.157   9.146 -0.3619  0.7811  0.5662
18877SOL     OW57208   9.742   6.161   2.213 -0.0979  0.5100 -0.1346
18877SOL    HW157209   9.746   6.246   2.167 -0.8975  0.6406  0.0130
18877SOL    HW257210   9.785   6.177   2.297  0.0368  0.6892 -0.2375
18878SOL     OW57211   1.936   8.211   2.544  0.0686 -0.1936  0.3698
18878SOL    HW157212   1.953   8.120   2.566 -0.4732 -0.0087  1.6192
18878SOL    HW257213   1.932   8.256   2.628 -3.5454  0.3016  0.1001
18879SOL     OW57214   4.704   2.686   2.918 -0.1247  0.1383  0.1313
18879SOL    HW157215   4.619   2.712   2.954 -1.3533 -0.2066 -2.2950
18879SOL    HW257216   4.692   2.690   2.824  3.0155  1.3826 -0.3209
18880SOL     OW57217   5.469   4.792   8.241 -0.6187  0.1461 -0.7391
18880SOL    HW157218   5.512   4.874   8.261 -1.4869  0.7884 -1.4188
18880SOL    HW257219   5.418   4.771   8.320  0.1139 -0.0891 -0.3236
18881SOL     OW57220   0.503   8.458   4.427  0.2857  0.2370  0.1259
18881SOL    HW157221   0.526   8.542   4.386 -2.0250  0.5567 -0.6890
18881SOL    HW257222   0.518   8.472   4.521 -0.9208  1.9469  0.1205
18882SOL     OW57223   1.146   5.731   4.721 -0.2775 -0.4321  0.1180
18882SOL    HW157224   1.205   5.785   4.668 -0.3163 -0.7896 -0.2830
18882SOL    HW257225   1.204   5.672   4.769 -0.2975 -0.6373 -0.1130
18883SOL     OW57226   0.884   6.392   1.056 -0.0832  0.1804  0.1380
18883SOL    HW157227   0.886   6.299   1.032 -0.8665  0.4115 -0.8779
18883SOL    HW257228   0.974   6.412   1.082  0.3088 -0.6436 -0.5351
18884SOL     OW57229   1.317   3.847  -0.023 -0.5333 -0.3913  0.0395
18884SOL    HW157230   1.266   3.880   0.051  0.1095  2.0609 -0.5081
18884SOL    HW257231   1.390   3.800   0.017  0.5233  2.0004  1.1049
18885SOL     OW57232   7.714   0.883   3.100 -0.7135 -0.2421  0.1818
18885SOL    HW157233   7.741   0.973   3.081 -2.7159  0.3379 -0.2138
18885SOL    HW257234   7.618   0.887   3.102 -0.9154 -2.5617 -0.8694
18886SOL     OW57235   3.044   7.476   2.746  0.3982 -0.1431  0.6069
18886SOL    HW157236   3.060   7.485   2.840 -0.8004  0.4794  0.7622
18886SOL    HW257237   3.059   7.564   2.710 -1.0206  0.0802  0.5190
18887SOL     OW57238   2.616   4.687   6.946  0.0711  0.1568  0.2245
18887SOL    HW157239   2.555   4.750   6.984 -1.3016 -0.6970 -0.4867
18887SOL    HW257240   2.622   4.617   7.011 -0.8925 -0.4566 -0.3157
18888SOL     OW57241   5.597   7.649   9.040 -0.5192 -0.1017  0.0758
18888SOL    HW157242   5.557   7.650   9.126 -1.4339  0.5466 -0.3412
18888SOL    HW257243   5.680   7.695   9.051 -0.5631 -0.1545  0.6316
18889SOL     OW57244   2.259   0.443   8.179  0.2197  0.8706 -0.0620
18889SOL    HW157245   2.200   0.503   8.223 -1.3964 -1.4854  1.2342
18889SOL    HW257246   2.207   0.405   8.108 -0.0015 -1.3179  1.1631
18890SOL     OW57247   8.872   5.415   7.827 -0.0748 -0.6483 -0.1372
18890SOL    HW157248   8.875   5.511   7.827  0.8232 -0.6644 -0.2352
18890SOL    HW257249   8.878   5.391   7.734  1.0893 -0.8114 -0.0380
18891SOL     OW57250   1.346   9.225   8.982 -0.4239  0.3869 -0.2301
18891SOL    HW157251   1.398   9.174   8.921 -1.1196  0.9472 -1.3338
18891SOL    HW257252   1.408   9.285   9.023  0.2979 -0.9365  0.6790
18892SOL     OW57253   8.508   9.029   4.401 -0.2857 -0.3060 -0.0304
18892SOL    HW157254   8.583   8.992   4.353 -0.4626 -0.2175 -0.3813
18892SOL    HW257255   8.461   8.953   4.435 -0.7248 -0.4209 -0.8659
18893SOL     OW57256   7.816   2.705   7.801  0.9142 -0.1858  0.4781
18893SOL    HW157257   7.770   2.734   7.880 -0.5860  1.4128 -0.8909
18893SOL    HW257258   7.878   2.775   7.783  0.6401 -0.1228 -0.2249
18894SOL     OW57259   6.861   7.661   1.460 -0.1718 -0.3254 -0.7357
18894SOL    HW157260   6.935   7.646   1.402  1.0533  0.2078  0.6325
18894SOL    HW257261   6.888   7.622   1.543 -0.9364  0.8952  0.1134
18895SOL     OW57262   5.383   2.906   8.830 -0.0985 -0.3715  0.1264
18895SOL    HW157263   5.298   2.886   8.868 -0.0411 -0.7128  0.0803
18895SOL    HW257264   5.423   2.968   8.891 -0.1210 -0.7026  0.4799
18896SOL     OW57265   1.441   6.410   4.949  0.0892  0.1026  0.1162
18896SOL    HW157266   1.394   6.488   4.921  0.8432  0.4899 -0.0834
18896SOL    HW257267   1.409   6.341   4.891 -0.1207  0.3930 -0.1180
18897SOL     OW57268   8.400   8.853   3.058  0.5357 -0.4363 -0.2239
18897SOL    HW157269   8.446   8.892   2.984  2.1968 -2.0453 -0.1062
18897SOL    HW257270   8.377   8.765   3.029  2.8248 -1.7875  1.6543
18898SOL     OW57271   1.630   4.294   0.160  0.4570  0.3320  0.0177
18898SOL    HW157272   1.547   4.292   0.208 -0.2214 -3.0032 -1.0484
18898SOL    HW257273   1.609   4.336   0.077 -0.2175 -0.5163 -0.2558
18899SOL     OW57274   3.248   9.527   3.376  0.1269 -0.2514  0.1019
18899SOL    HW157275   3.271   9.535   3.468  3.2554 -0.5402 -0.5495
18899SOL    HW257276   3.256   9.434   3.356 -0.2514 -0.1591 -0.5218
18900SOL     OW57277   1.122   5.174   9.945 -0.0106  0.3885  0.1715
18900SOL    HW157278   1.070   5.240   9.899  0.0372  0.6094  0.4335
18900SOL    HW257279   1.064   5.141  10.013 -0.1784 -0.1395 -0.2149
18901SOL     OW57280   8.425   2.681   8.529  0.5433 -0.6212 -0.4097
18901SOL    HW157281   8.373   2.685   8.610  0.9656  0.2053 -0.1652
18901SOL    HW257282   8.360   2.680   8.459  0.1799  0.0937 -0.0981
18902SOL     OW57283   5.094   5.160   8.308  0.4349  0.4167  0.6433
18902SOL    HW157284   5.063   5.250   8.304  1.5446  0.8260  0.9465
18902SOL    HW257285   5.147   5.149   8.228 -1.6324 -0.7451 -0.6618
18903SOL     OW57286   3.485   6.690   6.883  0.3019 -0.3630  0.4318
18903SOL    HW157287   3.565   6.655   6.844  0.3446 -0.6498  0.7648
18903SOL    HW257288   3.472   6.775   6.842  2.2096  0.8804  2.2278
18904SOL     OW57289   1.298   1.768   0.677 -0.2925 -0.3263 -0.4276
18904SOL    HW157290   1.204   1.753   0.668 -0.4114 -0.0683  0.2790
18904SOL    HW257291   1.305   1.863   0.687  0.0774 -0.3092 -0.8501
18905SOL     OW57292   1.228   9.315   1.154  0.7239 -0.0409  0.2102
18905SOL    HW157293   1.256   9.268   1.233  0.1353 -2.8576 -1.1495
18905SOL    HW257294   1.139   9.345   1.173  1.2939  1.0660  1.2791
18906SOL     OW57295   5.738   0.875   7.482  0.0602  0.3094  0.1962
18906SOL    HW157296   5.760   0.865   7.575  0.1001  0.0134  0.1563
18906SOL    HW257297   5.805   0.824   7.437 -0.0966  0.2615  0.0176
18907SOL     OW57298   8.951   5.093   6.433 -0.0994  0.2461 -0.1513
18907SOL    HW157299   9.033   5.043   6.428 -0.3261 -0.1708  0.2244
18907SOL    HW257300   8.949   5.128   6.522 -0.6874 -0.3835  0.0961
18908SOL     OW57301   8.154   3.996   1.764 -0.0557  0.1816 -0.0662
18908SOL    HW157302   8.108   3.915   1.783 -2.0537  0.7692 -1.9491
18908SOL    HW257303   8.197   3.981   1.680  1.3520  0.4198  0.5752
18909SOL     OW57304   2.653   4.629   7.594  0.5463 -0.3734 -0.0894
18909SOL    HW157305   2.689   4.673   7.671 -0.5972 -0.8189  0.7253
18909SOL    HW257306   2.695   4.543   7.594 -0.0587 -0.6788  0.5258
18910SOL     OW57307   7.260   1.653   2.347  0.0364  0.3028  0.1047
18910SOL    HW157308   7.217   1.675   2.264  0.7006  0.4185 -0.2181
18910SOL    HW257309   7.192   1.610   2.399 -0.5706  0.8237 -0.2446
18911SOL     OW57310   0.967   6.701   0.331  0.4354 -0.0061  0.3094
18911SOL    HW157311   1.039   6.668   0.385 -0.5568 -0.1713  1.5836
18911SOL    HW257312   0.908   6.744   0.394  0.7885  2.6761 -1.0326
18912SOL     OW57313   3.961   5.181   8.573  0.0110 -0.1903 -0.3896
18912SOL    HW157314   3.989   5.169   8.664 -0.1279  0.4534 -0.2570
18912SOL    HW257315   4.042   5.173   8.522  0.4186  1.3322 -0.0384
18913SOL     OW57316   7.607   2.825   5.743  0.3533 -0.0809 -0.3686
18913SOL    HW157317   7.596   2.907   5.694  0.9279 -0.7363 -1.6358
18913SOL    HW257318   7.630   2.853   5.831  1.5868  1.1206 -1.0351
18914SOL     OW57319   8.918   6.312   2.846  0.0841 -0.1077  0.1239
18914SOL    HW157320   8.868   6.302   2.928  1.1746 -0.2436  0.7976
18914SOL    HW257321   8.860   6.362   2.789 -0.8258 -0.2649  0.8775
18915SOL     OW57322   9.338   6.421   7.997  0.0802  0.9120  0.1244
18915SOL    HW157323   9.323   6.388   7.908 -0.5127  0.3048  0.4386
18915SOL    HW257324   9.419   6.378   8.025 -1.0023 -0.8432  0.7610
18916SOL     OW57325   4.996   0.170   8.680  0.2090  0.4310 -0.4810
18916SOL    HW157326   4.991   0.182   8.585  2.3157 -0.9710 -0.8618
18916SOL    HW257327   4.934   0.100   8.698 -0.4080  0.8937 -0.7765
18917SOL     OW57328   8.907   1.543   7.609 -0.0701 -0.2515  0.2921
18917SOL    HW157329   8.986   1.507   7.569  0.7151  0.2432  1.3413
18917SOL    HW257330   8.939   1.609   7.670 -1.3939  1.1247 -0.4362
18918SOL     OW57331   6.438   4.847   1.209 -0.2057  0.2216  0.2031
18918SOL    HW157332   6.416   4.756   1.191  0.9130  0.3296 -2.0049
18918SOL    HW257333   6.531   4.847   1.228 -0.4666  0.7628  1.6643
18919SOL     OW57334   4.470   2.990   7.229  0.6469  0.1641  0.1195
18919SOL    HW157335   4.430   2.951   7.152 -0.2613  0.4033  0.4597
18919SOL    HW257336   4.563   2.971   7.220  0.4030 -0.8242 -0.4416
18920SOL     OW57337   5.886   9.706   8.568 -0.3580  0.0934 -0.0143
18920SOL    HW157338   5.884   9.657   8.486  1.1665  1.4761 -0.9410
18920SOL    HW257339   5.976   9.696   8.599 -0.1241  1.8905 -0.0184
18921SOL     OW57340   5.452   5.911   1.057 -0.2959  0.3004 -0.6898
18921SOL    HW157341   5.418   5.981   1.112  0.5006  0.9067 -0.9575
18921SOL    HW257342   5.376   5.856   1.038 -0.7109  0.4457  0.4636
18922SOL     OW57343   0.512   4.378   0.151  0.0464  0.0957 -0.6073
18922SOL    HW157344   0.458   4.301   0.133  2.0989 -1.8951  1.1384
18922SOL    HW257345   0.573   4.383   0.077 -0.6592  0.6359 -1.1679
18923SOL     OW57346   9.807   8.372   3.940  0.2299  0.4397 -0.0019
18923SOL    HW157347   9.751   8.450   3.942  2.0151  1.7703  0.4600
18923SOL    HW257348   9.871   8.386   4.011  0.6226 -1.4422  0.0739
18924SOL     OW57349   7.173   8.678   4.056  0.2295  0.0477 -0.0717
18924SOL    HW157350   7.260   8.643   4.074 -0.4470 -0.9751  1.4880
18924SOL    HW257351   7.145   8.633   3.976  0.7144 -0.4521  0.0332
18925SOL     OW57352   4.129   1.671   6.942 -0.3448 -0.2118 -0.2948
18925SOL    HW157353   4.175   1.617   7.007 -0.0067 -0.6157 -0.8646
18925SOL    HW257354   4.040   1.677   6.975 -0.3292 -0.9287 -0.1097
18926SOL     OW57355   2.852   1.537   2.636  0.1432 -0.1277 -0.2564
18926SOL    HW157356   2.803   1.490   2.568 -0.0081  0.7042 -0.7389
18926SOL    HW257357   2.944   1.519   2.615  0.0818 -0.3575 -0.3322
18927SOL     OW57358   1.891   2.545   3.164 -0.0843 -0.1511  0.0504
18927SOL    HW157359   1.948   2.584   3.099  0.1135 -0.8062 -0.1802
18927SOL    HW257360   1.893   2.451   3.144 -2.1810 -0.0757 -0.7141
18928SOL     OW57361   4.510   5.860   4.143  0.1710 -0.2290 -0.2814
18928SOL    HW157362   4.484   5.800   4.073  0.4067  1.1363 -1.5629
18928SOL    HW257363   4.582   5.910   4.107  1.3399 -0.5406  1.5046
18929SOL     OW57364   1.965   0.802   2.653 -0.1736  0.3353 -0.7164
18929SOL    HW157365   1.898   0.789   2.720  0.2820  0.3446 -0.2458
18929SOL    HW257366   2.036   0.846   2.699  0.2606  0.0892 -1.1397
18930SOL     OW57367   7.305   5.630   6.795 -0.0660 -0.3104 -0.3209
18930SOL    HW157368   7.348   5.714   6.811 -1.4707  0.5308 -0.8004
18930SOL    HW257369   7.259   5.611   6.877  0.5193 -0.7799 -0.1001
18931SOL     OW57370   1.202   8.068   2.117  0.1903 -0.4357 -0.9416
18931SOL    HW157371   1.141   8.142   2.122 -0.4009 -1.0008  0.7254
18931SOL    HW257372   1.289   8.108   2.126 -0.0907  0.1156 -0.6056
18932SOL     OW57373   9.547   5.691   2.765 -0.0295  0.3589  0.4613
18932SOL    HW157374   9.589   5.774   2.742  0.1703  0.1939  0.2240
18932SOL    HW257375   9.481   5.714   2.830  1.0388  0.5019  1.5171
18933SOL     OW57376   0.639   0.595   5.946  0.2958 -0.1294  0.1500
18933SOL    HW157377   0.725   0.631   5.924  0.8414  0.1095  2.4101
18933SOL    HW257378   0.627   0.522   5.885  1.9070  0.0972 -0.4869
18934SOL     OW57379   3.401   1.943   1.625 -0.0782  0.3481 -0.2373
18934SOL    HW157380   3.442   1.947   1.538  0.3785  1.0820  0.0078
18934SOL    HW257381   3.468   1.975   1.685 -1.3418  2.6762  0.0376
18935SOL     OW57382   1.583   4.780   0.894  0.6752  0.1544 -0.0443
18935SOL    HW157383   1.560   4.806   0.804 -2.0818 -3.2793 -0.5711
18935SOL    HW257384   1.523   4.830   0.949  0.2610  0.0598 -0.4011
18936SOL     OW57385   4.006   9.988   9.634  0.4596  0.3229 -0.3225
18936SOL    HW157386   3.985   9.929   9.707 -0.6323  1.2723  0.1789
18936SOL    HW257387   3.984   9.938   9.556  2.7660 -1.1446 -0.0989
18937SOL     OW57388   2.004   2.773   8.958  0.5245  0.4137  0.1953
18937SOL    HW157389   2.046   2.773   8.872  1.1249 -0.5242  0.4681
18937SOL    HW257390   2.027   2.688   8.995 -1.7755 -0.2286  0.2942
18938SOL     OW57391   0.956   5.893   8.353 -0.2962 -0.5302  0.1053
18938SOL    HW157392   0.895   5.959   8.321 -1.2027  1.2160  4.6992
18938SOL    HW257393   0.907   5.811   8.349 -0.4433 -0.3717 -2.3870
18939SOL     OW57394   2.075   7.111   7.381 -0.0940  0.0069  0.0931
18939SOL    HW157395   2.122   7.033   7.411 -2.0326 -0.9259  0.9269
18939SOL    HW257396   2.000   7.076   7.333 -1.4842  1.3113  1.2201
18940SOL     OW57397   0.458   4.466   9.807 -0.2185 -0.0933 -0.5420
18940SOL    HW157398   0.446   4.537   9.869  1.0660  0.6018 -1.0544
18940SOL    HW257399   0.369   4.444   9.777 -0.7799  0.0437  0.9680
18941SOL     OW57400   4.473   4.881   7.834 -0.3911 -0.0170  0.1042
18941SOL    HW157401   4.516   4.797   7.844 -0.8332 -0.1078  1.5263
18941SOL    HW257402   4.544   4.945   7.834  0.0272 -0.4189 -2.0299
18942SOL     OW57403   9.870   0.746   2.756  0.8033  0.1772 -0.2037
18942SOL    HW157404   9.784   0.764   2.718  1.2771  0.3121 -1.2595
18942SOL    HW257405   9.864   0.778   2.846  0.2730  1.7709 -0.7715
18943SOL     OW57406   0.437   7.701   6.985 -0.5902 -0.5498  0.1018
18943SOL    HW157407   0.517   7.754   6.983  0.0731 -1.5087  0.2652
18943SOL    HW257408   0.366   7.763   6.968  0.2532  0.1871 -0.8069
18944SOL     OW57409   4.740   1.816   9.560 -0.4248  0.0263 -0.4705
18944SOL    HW157410   4.712   1.907   9.545  1.2568  0.8087  0.7834
18944SOL    HW257411   4.701   1.767   9.488 -0.8270  1.8641 -1.5783
18945SOL     OW57412   3.661   5.749   6.111 -0.1520  0.4595  0.0738
18945SOL    HW157413   3.667   5.798   6.029  0.0518 -0.9512 -0.8051
18945SOL    HW257414   3.733   5.781   6.164  0.2505  0.7842 -0.6568
18946SOL     OW57415   3.978   1.383   6.561  0.1479  0.2501  0.1575
18946SOL    HW157416   4.030   1.303   6.559  0.6429  0.5728 -0.5638
18946SOL    HW257417   4.036   1.448   6.602  0.9902  1.0262 -2.0860
18947SOL     OW57418   1.659   9.199   5.474 -0.0661  0.7280 -0.1875
18947SOL    HW157419   1.749   9.170   5.491 -0.0430  1.5713  1.2559
18947SOL    HW257420   1.662   9.231   5.383  0.1281 -2.6658 -1.5150
18948SOL     OW57421   7.140   8.677   8.342 -0.6757 -0.0133  0.2081
18948SOL    HW157422   7.175   8.682   8.431  1.2321  0.8931 -0.5267
18948SOL    HW257423   7.184   8.603   8.302 -1.4107 -0.3270 -0.0450
18949SOL     OW57424   7.100   6.952   0.999 -0.2374  0.3665  0.1601
18949SOL    HW157425   7.052   7.012   0.943 -1.0314  0.2231  0.6824
18949SOL    HW257426   7.033   6.899   1.042  0.4500 -1.4399 -0.8575
18950SOL     OW57427   0.885   5.603   1.695  0.1311  0.0889  0.6678
18950SOL    HW157428   0.886   5.595   1.790 -0.6645 -1.2245  0.5924
18950SOL    HW257429   0.905   5.514   1.663  1.7366  0.7772 -0.4168
18951SOL     OW57430   4.025   3.249   9.520  0.6534  0.4705 -0.1639
18951SOL    HW157431   3.974   3.322   9.485 -0.0356 -1.2468 -3.0826
18951SOL    HW257432   3.964   3.201   9.576  0.4463  0.8969 -0.0219
18952SOL     OW57433   2.803   2.028   6.300  0.2587  0.3551  0.2928
18952SOL    HW157434   2.882   2.010   6.247 -0.3298 -1.2491 -0.0797
18952SOL    HW257435   2.817   1.980   6.381 -0.3775 -0.0052  0.1890
18953SOL     OW57436   4.680   1.482   2.964 -0.2369  0.0547 -0.0001
18953SOL    HW157437   4.606   1.493   3.024 -0.6746 -1.5272 -0.1870
18953SOL    HW257438   4.661   1.400   2.918  1.6556 -0.4181 -0.0126
18954SOL     OW57439   8.362   5.647   3.038 -0.1250  0.0576  0.1402
18954SOL    HW157440   8.454   5.632   3.015  0.9173  2.6526  2.0696
18954SOL    HW257441   8.361   5.736   3.074 -3.4508  0.1690  0.0892
18955SOL     OW57442   7.011   0.526   3.763 -0.0257  0.4741 -0.4045
18955SOL    HW157443   6.931   0.511   3.714 -0.4766  0.8356  0.2073
18955SOL    HW257444   7.081   0.510   3.700 -0.5713 -0.0106 -0.8974
18956SOL     OW57445   0.646   5.189   6.020  0.4548 -0.2494  0.1219
18956SOL    HW157446   0.571   5.221   5.970  0.6127 -3.1104 -2.1546
18956SOL    HW257447   0.719   5.246   5.994 -0.3899  1.0381  0.5136
18957SOL     OW57448   4.096   7.203   7.638 -0.1045  0.4533 -0.1174
18957SOL    HW157449   4.005   7.227   7.618 -0.1389 -1.0802 -2.0665
18957SOL    HW257450   4.145   7.231   7.561  0.9838  0.5998  0.6086
18958SOL     OW57451   6.118   3.344   4.612 -0.5372 -0.0680  0.2132
18958SOL    HW157452   6.121   3.315   4.703  0.5685 -0.3206  0.1005
18958SOL    HW257453   6.153   3.271   4.562  0.8679  0.8691 -0.2134
18959SOL     OW57454   5.263   7.555   7.039 -0.2221 -0.1260 -0.3360
18959SOL    HW157455   5.245   7.649   7.043  0.4892 -0.0021  0.0554
18959SOL    HW257456   5.349   7.548   6.999  1.4787 -0.3746  3.0449
18960SOL     OW57457   2.226   4.794   3.664  0.0917 -0.0740 -0.3336
18960SOL    HW157458   2.278   4.816   3.587  0.7911  3.6768  1.0029
18960SOL    HW257459   2.137   4.821   3.641  0.1363  0.2449 -0.1349
18961SOL     OW57460   5.836   8.446   1.594 -0.7568 -0.0905 -0.6763
18961SOL    HW157461   5.757   8.411   1.635  0.3098 -2.9416 -0.8288
18961SOL    HW257462   5.805   8.490   1.515 -2.4301  1.7642  0.9030
18962SOL     OW57463   1.451   9.460   1.444 -0.6858 -0.3626  0.2861
18962SOL    HW157464   1.466   9.450   1.350  0.0822  0.8220  0.2591
18962SOL    HW257465   1.512   9.399   1.485  0.3826  0.5298  0.0499
18963SOL     OW57466   9.528   2.621   0.927 -0.2371 -0.0424 -0.1157
18963SOL    HW157467   9.445   2.611   0.880 -0.1103  0.9893 -0.6003
18963SOL    HW257468   9.578   2.543   0.906 -0.6760 -0.1759 -0.6805
18964SOL     OW57469   0.316   8.519   7.750  0.1074  0.0499  0.4189
18964SOL    HW157470   0.310   8.532   7.845  3.9296 -0.3828  0.9004
18964SOL    HW257471   0.227   8.497   7.723 -1.2247  0.6028  3.8121
18965SOL     OW57472   3.496   9.972   6.898 -0.4112 -0.9567  0.3774
18965SOL    HW157473   3.440  10.042   6.866  1.1904  0.0665 -0.3352
18965SOL    HW257474   3.523   9.925   6.818  1.2550 -0.2149  0.4517
18966SOL     OW57475   1.162   8.146   1.632 -0.2834  0.0858  0.2968
18966SOL    HW157476   1.121   8.091   1.565  0.8937 -1.6300  0.9163
18966SOL    HW257477   1.175   8.231   1.589 -1.3048 -0.3764 -0.9968
18967SOL     OW57478   8.666   9.362   7.302  0.0131  0.8182  0.0605
18967SOL    HW157479   8.611   9.320   7.368 -0.7117  1.5363 -0.0731
18967SOL    HW257480   8.751   9.373   7.344  0.8503 -2.4759 -0.5086
18968SOL     OW57481   5.307   2.439   4.241  0.6080  0.4335 -0.4223
18968SOL    HW157482   5.251   2.516   4.250 -0.4149  0.0065 -2.5015
18968SOL    HW257483   5.352   2.432   4.325 -1.0875  1.8608  0.6782
18969SOL     OW57484   4.027   3.761   4.306  0.6588  0.4561 -0.5562
18969SOL    HW157485   3.993   3.847   4.332 -1.5344  0.1351 -2.1315
18969SOL    HW257486   4.122   3.774   4.300  1.2299  1.2062  4.8151
18970SOL     OW57487   0.198   0.113   5.361 -0.4580  0.0699 -0.7818
18970SOL    HW157488   0.247   0.031   5.361  1.2594  1.0188  0.8752
18970SOL    HW257489   0.138   0.107   5.435 -1.8388 -0.4663 -1.8916
18971SOL     OW57490   3.558   3.440   5.429  0.4633 -0.0403  0.4321
18971SOL    HW157491   3.641   3.423   5.386  0.6619 -1.2335  1.2342
18971SOL    HW257492   3.492   3.405   5.369  0.7741 -2.2690  1.3055
18972SOL     OW57493   7.834   2.174   2.790 -0.2222  0.2372 -0.2720
18972SOL    HW157494   7.787   2.235   2.847  1.0754  1.5165 -0.5120
18972SOL    HW257495   7.924   2.204   2.791  0.6192 -2.0855  0.0737
18973SOL     OW57496   6.051   7.677   5.902  0.1912  0.0590  0.5416
18973SOL    HW157497   6.073   7.738   5.831 -0.0060  0.6827  1.0065
18973SOL    HW257498   6.101   7.598   5.882  0.4013  0.3487 -0.1071
18974SOL     OW57499   1.491   1.626   6.878 -0.0198  0.7178 -0.1309
18974SOL    HW157500   1.559   1.593   6.818  1.4171 -0.1629  1.8686
18974SOL    HW257501   1.535   1.693   6.929 -0.3131 -0.4937  1.8299
18975SOL     OW57502   5.880   1.909   2.663 -0.5421 -0.4221 -0.3846
18975SOL    HW157503   5.944   1.839   2.673 -0.9771 -1.1717 -2.3761
18975SOL    HW257504   5.797   1.864   2.647 -1.5853  0.5326  1.9086
18976SOL     OW57505   5.898   4.854   2.812  0.0541 -0.4281 -0.4138
18976SOL    HW157506   5.935   4.821   2.730  0.1685  0.1405 -0.6029
18976SOL    HW257507   5.972   4.856   2.872  0.4359  0.9755 -0.8739
18977SOL     OW57508   9.360   8.120   7.137 -0.2104  0.5731  0.2959
18977SOL    HW157509   9.338   8.190   7.199  1.2048  2.1021 -0.8471
18977SOL    HW257510   9.453   8.104   7.151 -0.3804 -0.6817  0.1112
18978SOL     OW57511   9.345   0.768   2.969 -0.1279  0.2462  0.1315
18978SOL    HW157512   9.378   0.721   2.892 -0.1841  0.8538 -0.2699
18978SOL    HW257513   9.260   0.728   2.987 -0.3502  0.4494 -0.4460
18979SOL     OW57514   1.470   9.951   2.879 -0.3229  0.2232  0.0039
18979SOL    HW157515   1.457  10.021   2.816 -0.4958 -0.1856 -0.4247
18979SOL    HW257516   1.382   9.916   2.896 -0.2193 -0.0126  0.0677
18980SOL     OW57517   5.416   8.372   6.568 -0.3864 -0.2371  0.3960
18980SOL    HW157518   5.345   8.415   6.520  0.9645 -0.8760 -2.3640
18980SOL    HW257519   5.422   8.285   6.529  1.0623 -0.6668  1.4925
18981SOL     OW57520   5.176   3.272   4.091  0.3872  0.0058 -0.6612
18981SOL    HW157521   5.102   3.218   4.063 -0.2507  0.4939  0.0223
18981SOL    HW257522   5.211   3.309   4.010 -0.5425  0.2837 -0.9567
18982SOL     OW57523   0.447   4.668   7.465 -0.1236 -0.0834 -0.5690
18982SOL    HW157524   0.431   4.760   7.442 -3.4430 -0.1011  1.0994
18982SOL    HW257525   0.541   4.664   7.483  0.3755  2.6241 -2.0401
18983SOL     OW57526   8.409   3.148   7.844 -0.4532  0.0145 -0.2957
18983SOL    HW157527   8.374   3.213   7.906 -0.8961 -1.8287  1.4717
18983SOL    HW257528   8.491   3.188   7.813 -0.0741  0.9241  1.6760
18984SOL     OW57529   5.507   8.748   5.454 -0.2950  0.2907  0.0213
18984SOL    HW157530   5.493   8.840   5.477 -0.0021  0.5294 -0.7234
18984SOL    HW257531   5.542   8.708   5.534 -1.0153  0.6809  0.5405
18985SOL     OW57532   6.894   2.993   7.967  0.3477  0.0566  0.8574
18985SOL    HW157533   6.920   3.035   8.049 -0.9275  1.9132  0.3554
18985SOL    HW257534   6.933   3.046   7.898  0.9802 -1.1926  0.2044
18986SOL     OW57535   7.186   5.905   1.583  0.1572 -0.5417 -0.4278
18986SOL    HW157536   7.262   5.897   1.526  1.4850 -2.9181  1.4442
18986SOL    HW257537   7.143   5.819   1.578  0.1035 -0.7020  1.7725
18987SOL     OW57538   9.813   7.153   5.313  0.3481 -0.2381 -0.3759
18987SOL    HW157539   9.885   7.151   5.249  0.2990  1.6806 -0.5417
18987SOL    HW257540   9.857   7.150   5.398  0.4643 -1.7170 -0.4620
18988SOL     OW57541   2.441   6.577   5.860 -0.4389 -0.1612  0.4246
18988SOL    HW157542   2.372   6.521   5.823 -0.5609 -0.1955  0.7071
18988SOL    HW257543   2.432   6.660   5.812  0.1449 -0.5825 -0.4402
18989SOL     OW57544   2.570   1.364   9.201 -0.1305  0.4678 -0.0184
18989SOL    HW157545   2.594   1.363   9.109  0.4105  0.2349  0.1197
18989SOL    HW257546   2.624   1.295   9.241 -1.3308 -0.3604  0.2311
18990SOL     OW57547   8.729   7.435   8.658  0.1789  0.0968 -0.1478
18990SOL    HW157548   8.689   7.480   8.584 -0.0664  1.7697  0.9399
18990SOL    HW257549   8.815   7.407   8.626  1.0179  2.7991 -0.4572
18991SOL     OW57550   7.322   0.392   0.621 -0.5263  0.1567  0.0140
18991SOL    HW157551   7.252   0.434   0.672 -1.4258 -1.1900 -0.0706
18991SOL    HW257552   7.288   0.305   0.601  0.8004 -0.1836 -0.8570
18992SOL     OW57553   4.072   3.840   9.541  0.1231 -0.0739 -0.5187
18992SOL    HW157554   4.062   3.774   9.473 -0.2402  0.6721 -1.1991
18992SOL    HW257555   3.993   3.894   9.534 -0.4608 -0.6346  1.2170
18993SOL     OW57556   6.077   7.200   5.790 -1.0284 -0.0444  0.0177
18993SOL    HW157557   6.083   7.157   5.876 -0.2695  0.5225  0.2553
18993SOL    HW257558   6.114   7.136   5.729 -0.4865  0.0158  0.2783
18994SOL     OW57559   5.178   9.811   5.787 -0.3557 -0.3376 -0.0526
18994SOL    HW157560   5.227   9.891   5.772 -1.4311  0.0991 -1.4715
18994SOL    HW257561   5.087   9.840   5.796 -1.0787 -1.4682 -2.5813
18995SOL     OW57562   4.328   8.206   7.105 -0.0759  0.0784  0.1635
18995SOL    HW157563   4.282   8.190   7.023  0.2696  1.1334 -0.2534
18995SOL    HW257564   4.409   8.155   7.098  0.0374  0.3121 -0.2300
18996SOL     OW57565   4.909   1.060   0.578  0.2188 -0.3744 -0.4775
18996SOL    HW157566   4.823   1.018   0.577  0.4363 -0.9662  1.4066
18996SOL    HW257567   4.899   1.137   0.522 -1.3132 -0.8376 -0.8815
18997SOL     OW57568   9.330   0.068   8.088 -0.3551 -0.5498  0.2395
18997SOL    HW157569   9.257   0.051   8.028 -0.0504 -1.1655  0.0405
18997SOL    HW257570   9.342  -0.014   8.136 -0.9902  0.1167  1.5911
18998SOL     OW57571   2.183   0.623   0.353 -0.3033 -0.3381 -0.5220
18998SOL    HW157572   2.189   0.546   0.297 -0.0296 -0.1926 -0.6915
18998SOL    HW257573   2.266   0.669   0.340  0.0643 -0.6635  0.5171
18999SOL     OW57574   8.663   0.289   9.302 -0.0011  0.4044 -0.6100
18999SOL    HW157575   8.599   0.336   9.249 -0.7940 -0.1158 -0.1439
18999SOL    HW257576   8.646   0.320   9.391 -0.1635 -0.3443 -0.3764
19000SOL     OW57577   5.357   6.070   4.142  0.5910 -0.2539 -0.4311
19000SOL    HW157578   5.402   6.052   4.225 -0.2700 -1.6490 -0.2332
19000SOL    HW257579   5.424   6.110   4.087  1.1485  0.7987  0.9678
19001SOL     OW57580   3.602   6.665   0.712 -0.2502 -0.1423 -0.0057
19001SOL    HW157581   3.555   6.582   0.714  0.5709 -0.6121  0.2354
19001SOL    HW257582   3.680   6.650   0.766  1.9007 -0.4218 -2.9390
19002SOL     OW57583   4.064   3.811   2.036 -0.2202  0.0643  0.4692
19002SOL    HW157584   4.006   3.833   2.108 -0.3041 -1.3339  0.8724
19002SOL    HW257585   4.015   3.834   1.957 -1.2191 -0.8313  0.8127
19003SOL     OW57586   6.045   1.102   0.656  0.0390  0.4128  0.5712
19003SOL    HW157587   6.117   1.095   0.719 -0.7443  0.4150  1.4979
19003SOL    HW257588   6.077   1.056   0.578  0.9828  0.2856  1.0118
19004SOL     OW57589   6.164   3.037   1.023  0.0907 -0.4255  0.3522
19004SOL    HW157590   6.171   3.098   0.950 -2.3499  1.9778  1.9628
19004SOL    HW257591   6.236   3.062   1.082 -0.0987  0.0235  0.3962
19005SOL     OW57592   9.906   8.216   3.391  0.2122  0.1335  0.1328
19005SOL    HW157593   9.914   8.260   3.307  0.7245 -0.3293 -0.0612
19005SOL    HW257594   9.846   8.272   3.441 -0.8326 -0.0776 -0.8558
19006SOL     OW57595   3.232   5.010   2.754  0.2025 -0.2543 -0.0798
19006SOL    HW157596   3.162   5.059   2.797 -0.9597  0.6286 -2.7821
19006SOL    HW257597   3.189   4.966   2.680  2.2822 -0.7319 -1.0777
19007SOL     OW57598   2.165   9.178   4.048 -0.3887  0.5402  0.5741
19007SOL    HW157599   2.229   9.211   3.985  0.8585  0.1103  1.5762
19007SOL    HW257600   2.086   9.162   3.996  0.3769  0.8642 -0.7301
19008SOL     OW57601   3.900   5.064   9.287 -1.0025  0.0895  0.5182
19008SOL    HW157602   3.933   5.083   9.199 -1.6574  1.1701  0.4774
19008SOL    HW257603   3.807   5.046   9.274 -1.1775  0.5993  1.0139
19009SOL     OW57604   4.550   8.242   0.335  0.2420  0.5180 -0.2914
19009SOL    HW157605   4.463   8.280   0.350 -0.8509 -1.9674  0.0281
19009SOL    HW257606   4.579   8.282   0.253 -1.3860  1.0606 -0.6447
19010SOL     OW57607   0.882   8.788   3.021  0.4532  0.2658 -0.0513
19010SOL    HW157608   0.854   8.825   3.104 -0.8611  0.8691 -0.7286
19010SOL    HW257609   0.963   8.741   3.041 -0.1351 -0.0737  1.6653
19011SOL     OW57610   1.698   7.304   0.104  0.2914 -0.1247  0.3075
19011SOL    HW157611   1.764   7.236   0.089 -0.8417 -1.8108  2.3253
19011SOL    HW257612   1.629   7.259   0.153 -0.4624  2.5209  1.8425
19012SOL     OW57613   9.142   3.975   7.292 -0.3189  0.2621 -0.8008
19012SOL    HW157614   9.186   4.058   7.312  0.7514 -0.7472  1.3352
19012SOL    HW257615   9.213   3.914   7.275 -0.8998 -0.9896  0.9839
19013SOL     OW57616   2.150   3.327   1.992  0.3581 -0.2710 -0.3880
19013SOL    HW157617   2.232   3.285   1.964 -0.6374 -2.0771 -0.7848
19013SOL    HW257618   2.176   3.390   2.058  2.0269 -1.1748 -0.1320
19014SOL     OW57619   5.239   8.708   1.736  0.1007  0.0163 -0.1530
19014SOL    HW157620   5.163   8.660   1.704  0.3321 -1.5346  1.4285
19014SOL    HW257621   5.310   8.643   1.738  0.6042  0.5450  1.4420
19015SOL     OW57622   6.664   0.795  -0.007  0.7674 -0.4019 -0.3238
19015SOL    HW157623   6.593   0.740   0.027 -0.2526  0.0317 -1.6334
19015SOL    HW257624   6.697   0.842   0.069 -0.2305 -0.7645  0.3582
19016SOL     OW57625   8.221   4.780   4.703  0.2732  0.2250  0.4640
19016SOL    HW157626   8.241   4.716   4.771  1.6211  0.3971  0.2534
19016SOL    HW257627   8.273   4.857   4.726 -0.0771  0.6631 -0.1812
19017SOL     OW57628   6.977   7.624   8.247  0.3340 -0.1730 -0.5402
19017SOL    HW157629   6.954   7.665   8.164 -0.4207  0.9706  0.1946
19017SOL    HW257630   6.906   7.649   8.306  1.0506 -0.6272  0.5435
19018SOL     OW57631   0.836   7.005   5.408 -0.0487 -0.4014  0.0485
19018SOL    HW157632   0.751   6.964   5.424 -0.5988  0.7446  0.1517
19018SOL    HW257633   0.816   7.097   5.393  0.9888 -0.4091 -1.7027
19019SOL     OW57634   4.733   3.348   6.248  0.0210 -0.6136 -0.4074
19019SOL    HW157635   4.775   3.386   6.325  0.6578 -1.2130 -0.4504
19019SOL    HW257636   4.641   3.338   6.272  0.0164  0.1237 -0.0851
19020SOL     OW57637   3.878   0.773   1.133 -0.1861 -0.2866 -0.4136
19020SOL    HW157638   3.879   0.762   1.038 -1.0250 -0.8506 -0.3653
19020SOL    HW257639   3.943   0.842   1.150  0.1131 -0.3175 -1.3700
19021SOL     OW57640   9.407   6.239   0.716 -0.7279 -0.4843  0.2385
19021SOL    HW157641   9.331   6.284   0.752 -0.4958 -0.8447  1.2152
19021SOL    HW257642   9.420   6.279   0.630 -2.1272 -0.5536 -0.0277
19022SOL     OW57643   6.250   7.282   1.772 -0.1781  0.0153  0.3997
19022SOL    HW157644   6.169   7.298   1.820 -0.1827 -1.4920  0.9575
19022SOL    HW257645   6.317   7.276   1.840 -0.0994 -1.6220  0.2089
19023SOL     OW57646   7.922   0.634   2.812  0.0939  0.3093 -0.5100
19023SOL    HW157647   8.008   0.611   2.776 -0.1717  0.7352 -1.4308
19023SOL    HW257648   7.863   0.635   2.737 -0.8105 -0.3300  0.1600
19024SOL     OW57649   6.790   9.771   7.422 -0.4190  0.2459  0.4664
19024SOL    HW157650   6.828   9.858   7.409  2.0654 -0.8888 -0.4215
19024SOL    HW257651   6.807   9.725   7.340 -0.1814 -1.6030  1.4984
19025SOL     OW57652   1.094   6.594   7.415 -0.3105  0.1810 -0.4809
19025SOL    HW157653   1.126   6.668   7.364 -1.9162  0.1706 -1.5495
19025SOL    HW257654   1.166   6.573   7.475  0.6164  1.8285 -0.9799
19026SOL     OW57655   8.576   2.320   7.026  0.2434  0.5095 -0.5834
19026SOL    HW157656   8.611   2.259   6.960 -0.1466  2.0559 -2.2981
19026SOL    HW257657   8.489   2.287   7.045  0.8002 -0.6348  0.0998
19027SOL     OW57658   8.523   9.509   3.877 -0.0323 -0.0744 -0.0959
19027SOL    HW157659   8.589   9.449   3.912 -0.0879 -0.0662  0.0238
19027SOL    HW257660   8.465   9.454   3.825  0.0145 -0.0962 -0.1254
19028SOL     OW57661   1.181   7.587   2.368 -0.1886  0.3286  0.0144
19028SOL    HW157662   1.188   7.659   2.305  0.9401 -0.9762 -1.4401
19028SOL    HW257663   1.211   7.625   2.451  0.0985  1.6044 -0.6438
19029SOL     OW57664   3.063   9.530   6.348 -0.7639 -0.8514 -0.2034
19029SOL    HW157665   3.088   9.441   6.372 -0.0740 -0.5799  0.1187
19029SOL    HW257666   3.037   9.524   6.256 -3.1955 -1.8593  0.4628
19030SOL     OW57667   3.841   4.278   5.565 -0.6600 -0.4025 -0.0779
19030SOL    HW157668   3.783   4.284   5.490 -0.8558 -0.2533  0.0842
19030SOL    HW257669   3.806   4.205   5.617 -0.9701 -0.0302  0.2448
19031SOL     OW57670   5.478   4.300   8.091 -0.6635 -0.1664  0.4595
19031SOL    HW157671   5.568   4.309   8.061 -1.3361  0.9197 -1.3933
19031SOL    HW257672   5.446   4.390   8.100 -1.4795 -0.5314  1.3945
19032SOL     OW57673   2.847   9.104   4.228  0.1688 -0.2650 -0.5013
19032SOL    HW157674   2.849   9.164   4.154  1.1686  0.4495  0.0899
19032SOL    HW257675   2.918   9.132   4.284 -2.3961  1.2087  2.3233
19033SOL     OW57676   8.300   4.220   5.661 -0.1986  0.0639 -0.6350
19033SOL    HW157677   8.253   4.218   5.577  0.7997  2.3323 -1.3284
19033SOL    HW257678   8.246   4.274   5.718 -0.0483 -0.0419 -0.3906
19034SOL     OW57679   9.085   9.637   4.515 -0.1012 -0.3733 -0.1830
19034SOL    HW157680   9.063   9.622   4.423 -0.8001 -0.2452 -0.0388
19034SOL    HW257681   9.177   9.612   4.521 -0.1762 -0.8395 -0.8146
19035SOL     OW57682   7.639   4.759   6.368 -0.0627 -0.1788 -0.6285
19035SOL    HW157683   7.590   4.683   6.400 -0.2105  0.4106  0.6111
19035SOL    HW257684   7.711   4.722   6.317 -1.5135 -1.0823 -2.1384
19036SOL     OW57685   5.337   1.307   2.353  0.1888  0.0195 -0.6083
19036SOL    HW157686   5.364   1.279   2.441 -0.2792  1.0332 -0.1325
19036SOL    HW257687   5.402   1.267   2.295  0.7369 -0.3441  0.2277
19037SOL     OW57688   2.822   2.242   7.587  0.1810  0.1316 -0.1673
19037SOL    HW157689   2.834   2.301   7.513  0.1572  0.9675  0.4801
19037SOL    HW257690   2.758   2.287   7.643  2.4066  1.0045  1.8542
19038SOL     OW57691   3.576   7.772   4.289  0.1011 -0.0669  0.2839
19038SOL    HW157692   3.565   7.736   4.378 -1.5871 -0.8234 -0.1992
19038SOL    HW257693   3.583   7.694   4.233 -1.5551  0.3580 -0.5505
19039SOL     OW57694   3.605   2.853   6.565 -0.2150 -0.0725 -0.2780
19039SOL    HW157695   3.664   2.848   6.641 -1.0176 -0.7325  0.3118
19039SOL    HW257696   3.558   2.935   6.578  0.2763  0.2551 -0.5355
19040SOL     OW57697   8.892   8.402   6.070 -0.1709 -0.2555 -0.0636
19040SOL    HW157698   8.870   8.439   6.156  0.2284  1.4696 -0.6509
19040SOL    HW257699   8.986   8.386   6.074 -0.0962  0.1148 -0.2697
19041SOL     OW57700   8.029   4.372   5.546  0.2464 -0.3777 -0.1263
19041SOL    HW157701   7.933   4.362   5.545  0.2125 -0.0417 -0.5690
19041SOL    HW257702   8.049   4.403   5.634  0.0118 -1.0423  0.1710
19042SOL     OW57703   2.154   4.505   7.122  0.3809 -0.2452  0.2233
19042SOL    HW157704   2.158   4.502   7.027 -0.9010  0.5760  0.1131
19042SOL    HW257705   2.245   4.511   7.150  0.7301  0.7252 -1.0205
19043SOL     OW57706   4.323   0.131   5.820 -0.2201 -0.0562 -0.2739
19043SOL    HW157707   4.345   0.039   5.806  0.7340  0.1023  0.0820
19043SOL    HW257708   4.351   0.149   5.910 -0.4645  0.5605 -0.3151
19044SOL     OW57709   1.893   3.702   8.772 -0.2729 -0.2009  0.1226
19044SOL    HW157710   1.939   3.712   8.689 -1.9033  1.7823 -0.6320
19044SOL    HW257711   1.852   3.615   8.767  0.2610 -0.4082 -0.8122
19045SOL     OW57712   0.073   2.535   6.755 -0.2120 -0.0541  0.0061
19045SOL    HW157713  -0.023   2.540   6.761 -0.3040 -2.1876  1.4719
19045SOL    HW257714   0.104   2.604   6.814 -0.9466 -1.5138  2.2307
19046SOL     OW57715   9.544   1.814   1.790 -0.1211 -0.0744 -0.0772
19046SOL    HW157716   9.502   1.837   1.873 -0.1066 -2.6759  0.7585
19046SOL    HW257717   9.577   1.725   1.804  1.0917 -0.0792 -2.4481
19047SOL     OW57718   6.465   6.944   9.654 -0.4095 -0.0129  0.3216
19047SOL    HW157719   6.487   6.861   9.612  0.5755  0.7021 -0.6268
19047SOL    HW257720   6.441   7.002   9.582 -0.3364  0.7499  0.8953
19048SOL     OW57721   6.275   5.367   3.813  0.1348  0.0845 -0.5221
19048SOL    HW157722   6.276   5.460   3.836  0.4982 -0.0642  0.0773
19048SOL    HW257723   6.357   5.352   3.766 -0.0012  0.0978 -0.7691
19049SOL     OW57724   8.981   3.020   4.327  0.5761  0.5872 -0.2745
19049SOL    HW157725   8.932   3.067   4.260 -1.1062 -0.7814 -0.0619
19049SOL    HW257726   8.980   2.929   4.299 -0.7987 -0.1598  1.8980
19050SOL     OW57727   3.941   5.795   0.028 -0.0674 -0.3270  0.0661
19050SOL    HW157728   4.027   5.817  -0.008  1.6570 -0.8129  3.4991
19050SOL    HW257729   3.904   5.879   0.054 -0.4547 -0.1757 -0.9033
19051SOL     OW57730   5.268   2.394   8.658 -0.1890 -0.7951  0.2985
19051SOL    HW157731   5.197   2.375   8.598 -0.4869 -0.9112  0.6858
19051SOL    HW257732   5.325   2.317   8.654 -1.0341 -1.5002  1.3486
19052SOL     OW57733   0.349   9.207   9.272  0.7649 -0.0365  0.3935
19052SOL    HW157734   0.401   9.285   9.289  0.9014  0.1144 -0.6585
19052SOL    HW257735   0.383   9.142   9.334  3.2518 -0.3942 -1.1798
19053SOL     OW57736   3.123   6.608   8.641 -0.2343 -0.2299 -0.2911
19053SOL    HW157737   3.163   6.684   8.599 -0.5494  0.2458  0.2558
19053SOL    HW257738   3.059   6.645   8.701 -1.3896 -0.9643 -1.0282
19054SOL     OW57739   8.020   8.089   9.605  0.7696 -0.2561  0.5292
19054SOL    HW157740   8.014   8.167   9.659  1.6162 -0.3185  0.7203
19054SOL    HW257741   7.946   8.096   9.544  0.6989  0.5646  0.7065
19055SOL     OW57742   1.815   1.420   8.783  0.0609  0.2845 -0.4341
19055SOL    HW157743   1.813   1.400   8.690 -0.2768  0.3976 -0.4523
19055SOL    HW257744   1.893   1.375   8.816 -0.0686 -0.1270 -0.6848
19056SOL     OW57745   3.466   3.055   0.778 -0.2212  0.3308 -0.2000
19056SOL    HW157746   3.391   3.012   0.737 -0.0420  0.7754 -1.0121
19056SOL    HW257747   3.437   3.145   0.791  0.5377  0.7848 -1.5236
19057SOL     OW57748   7.826   2.604   3.233 -0.8993  0.0693  0.2720
19057SOL    HW157749   7.910   2.566   3.209 -1.2234  0.4743 -1.7522
19057SOL    HW257750   7.771   2.530   3.258 -0.4706 -0.4079 -0.1847
19058SOL     OW57751   7.924   3.548   9.725 -0.2582  0.6548 -0.2074
19058SOL    HW157752   7.943   3.609   9.797 -2.2004  0.2063  0.7523
19058SOL    HW257753   7.866   3.597   9.667  0.1798  0.5305 -0.7619
19059SOL     OW57754   6.264   7.347   6.104  0.4875  0.3342  0.4132
19059SOL    HW157755   6.263   7.251   6.105 -1.0410  0.3031 -0.6881
19059SOL    HW257756   6.341   7.371   6.156  0.5555 -1.4731  1.2106
19060SOL     OW57757   4.104   2.004   6.092  0.3491 -0.5883 -0.5146
19060SOL    HW157758   4.169   2.073   6.106  0.5047  0.1166 -3.8701
19060SOL    HW257759   4.150   1.923   6.113  1.4941  0.0513 -0.4783
19061SOL     OW57760   2.622   1.560   2.208 -0.4015  0.4915 -0.3075
19061SOL    HW157761   2.698   1.551   2.150  0.0512  2.0342  0.0098
19061SOL    HW257762   2.561   1.615   2.159 -0.5532  0.7434  0.1611
19062SOL     OW57763  -0.003   3.794   6.062  0.2408 -0.3037  0.0805
19062SOL    HW157764  -0.022   3.887   6.049  2.8068  0.0580 -1.6755
19062SOL    HW257765   0.089   3.791   6.085 -0.0464 -2.3914  1.1728
19063SOL     OW57766   3.681   8.019   2.585 -0.0826 -0.2516 -0.4232
19063SOL    HW157767   3.753   7.960   2.562  0.4840 -0.8012  2.3694
19063SOL    HW257768   3.603   7.975   2.553  0.6123 -0.8685 -1.3287
19064SOL     OW57769   8.666   2.410   4.078  0.1152 -0.0017 -0.5544
19064SOL    HW157770   8.571   2.413   4.076  0.1287  1.1064 -0.0504
19064SOL    HW257771   8.687   2.323   4.114 -0.7082  0.1384  0.2881
19065SOL     OW57772   1.934   1.137   4.960 -0.1225  0.4014 -0.5640
19065SOL    HW157773   1.997   1.208   4.950 -1.5031  1.6389 -0.8470
19065SOL    HW257774   1.859   1.178   5.002 -0.5967 -1.1263  0.1180
19066SOL     OW57775   1.233   6.332   6.074  0.9128  0.2709  0.0880
19066SOL    HW157776   1.191   6.414   6.047  0.1605  0.4372  1.6403
19066SOL    HW257777   1.286   6.357   6.150  2.2339 -0.3373 -0.5975
19067SOL     OW57778   8.413   8.937   5.708  0.3322  0.0912 -0.2994
19067SOL    HW157779   8.394   8.843   5.708 -0.8590  0.2959 -1.5848
19067SOL    HW257780   8.328   8.979   5.714  0.5710  1.0638 -2.5638
19068SOL     OW57781   2.736   0.829   6.424 -0.4994  0.1406  0.0692
19068SOL    HW157782   2.681   0.901   6.392 -0.6539  0.6776  1.4621
19068SOL    HW257783   2.736   0.840   6.519 -0.3377 -1.5763  0.2986
19069SOL     OW57784   6.149   6.583   5.291  0.4495 -0.2048 -0.4441
19069SOL    HW157785   6.194   6.520   5.235  0.9627  1.1927 -1.6746
19069SOL    HW257786   6.057   6.575   5.267  0.3973 -1.0171 -0.0180
19070SOL     OW57787   7.728   3.457   7.548  0.3259  0.7254 -0.7913
19070SOL    HW157788   7.704   3.378   7.500  0.3696  1.8149 -2.7511
19070SOL    HW257789   7.645   3.491   7.581  0.3916 -0.4854  0.7163
19071SOL     OW57790   3.665   2.160   7.644 -0.0019  0.3390  0.3495
19071SOL    HW157791   3.750   2.135   7.680  0.1041 -1.4419 -0.9835
19071SOL    HW257792   3.685   2.192   7.556 -0.6870 -0.1768 -0.0067
19072SOL     OW57793   0.382   2.983   2.995 -0.1718 -0.0541 -0.3345
19072SOL    HW157794   0.295   2.995   3.034 -0.0533  0.3535 -0.1928
19072SOL    HW257795   0.396   3.061   2.942 -0.3324 -0.6015 -1.2112
19073SOL     OW57796   1.886   6.173   8.192  0.1648 -0.3901  0.3198
19073SOL    HW157797   1.870   6.117   8.116  0.0843  0.4516 -0.3080
19073SOL    HW257798   1.800   6.211   8.211  0.8767  2.6554 -1.8429
19074SOL     OW57799   2.482   1.200   0.313 -0.3272 -0.1058 -0.6144
19074SOL    HW157800   2.562   1.225   0.266 -0.0160  0.0682 -0.0052
19074SOL    HW257801   2.508   1.122   0.363 -0.2552  0.5171  0.3422
19075SOL     OW57802   7.990   0.323   9.632 -0.1240 -0.3694  0.2859
19075SOL    HW157803   7.915   0.377   9.605 -0.6866  0.1959  2.7063
19075SOL    HW257804   7.994   0.253   9.567 -1.7159  0.5273 -0.8468
19076SOL     OW57805   4.440   9.869   1.466 -0.4605 -0.0111 -0.0455
19076SOL    HW157806   4.433   9.959   1.498  2.1699  1.4611 -3.0614
19076SOL    HW257807   4.349   9.843   1.447 -1.1871  2.5199 -0.3515
19077SOL     OW57808   6.192   1.131   3.119  0.2494 -0.4424  0.2092
19077SOL    HW157809   6.124   1.179   3.071 -0.3059 -1.1005  0.3160
19077SOL    HW257810   6.232   1.073   3.053  0.8092  0.0401  0.1157
19078SOL     OW57811   1.166   5.500   1.223 -0.0561 -0.4639 -0.1855
19078SOL    HW157812   1.184   5.444   1.147  0.4867  0.8958 -1.0830
19078SOL    HW257813   1.122   5.577   1.187  0.7710  0.4955  0.7833
19079SOL     OW57814   1.723   6.567   7.602  0.9044  0.4350  0.3229
19079SOL    HW157815   1.764   6.653   7.612  2.3767 -0.2016  0.0097
19079SOL    HW257816   1.771   6.525   7.531 -1.4526  0.2711 -1.2961
19080SOL     OW57817   6.376   9.171   3.585 -0.3232  0.2667 -0.1039
19080SOL    HW157818   6.330   9.243   3.542 -0.0213  2.0806  2.3535
19080SOL    HW257819   6.339   9.169   3.674  2.4874  0.1097  1.1617
19081SOL     OW57820   7.521   6.688   5.282 -0.0317 -0.0995 -0.1319
19081SOL    HW157821   7.519   6.620   5.215 -1.8863  0.3819 -0.6111
19081SOL    HW257822   7.432   6.723   5.284  0.2597  0.6824  1.7946
19082SOL     OW57823   9.848   3.944   5.472  0.1278  0.4163 -0.1114
19082SOL    HW157824   9.791   3.889   5.417  0.7657 -0.2657 -0.1024
19082SOL    HW257825   9.934   3.902   5.467  0.4818  1.0692  0.4023
19083SOL     OW57826   2.903   7.839   7.753  0.4247 -0.2334 -0.4556
19083SOL    HW157827   2.891   7.754   7.795  2.1166 -0.5574 -0.5714
19083SOL    HW257828   2.837   7.841   7.683  0.0942 -1.2573 -0.1883
19084SOL     OW57829   9.440   4.309   8.260  0.7854  0.4311  0.3717
19084SOL    HW157830   9.355   4.266   8.259  0.7750  0.3900 -1.6513
19084SOL    HW257831   9.475   4.291   8.347 -1.0183 -0.0288  1.0473
19085SOL     OW57832   5.005   8.266   4.075 -0.0838 -0.2727  0.2705
19085SOL    HW157833   5.091   8.264   4.116  0.2287  0.2256 -0.3318
19085SOL    HW257834   4.969   8.179   4.089  0.7537 -0.6611  0.0451
19086SOL     OW57835   7.791   2.212   4.011  0.3172 -0.4273 -0.1533
19086SOL    HW157836   7.813   2.179   4.098  0.5381 -1.3142 -0.5330
19086SOL    HW257837   7.744   2.140   3.969 -0.9176  0.4515 -0.3275
19087SOL     OW57838   7.397   3.454   3.762  0.4180 -0.2732 -0.0309
19087SOL    HW157839   7.480   3.459   3.714  1.5986 -0.1897  1.9025
19087SOL    HW257840   7.377   3.545   3.785 -0.0651 -0.3187 -0.2685
19088SOL     OW57841   8.994   6.859   8.457  0.0879 -0.1684 -0.0982
19088SOL    HW157842   9.072   6.811   8.486 -1.0854 -1.5793  0.8875
19088SOL    HW257843   8.957   6.805   8.388  0.8271  1.3313 -1.7510
19089SOL     OW57844   2.237   8.293   9.911  0.4909  0.6391 -0.0043
19089SOL    HW157845   2.154   8.292   9.959  1.6045  0.7886  2.0530
19089SOL    HW257846   2.276   8.378   9.932  0.4641  1.2896 -2.3104
19090SOL     OW57847   3.812   6.064   4.729 -0.5084  0.6776  0.3009
19090SOL    HW157848   3.831   6.085   4.821  0.0277  0.5641  0.2180
19090SOL    HW257849   3.720   6.039   4.729 -0.7038  1.3720  0.6915
19091SOL     OW57850   9.469   8.607   6.202  0.1108 -0.1586 -0.1993
19091SOL    HW157851   9.485   8.536   6.141 -0.3983 -1.9363  1.6226
19091SOL    HW257852   9.556   8.640   6.224  0.3174  0.2437 -1.5229
19092SOL     OW57853   4.922   3.550   8.224  0.7610  0.3262 -0.3479
19092SOL    HW157854   4.912   3.620   8.159 -0.1326  0.5908  0.0571
19092SOL    HW257855   4.988   3.492   8.187 -0.5064 -0.1229 -2.0287
19093SOL     OW57856   9.476   1.693   5.824 -0.3131  0.3448 -0.4876
19093SOL    HW157857   9.409   1.752   5.790 -0.3849  1.6838  1.7720
19093SOL    HW257858   9.453   1.608   5.788 -1.6990  1.2341 -1.8254
19094SOL     OW57859   0.311   1.232   2.729 -0.2803 -0.4796  0.4397
19094SOL    HW157860   0.231   1.277   2.757  0.9324  0.4326  2.7032
19094SOL    HW257861   0.293   1.205   2.639 -2.9998 -0.0372  0.7715
19095SOL     OW57862   0.714   8.045   7.721 -0.4506  0.3594 -0.6620
19095SOL    HW157863   0.720   8.066   7.814  0.0368  1.0435 -0.8420
19095SOL    HW257864   0.800   8.010   7.699 -0.5845  0.1451 -0.8438
19096SOL     OW57865   6.793   7.087   0.723 -0.2390  0.2013 -0.0363
19096SOL    HW157866   6.770   7.003   0.762 -0.7087  1.0404  1.6071
19096SOL    HW257867   6.735   7.150   0.767 -0.7598  1.2472 -2.0783
19097SOL     OW57868   0.145   1.422   9.909 -0.1291 -0.3482 -0.1633
19097SOL    HW157869   0.119   1.415   9.817  1.9000  1.4033 -0.9679
19097SOL    HW257870   0.095   1.497   9.943 -1.1736 -1.2350  0.3275
19098SOL     OW57871   3.107   9.864   2.460 -0.2558 -0.1754  0.7727
19098SOL    HW157872   3.070   9.952   2.472  1.6200  0.6595  0.8371
19098SOL    HW257873   3.137   9.838   2.547 -1.2552 -1.1192  0.8500
19099SOL     OW57874   7.739   6.077   8.433  0.4787  0.7318 -0.0880
19099SOL    HW157875   7.725   5.985   8.455 -0.0046  1.0688  1.0866
19099SOL    HW257876   7.662   6.101   8.380  0.3818  0.5826 -0.0138
19100SOL     OW57877   9.728   5.410   0.980 -0.3547 -0.2452 -0.3485
19100SOL    HW157878   9.657   5.427   1.043  0.7141  0.6532  0.6643
19100SOL    HW257879   9.799   5.375   1.033  0.2288 -0.4107 -1.2283
19101SOL     OW57880   0.958   6.701   9.900 -0.1712 -0.0478  0.2851
19101SOL    HW157881   0.897   6.753   9.952  0.7033  1.0027  0.2967
19101SOL    HW257882   0.960   6.745   9.815 -1.1110 -1.3795 -0.4593
19102SOL     OW57883   6.230   3.460   2.381 -0.1676  0.9016  0.8661
19102SOL    HW157884   6.179   3.536   2.353 -0.1943  0.6581  0.2545
19102SOL    HW257885   6.321   3.489   2.376  0.0683 -0.0642 -2.4762
19103SOL     OW57886   9.478   8.966   8.664 -0.2101  0.1708  0.5675
19103SOL    HW157887   9.388   8.989   8.642 -0.7198 -1.2791  1.0201
19103SOL    HW257888   9.470   8.904   8.736  1.1900  0.5610  1.0825
19104SOL     OW57889   6.191   9.189   6.820 -0.0927 -0.3606 -0.2007
19104SOL    HW157890   6.236   9.186   6.905  0.0325 -0.3591 -0.2673
19104SOL    HW257891   6.260   9.204   6.756 -0.0324 -1.5835 -0.4362
19105SOL     OW57892   3.379   4.537   0.195 -0.3992 -0.2699  0.6915
19105SOL    HW157893   3.472   4.555   0.212 -0.6965  1.4000  0.7806
19105SOL    HW257894   3.336   4.622   0.207 -1.5583 -0.3666 -1.9870
19106SOL     OW57895   4.122   6.408   9.654 -1.0049  0.4598  0.1983
19106SOL    HW157896   4.033   6.396   9.686 -0.8976  1.0537  0.7351
19106SOL    HW257897   4.150   6.492   9.690  0.1309 -0.1786  0.8779
19107SOL     OW57898   2.960   7.452   7.041 -0.0507  0.1002  0.2035
19107SOL    HW157899   3.037   7.495   7.004 -1.6927  0.5106 -3.0687
19107SOL    HW257900   2.914   7.522   7.088  0.0453  0.5969 -0.4327
19108SOL     OW57901   5.213   7.774   8.297 -0.4050 -0.9162  0.5028
19108SOL    HW157902   5.246   7.810   8.379 -1.3981  1.0429  0.1060
19108SOL    HW257903   5.289   7.777   8.238 -0.1390 -0.6445  0.8518
19109SOL     OW57904   1.086   0.419   2.161 -0.5235 -0.8583 -0.1136
19109SOL    HW157905   1.082   0.331   2.122  2.5706 -0.7057 -1.0792
19109SOL    HW257906   1.100   0.477   2.086  2.2238 -0.1596  0.8306
19110SOL     OW57907   1.475   2.714   6.754 -0.1143 -0.5666  0.0276
19110SOL    HW157908   1.456   2.622   6.739  1.8016 -1.1958  1.0417
19110SOL    HW257909   1.492   2.750   6.667  0.1777 -1.4527 -0.2925
19111SOL     OW57910   3.921   2.319   1.038 -0.4289 -0.0259 -0.4470
19111SOL    HW157911   3.826   2.319   1.052 -0.4682  1.5550 -0.4480
19111SOL    HW257912   3.935   2.389   0.974  0.6977 -0.5721 -0.8187
19112SOL     OW57913   2.758   4.229   9.542 -0.2758  0.0409 -0.0827
19112SOL    HW157914   2.848   4.251   9.566 -0.4182  0.0374  0.4657
19112SOL    HW257915   2.737   4.152   9.595 -0.5973  0.0365 -0.2123
19113SOL     OW57916   8.545   4.485   7.454  0.0055 -0.9332 -0.3503
19113SOL    HW157917   8.589   4.427   7.516 -0.0312 -1.7765 -1.0967
19113SOL    HW257918   8.562   4.446   7.368 -0.6619 -0.2586 -0.8024
19114SOL     OW57919   1.301   7.440   1.794  0.3381 -0.2149  0.3337
19114SOL    HW157920   1.249   7.490   1.857 -1.8050  2.1004 -2.9492
19114SOL    HW257921   1.241   7.373   1.761  0.3369  0.5594 -1.3422
19115SOL     OW57922   2.625   7.723   9.544  0.4985  0.3091  0.5228
19115SOL    HW157923   2.683   7.743   9.470  1.2615  0.0206  1.0326
19115SOL    HW257924   2.580   7.642   9.517  0.0949  0.7016 -0.0032
19116SOL     OW57925   6.695   4.731   1.842  0.0770 -0.3139  0.1785
19116SOL    HW157926   6.658   4.706   1.926 -1.1437 -0.9736 -0.5173
19116SOL    HW257927   6.657   4.817   1.824  1.0501  0.2330  0.7054
19117SOL     OW57928   2.160   9.589   1.647 -0.3011  0.6311  0.0012
19117SOL    HW157929   2.102   9.643   1.702 -0.2716  0.2608  0.4007
19117SOL    HW257930   2.141   9.616   1.558 -2.3709 -0.7285 -0.0260
19118SOL     OW57931   2.855   5.484   5.771  0.7927  0.4014  0.3616
19118SOL    HW157932   2.950   5.482   5.762  0.8377  2.6344 -0.3954
19118SOL    HW257933   2.822   5.496   5.682 -0.1011  1.1383  0.7675
19119SOL     OW57934   6.944   8.103   7.847  0.2258  0.4370  0.6178
19119SOL    HW157935   6.892   8.059   7.915  0.2910 -1.5258 -0.5353
19119SOL    HW257936   7.034   8.074   7.864  0.4554  1.0923  0.5398
19120SOL     OW57937   9.719   8.007   0.479 -0.1905  0.5384  0.2283
19120SOL    HW157938   9.740   7.958   0.399  2.0858  2.9865 -0.8176
19120SOL    HW257939   9.782   7.974   0.544  1.3624  1.9461 -0.4847
19121SOL     OW57940   7.679   9.917   0.047 -0.5842 -0.5063 -0.0012
19121SOL    HW157941   7.712   9.998   0.086 -0.8804 -1.0909  1.4991
19121SOL    HW257942   7.710   9.848   0.105  0.7177 -1.6322 -1.9060
19122SOL     OW57943   1.083   0.795   5.757 -0.2315  0.5713 -0.2949
19122SOL    HW157944   1.075   0.870   5.816  0.7167 -0.5731  1.3590
19122SOL    HW257945   1.130   0.829   5.681 -1.0510  1.9619 -0.2302
19123SOL     OW57946   1.923   4.956   9.393 -0.6329 -0.3468 -0.0310
19123SOL    HW157947   1.922   4.868   9.354  0.2128 -0.1586 -0.4955
19123SOL    HW257948   1.974   5.009   9.332 -0.1689  0.2104  0.8191
19124SOL     OW57949   0.358   1.724   8.609 -0.0387  0.1111 -0.3201
19124SOL    HW157950   0.385   1.646   8.561 -0.0083  0.3666 -0.7314
19124SOL    HW257951   0.392   1.712   8.697  2.0123  0.7013 -0.9720
19125SOL     OW57952   0.668   7.861   8.564 -0.3718 -0.4054  0.1831
19125SOL    HW157953   0.686   7.894   8.651 -0.9146  1.5574 -0.4017
19125SOL    HW257954   0.658   7.939   8.510 -1.0499 -1.5474 -1.4329
19126SOL     OW57955   8.325   6.489   7.115  0.6652  0.2373 -0.3651
19126SOL    HW157956   8.344   6.414   7.172  1.8711  0.2395 -0.7489
19126SOL    HW257957   8.259   6.455   7.054  0.0874 -0.0536  0.3960
19127SOL     OW57958   1.005   8.804   9.348 -0.0601 -0.2015 -0.1517
19127SOL    HW157959   1.070   8.776   9.412  0.9918  1.4326 -0.4600
19127SOL    HW257960   0.992   8.897   9.364 -0.2126  0.1263 -1.9140
19128SOL     OW57961   8.130   9.345   5.199  0.3721 -0.2722 -0.4192
19128SOL    HW157962   8.078   9.413   5.240  1.4158 -1.3005  2.9246
19128SOL    HW257963   8.066   9.279   5.171 -0.4388  0.8797 -1.3528
19129SOL     OW57964   1.860   7.494   6.643 -0.1252  0.1483  0.3352
19129SOL    HW157965   1.924   7.439   6.598  0.8247  1.9961 -0.7242
19129SOL    HW257966   1.780   7.484   6.592  0.4243  0.7684 -0.6842
19130SOL     OW57967   9.078   4.486   1.284  0.0100  0.1072  0.0763
19130SOL    HW157968   9.119   4.513   1.201 -1.1519  0.8672 -0.2642
19130SOL    HW257969   9.151   4.479   1.345  0.8073  0.1917 -0.8381
19131SOL     OW57970   5.491   3.709   6.835 -0.0618 -0.1080 -0.0462
19131SOL    HW157971   5.493   3.801   6.812 -0.0281 -0.4640 -1.6056
19131SOL    HW257972   5.467   3.707   6.927  2.3348  1.5289  0.6739
19132SOL     OW57973   9.997   0.611   7.497 -0.1951 -0.2430  0.0191
19132SOL    HW157974   9.906   0.586   7.481 -0.6604  0.6847  1.0688
19132SOL    HW257975   9.998   0.705   7.481  0.8911 -0.4454 -1.2213
19133SOL     OW57976   9.144   6.423   3.435  0.1022 -0.2509  0.3203
19133SOL    HW157977   9.195   6.377   3.369  1.4972  0.8522  0.5777
19133SOL    HW257978   9.060   6.441   3.393  0.2440 -1.2963 -0.4377
19134SOL     OW57979   5.097   5.393   0.891 -0.3655 -0.4270 -0.0694
19134SOL    HW157980   5.019   5.337   0.892 -0.4402 -0.3644  1.7374
19134SOL    HW257981   5.117   5.407   0.984  1.2897  0.2774 -0.4976
19135SOL     OW57982   6.872   0.455   8.906  0.7680  0.1491 -0.3990
19135SOL    HW157983   6.853   0.369   8.943  0.2573  0.2103 -0.5119
19135SOL    HW257984   6.864   0.444   8.812  0.1671  0.4429 -0.3879
19136SOL     OW57985   3.431   8.328   3.002 -0.0316 -0.0726  0.8175
19136SOL    HW157986   3.460   8.342   2.912  1.3901 -1.3119  1.0428
19136SOL    HW257987   3.410   8.416   3.034  0.0801  0.4644 -0.5072
19137SOL     OW57988   4.607   2.318   6.086  0.5392 -0.0996 -0.2600
19137SOL    HW157989   4.556   2.302   6.166 -1.1261  0.1459 -1.2114
19137SOL    HW257990   4.640   2.407   6.096  1.4347 -0.5201  0.6940
19138SOL     OW57991   4.757   1.747   2.419  0.1648 -0.6417  0.1707
19138SOL    HW157992   4.675   1.705   2.444  0.8519 -1.1482  1.6780
19138SOL    HW257993   4.739   1.785   2.333 -1.7119 -0.5400  0.5641
19139SOL     OW57994   4.496   2.081   7.262  0.2937  0.1270  0.0341
19139SOL    HW157995   4.438   2.053   7.191  0.7799 -0.8787  0.0013
19139SOL    HW257996   4.452   2.155   7.302 -2.8143 -2.5807  2.2296
19140SOL     OW57997   9.832   9.932   6.818  0.4323  0.1401 -0.1160
19140SOL    HW157998   9.769  10.001   6.795 -0.8852 -0.9083  0.2331
19140SOL    HW257999   9.917   9.976   6.816 -0.0459  1.1326 -2.6747
19141SOL     OW58000   3.301   9.652   2.072  0.0500  0.5944  0.2982
19141SOL    HW158001   3.283   9.638   2.165  2.9612 -2.0769  0.6398
19141SOL    HW258002   3.353   9.575   2.047  1.1736  2.2718 -3.0089
19142SOL     OW58003   5.833   6.874   7.778 -0.1320 -0.0948 -0.3037
19142SOL    HW158004   5.888   6.833   7.846  0.6350 -1.0506 -1.4581
19142SOL    HW258005   5.858   6.829   7.697 -1.1430  0.9109 -1.2023
19143SOL     OW58006   9.815   1.252   0.557 -0.9837 -0.0990 -0.2729
19143SOL    HW158007   9.786   1.211   0.638  1.1485 -1.4444 -0.1105
19143SOL    HW258008   9.907   1.272   0.572 -0.8291  0.6875 -1.9751
19144SOL     OW58009   9.188   7.733   5.152 -0.2928  0.0838 -0.3149
19144SOL    HW158010   9.138   7.758   5.073 -2.6412  0.5334  1.1999
19144SOL    HW258011   9.132   7.669   5.195  0.9504 -0.1533  0.9918
19145SOL     OW58012   6.796   7.390   2.432 -0.1220  0.1261 -0.1931
19145SOL    HW158013   6.791   7.314   2.375  0.3774 -0.3713  0.4199
19145SOL    HW258014   6.797   7.355   2.520 -1.0045  0.8968  0.1412
19146SOL     OW58015   2.777   8.534   1.528  0.0002  0.0949 -0.0285
19146SOL    HW158016   2.693   8.517   1.487 -0.1735  0.6218  0.1068
19146SOL    HW258017   2.840   8.487   1.473 -0.4916 -1.2351  0.5089
19147SOL     OW58018   3.157   0.387   0.228 -0.2118  0.1233  0.0522
19147SOL    HW158019   3.180   0.305   0.271 -0.3540 -0.4816 -0.9766
19147SOL    HW258020   3.195   0.379   0.140 -0.9789  0.7880 -0.3541
19148SOL     OW58021   6.157   8.588   5.648  0.3924  0.2714  0.5571
19148SOL    HW158022   6.179   8.538   5.726 -1.3949  0.1479  1.0126
19148SOL    HW258023   6.205   8.545   5.577  0.3577 -0.9191  1.2426
19149SOL     OW58024   5.289   9.333   1.836  0.2477  0.2318  0.5907
19149SOL    HW158025   5.383   9.349   1.829 -0.1041  2.6439  0.3614
19149SOL    HW258026   5.259   9.324   1.746  0.2930 -1.0012  0.6817
19150SOL     OW58027   9.734   6.800   8.396 -0.4318  0.3727 -0.3271
19150SOL    HW158028   9.704   6.859   8.466  2.6800  1.4617  0.2448
19150SOL    HW258029   9.829   6.802   8.402 -0.0792 -4.3655 -0.6556
19151SOL     OW58030   2.108   9.435   8.879  0.1972 -0.5822 -0.5492
19151SOL    HW158031   2.097   9.458   8.787  0.3463  0.3453 -0.3430
19151SOL    HW258032   2.049   9.494   8.926  2.8812  1.7238  0.2431
19152SOL     OW58033   7.950   3.547   4.359  0.1224  0.0464 -0.3977
19152SOL    HW158034   7.881   3.485   4.336 -1.9393  1.9833  0.1487
19152SOL    HW258035   7.951   3.548   4.455 -0.3462  1.2874 -0.3881
19153SOL     OW58036   6.605   7.285   2.757  0.3316  0.7528  0.0638
19153SOL    HW158037   6.699   7.302   2.743  0.4723 -0.0980 -0.0590
19153SOL    HW258038   6.575   7.252   2.673  0.3778 -0.9335  0.6740
19154SOL     OW58039   6.931   4.166   5.492 -0.3260  0.1806  0.7419
19154SOL    HW158040   6.898   4.240   5.442 -1.2871 -0.6757  0.0863
19154SOL    HW258041   6.859   4.141   5.550 -0.2249 -0.6096  0.5392
19155SOL     OW58042   5.122   4.609   1.626  0.1388  0.3316 -0.2360
19155SOL    HW158043   5.207   4.651   1.640  0.4775 -0.7938  1.4308
19155SOL    HW258044   5.066   4.644   1.696 -1.2176  2.0261 -2.0496
19156SOL     OW58045   0.293   9.937   5.844 -0.2298 -0.2311 -0.0097
19156SOL    HW158046   0.199   9.921   5.849 -0.5826  0.3854 -2.9872
19156SOL    HW258047   0.327   9.869   5.786  0.8056  0.6768 -0.5249
19157SOL     OW58048   6.892   3.764   5.462 -0.1763  0.2240  0.4632
19157SOL    HW158049   6.887   3.670   5.478 -0.0244  0.1750  0.2194
19157SOL    HW258050   6.844   3.803   5.535 -1.2331 -0.0901 -0.0427
19158SOL     OW58051   4.123   9.056   4.704  0.4835  0.4499 -0.5809
19158SOL    HW158052   4.052   9.107   4.665  0.4882  0.6073 -0.3804
19158SOL    HW258053   4.192   9.057   4.638  0.4023  0.5200 -0.6661
19159SOL     OW58054   9.266   1.013   3.998  0.3779 -0.2497  0.6164
19159SOL    HW158055   9.340   0.953   4.000  1.9716  1.6579  0.9130
19159SOL    HW258056   9.242   1.018   3.906  0.4559 -1.0452  0.5448
19160SOL     OW58057   9.724   4.850   8.690  0.2477 -0.0978 -0.3529
19160SOL    HW158058   9.657   4.913   8.663  1.7728  1.4510 -0.6829
19160SOL    HW258059   9.698   4.824   8.779 -1.0086  0.1144 -0.6401
19161SOL     OW58060   5.178   3.215   6.991  0.3074  0.0581  0.0977
19161SOL    HW158061   5.168   3.207   7.086 -0.7772  1.6122  0.1482
19161SOL    HW258062   5.097   3.256   6.961  1.1255  0.7147 -1.3478
19162SOL     OW58063   0.462   0.974   7.826  0.5383 -0.1958  0.1397
19162SOL    HW158064   0.558   0.966   7.832  0.3416 -1.8622  4.0210
19162SOL    HW258065   0.437   0.911   7.759  2.0927 -1.0791  0.3267
19163SOL     OW58066   4.003   8.309   6.568 -0.0869  0.1197 -0.2982
19163SOL    HW158067   4.092   8.304   6.602 -0.4748  1.1092  0.9194
19163SOL    HW258068   4.002   8.246   6.496  1.2262 -0.8780  0.4983
19164SOL     OW58069   9.412   6.982   9.014 -0.0066 -0.0179  0.0653
19164SOL    HW158070   9.445   6.892   9.012  0.7965  0.2077 -3.4015
19164SOL    HW258071   9.484   7.033   9.052  0.0896 -0.6127  0.7129
19165SOL     OW58072   6.743   8.337   4.657  0.5731 -0.5662 -0.5367
19165SOL    HW158073   6.732   8.287   4.738  1.0218 -1.0614 -0.7718
19165SOL    HW258074   6.816   8.396   4.675  2.2455 -2.2675 -1.2889
19166SOL     OW58075   5.229   0.389   2.245 -0.2199 -0.3099 -0.2954
19166SOL    HW158076   5.156   0.331   2.223  0.7852 -1.9239  0.4032
19166SOL    HW258077   5.275   0.344   2.316  1.5761  0.5329 -0.8492
19167SOL     OW58078   5.395   7.350   7.450 -0.2015  0.6350 -0.0300
19167SOL    HW158079   5.462   7.408   7.486 -1.3071  1.1229  1.3484
19167SOL    HW258080   5.394   7.275   7.510  0.0856 -0.0423 -0.8609
19168SOL     OW58081   5.119   9.791   9.878 -0.2065 -0.4082  0.0081
19168SOL    HW158082   5.150   9.700   9.877  1.2815  0.0697 -1.7376
19168SOL    HW258083   5.163   9.831   9.953  0.8427 -0.5934 -0.4918
19169SOL     OW58084   5.110   2.756   7.734  0.3380  0.1039  0.1048
19169SOL    HW158085   5.128   2.831   7.677  0.1122 -1.1779 -1.7332
19169SOL    HW258086   5.194   2.711   7.743 -0.0568 -0.9455 -1.1387
19170SOL     OW58087   5.644   3.380   2.839 -0.9929  0.2489  0.0926
19170SOL    HW158088   5.578   3.334   2.787 -1.2541  1.1697 -0.4321
19170SOL    HW258089   5.725   3.371   2.789 -0.6649 -1.0449  0.8331
19171SOL     OW58090   0.768   6.997   4.941  0.0091  0.5070 -0.5758
19171SOL    HW158091   0.747   6.930   5.006 -2.4179  2.7855  1.2507
19171SOL    HW258092   0.854   6.973   4.907  0.0802 -2.4088  1.3483
19172SOL     OW58093   2.341   7.127   6.997 -0.1014 -0.6929  1.2673
19172SOL    HW158094   2.312   7.202   7.049  0.4595  0.4551 -0.0210
19172SOL    HW258095   2.431   7.148   6.972 -0.9053 -0.3306 -1.6296
19173SOL     OW58096   5.622   2.913   9.891 -0.0364 -0.5325 -0.3732
19173SOL    HW158097   5.612   2.985   9.829 -0.7447 -0.4288 -0.1583
19173SOL    HW258098   5.632   2.835   9.837  0.9458 -0.2525 -0.6088
19174SOL     OW58099   8.595   4.011   3.142  0.2320  0.3084  0.0295
19174SOL    HW158100   8.536   4.026   3.068  0.8745 -0.0722 -0.5790
19174SOL    HW258101   8.680   4.044   3.112  1.0738 -2.0309 -0.3698
19175SOL     OW58102   6.986   8.161   1.435  0.5227  0.2964 -0.2780
19175SOL    HW158103   6.918   8.116   1.386  1.1345  0.0229 -0.8818
19175SOL    HW258104   7.068   8.138   1.391  0.9322  1.2866 -0.0720
19176SOL     OW58105   9.245   8.783   3.144  0.1928 -0.6725  0.1857
19176SOL    HW158106   9.300   8.843   3.195 -0.2699 -0.1313  0.0635
19176SOL    HW258107   9.300   8.706   3.130  1.6845  0.6379 -1.6795
19177SOL     OW58108   4.790   6.385   0.793 -0.5108 -0.4458 -0.5770
19177SOL    HW158109   4.740   6.305   0.776 -0.8062 -0.4449  0.2376
19177SOL    HW258110   4.724   6.453   0.803 -0.3400 -0.3873  0.2106
19178SOL     OW58111   8.412   6.918   3.141 -0.4233  0.3940 -0.0465
19178SOL    HW158112   8.367   6.999   3.115  0.4195  0.7512 -0.4507
19178SOL    HW258113   8.353   6.848   3.112 -0.1263  0.8158 -1.7856
19179SOL     OW58114   1.024   8.465   5.253 -0.0071 -0.3931  0.3612
19179SOL    HW158115   0.973   8.484   5.331  0.3950 -1.1397  0.8204
19179SOL    HW258116   1.095   8.530   5.254  0.6344 -1.0760  1.2338
19180SOL     OW58117   5.939   6.401   0.869 -0.1538  0.2985  0.5270
19180SOL    HW158118   6.001   6.429   0.802 -1.5787  0.3239 -0.8412
19180SOL    HW258119   5.940   6.472   0.934  0.1278  0.9992 -0.2293
19181SOL     OW58120   5.856   3.084   2.490  0.1292  0.3564 -0.0986
19181SOL    HW158121   5.853   3.020   2.561  1.5466  1.8124  1.3595
19181SOL    HW258122   5.815   3.039   2.416 -1.1482 -1.3401  1.5279
19182SOL     OW58123   8.904   9.442   2.274 -0.6583  0.4189  0.3795
19182SOL    HW158124   8.875   9.517   2.326 -1.9544  0.3294 -0.1885
19182SOL    HW258125   8.962   9.394   2.333  1.4892  2.6562  0.2399
19183SOL     OW58126   8.958   9.189   1.257 -0.5098 -0.2083  0.2332
19183SOL    HW158127   9.027   9.173   1.322  0.3310  0.6333 -0.4176
19183SOL    HW258128   8.907   9.108   1.256  0.8668 -1.1127  0.2691
19184SOL     OW58129   3.899   4.736   1.518  0.1916  0.5119 -0.0980
19184SOL    HW158130   3.831   4.722   1.452  1.6941 -0.8511 -1.4493
19184SOL    HW258131   3.904   4.831   1.528 -2.5611  0.6465  0.8270
19185SOL     OW58132   3.581   3.017   5.109  0.0342 -0.3467  0.1258
19185SOL    HW158133   3.514   3.083   5.092  1.1239  0.5150 -1.0618
19185SOL    HW258134   3.569   2.994   5.201 -1.1294  0.6334  0.2497
19186SOL     OW58135   4.040   2.021   2.722  0.0331  0.4456  0.1826
19186SOL    HW158136   3.979   1.954   2.752 -1.1415  1.0080 -0.8248
19186SOL    HW258137   4.120   2.006   2.772 -0.9605 -0.2644  1.6249
19187SOL     OW58138   9.574   5.726   3.912  0.2255 -0.3036  0.2541
19187SOL    HW158139   9.663   5.697   3.887 -0.1595 -1.9550  0.6471
19187SOL    HW258140   9.576   5.727   4.008 -0.6458 -2.0583  0.3247
19188SOL     OW58141   3.966   6.978   0.729  0.2004 -0.1811 -0.0693
19188SOL    HW158142   4.031   7.006   0.664 -0.2817 -0.5212 -0.7052
19188SOL    HW258143   4.002   6.896   0.765  0.9696  0.5413  0.8471
19189SOL     OW58144   7.118   3.708   6.538 -0.3452 -0.0187  0.1000
19189SOL    HW158145   7.116   3.713   6.633  0.2339 -1.3121  0.1928
19189SOL    HW258146   7.046   3.649   6.516 -1.2877  1.2534 -0.3650
19190SOL     OW58147   5.553   9.405   6.754  0.5808 -0.1001  0.6096
19190SOL    HW158148   5.459   9.404   6.775  0.7943  0.2571  1.6477
19190SOL    HW258149   5.588   9.477   6.806  1.4438 -0.2428  0.2382
19191SOL     OW58150   2.282   6.662   8.450 -0.3337 -0.6678  0.0235
19191SOL    HW158151   2.313   6.656   8.359 -1.6070 -0.6767 -0.4286
19191SOL    HW258152   2.282   6.755   8.469  2.8448 -0.7624  1.1071
19192SOL     OW58153   6.094   5.524   6.602 -0.2791  0.5445  0.2882
19192SOL    HW158154   6.153   5.574   6.546  0.7822 -0.0362  0.8365
19192SOL    HW258155   6.020   5.500   6.546  0.6313  0.1924 -0.7982
19193SOL     OW58156   1.487   5.392   5.197 -0.3322 -0.4548 -0.0959
19193SOL    HW158157   1.495   5.447   5.274 -2.1117  2.1465 -1.6151
19193SOL    HW258158   1.563   5.415   5.143 -0.9438  0.3512 -0.6231
19194SOL     OW58159   1.845   7.751   4.962 -0.0050 -0.0460 -0.4251
19194SOL    HW158160   1.897   7.823   4.999  0.3526 -0.4177 -0.2083
19194SOL    HW258161   1.908   7.701   4.910  0.3695 -1.7746  1.5925
19195SOL     OW58162   1.680   9.277   2.251 -0.2072  0.5789  0.3501
19195SOL    HW158163   1.763   9.268   2.204 -1.0139  1.5129 -1.3595
19195SOL    HW258164   1.695   9.348   2.312  0.3406  0.5338  0.2766
19196SOL     OW58165   7.374   2.743   6.728 -0.2790 -0.2740 -0.6639
19196SOL    HW158166   7.447   2.804   6.741 -0.0983 -0.8619  1.6234
19196SOL    HW258167   7.410   2.657   6.750 -1.4171 -0.6929 -0.3468
19197SOL     OW58168   6.815   2.638   9.427  0.2921  0.5509  0.0246
19197SOL    HW158169   6.731   2.681   9.441  0.2069  0.1762  0.7079
19197SOL    HW258170   6.825   2.636   9.332 -1.0464 -0.4978 -0.1186
19198SOL     OW58171   1.859   7.944   0.934 -0.1530 -0.7109  0.0969
19198SOL    HW158172   1.918   7.878   0.897 -1.3818 -1.9585  0.2743
19198SOL    HW258173   1.772   7.907   0.921 -1.0813  1.9206 -1.8734
19199SOL     OW58174   1.292   2.588   4.169  0.1136  0.0992 -0.4626
19199SOL    HW158175   1.260   2.563   4.256 -0.6731  0.7324 -0.5562
19199SOL    HW258176   1.212   2.611   4.120  0.3337 -2.0984 -1.9796
19200SOL     OW58177   5.862   5.517   0.841 -0.0620  0.1025 -0.1957
19200SOL    HW158178   5.852   5.429   0.805 -1.8761  0.8221 -1.6429
19200SOL    HW258179   5.939   5.553   0.796 -1.7020  0.6283 -2.8436
19201SOL     OW58180   2.087   6.860   6.098 -0.0077  0.2898  0.2846
19201SOL    HW158181   1.996   6.857   6.127 -0.0276 -0.5327  0.1532
19201SOL    HW258182   2.129   6.924   6.157 -0.1056 -1.1531  1.9852
19202SOL     OW58183   0.813   3.834   6.037  0.3747 -0.7549  0.1721
19202SOL    HW158184   0.758   3.823   5.959 -2.3373  0.2951  1.8001
19202SOL    HW258185   0.762   3.796   6.108  2.7762 -1.6747  1.5062
19203SOL     OW58186   7.417   3.522   3.142  0.2733  0.1362 -0.1359
19203SOL    HW158187   7.510   3.538   3.159 -0.0523  1.9392  0.1737
19203SOL    HW258188   7.415   3.439   3.094  1.9574 -0.3919  0.6194
19204SOL     OW58189   5.828   9.916   1.524 -0.6936  0.2005 -0.6313
19204SOL    HW158190   5.813   9.907   1.618 -0.1866  0.3856 -0.5307
19204SOL    HW258191   5.745   9.891   1.484 -0.2151 -2.2263 -0.2530
19205SOL     OW58192   7.826   6.004   7.927  0.3505 -0.0399 -0.3593
19205SOL    HW158193   7.779   6.088   7.930 -0.4367 -0.1798 -3.9271
19205SOL    HW258194   7.908   6.024   7.881  0.0909 -1.1738 -1.3864
19206SOL     OW58195   9.395   5.579   8.833 -0.4885  0.2523 -0.0652
19206SOL    HW158196   9.416   5.668   8.861  1.7756  0.3020 -1.6689
19206SOL    HW258197   9.359   5.589   8.745  0.5982 -0.4377 -0.6104
19207SOL     OW58198   6.397   5.608   1.295  0.0233 -0.0139 -0.3563
19207SOL    HW158199   6.457   5.650   1.235  1.2857 -0.1281  0.7786
19207SOL    HW258200   6.359   5.680   1.346 -1.0010  0.0777 -1.2064
19208SOL     OW58201   2.680   7.223   2.699 -0.1966  0.6307 -0.4432
19208SOL    HW158202   2.691   7.284   2.772 -0.8090 -0.3267  0.4642
19208SOL    HW258203   2.723   7.267   2.625  0.3700  1.6489  0.4598
19209SOL     OW58204   4.405   8.637   4.152 -0.0266 -0.9916  0.1211
19209SOL    HW158205   4.456   8.709   4.117  2.6592 -2.6632  0.3575
19209SOL    HW258206   4.426   8.635   4.246 -1.3261 -1.1227  0.4318
19210SOL     OW58207   3.614   7.363   8.272 -0.4577  0.2849  0.1478
19210SOL    HW158208   3.537   7.308   8.267 -0.3784  0.2350 -0.7148
19210SOL    HW258209   3.613   7.400   8.360  0.7247 -2.8664  1.6093
19211SOL     OW58210   9.368   8.452   1.128  0.1961  0.3847 -0.3124
19211SOL    HW158211   9.400   8.362   1.139 -0.1300  0.4125  0.9178
19211SOL    HW258212   9.442   8.498   1.087 -0.6195 -1.0784 -3.8633
19212SOL     OW58213   2.977   2.221   0.420  0.2495 -0.4561 -0.3556
19212SOL    HW158214   2.995   2.311   0.392 -1.4161 -0.3850 -1.3097
19212SOL    HW258215   3.022   2.166   0.356  0.7766 -0.3187 -0.1121
19213SOL     OW58216   1.538   7.977   8.207  0.4456  0.3792 -0.2599
19213SOL    HW158217   1.605   7.909   8.215 -1.9330 -2.5770 -2.9209
19213SOL    HW258218   1.465   7.946   8.260 -0.1925  1.6273 -0.3665
19214SOL     OW58219   6.555   6.684   6.023  0.7517  0.2793  0.1341
19214SOL    HW158220   6.498   6.750   5.983 -0.6801 -0.3224  1.1120
19214SOL    HW258221   6.627   6.673   5.961 -0.2898  0.9297 -1.2261
19215SOL     OW58222   6.149   6.705   8.810 -0.5114  0.3274 -0.8361
19215SOL    HW158223   6.103   6.781   8.774 -0.6522  0.4540 -0.3907
19215SOL    HW258224   6.216   6.685   8.744  0.7100  1.9470 -0.1442
19216SOL     OW58225   5.581   6.295   9.730  0.1654 -0.1234  0.3573
19216SOL    HW158226   5.673   6.287   9.757  0.5851  0.2420 -0.9085
19216SOL    HW258227   5.550   6.205   9.723  0.1309 -0.2378  1.7043
19217SOL     OW58228   4.905   1.494   0.591 -0.0752  0.1832 -0.4801
19217SOL    HW158229   4.886   1.579   0.550 -0.7252 -0.9482 -2.7240
19217SOL    HW258230   4.847   1.433   0.546 -0.6184 -1.2887  2.0320
19218SOL     OW58231   7.175   9.411   5.456 -0.3188  0.1941  0.5099
19218SOL    HW158232   7.094   9.382   5.498 -0.3954 -1.3635 -0.6591
19218SOL    HW258233   7.147   9.454   5.376 -0.0753  1.7257  1.2021
19219SOL     OW58234   5.852   7.165   6.424  0.3316 -0.5280  0.4670
19219SOL    HW158235   5.787   7.096   6.411  1.3658 -1.6154  0.8857
19219SOL    HW258236   5.813   7.242   6.384 -1.1392 -1.1908  0.5630
19220SOL     OW58237   6.389   0.134   0.933  0.2677 -0.1862 -0.9136
19220SOL    HW158238   6.379   0.187   1.012 -0.0529 -1.1713 -0.2816
19220SOL    HW258239   6.484   0.127   0.920  0.3407  1.8430 -1.9225
19221SOL     OW58240   3.052   9.912   9.738 -0.3358 -0.7710  0.4186
19221SOL    HW158241   3.130   9.956   9.771  0.1162 -0.7321 -0.6631
19221SOL    HW258242   2.991   9.914   9.812 -0.4892  1.9847  0.3341
19222SOL     OW58243   8.685   9.600   5.720  0.2245  0.4853  0.7369
19222SOL    HW158244   8.600   9.567   5.750  0.3099 -1.4855 -0.9365
19222SOL    HW258245   8.667   9.687   5.685 -0.9534  0.4322  1.1905
19223SOL     OW58246   3.220   5.956   9.788  0.0561 -0.1528  0.2235
19223SOL    HW158247   3.211   6.035   9.734  0.3985 -0.3306 -0.1079
19223SOL    HW258248   3.235   5.989   9.876 -2.6008  0.1483  0.6290
19224SOL     OW58249   9.843   7.998   4.882 -0.1582  0.0603 -0.2236
19224SOL    HW158250   9.845   7.911   4.921 -0.0968  0.3589  0.4673
19224SOL    HW258251   9.876   8.056   4.951 -0.0410  0.6090 -0.7298
19225SOL     OW58252   0.895   9.132   6.564 -0.7000  0.3725 -0.7519
19225SOL    HW158253   0.804   9.135   6.593 -0.7004  0.2562 -0.7391
19225SOL    HW258254   0.936   9.067   6.621 -0.0071  2.1695  0.8892
19226SOL     OW58255   6.539   4.641   5.358  0.0831  0.1130 -0.4342
19226SOL    HW158256   6.469   4.583   5.388  0.5031 -0.0397  0.2650
19226SOL    HW258257   6.524   4.723   5.405  0.3872  0.0759 -0.2735
19227SOL     OW58258   0.799   7.817   7.523  0.3564 -0.3347  0.0626
19227SOL    HW158259   0.710   7.780   7.521 -0.3322  1.2205  0.3728
19227SOL    HW258260   0.809   7.858   7.438 -0.1665  1.5321  0.8543
19228SOL     OW58261   2.239   2.586   9.466 -0.1412  0.1490 -0.1808
19228SOL    HW158262   2.179   2.648   9.507 -0.2291  1.4476 -2.1310
19228SOL    HW258263   2.325   2.629   9.470  0.0248 -0.1444 -0.4648
19229SOL     OW58264   9.211   0.142   3.340 -0.0880  0.1323  0.0075
19229SOL    HW158265   9.274   0.189   3.395  1.8734  0.5397 -2.4502
19229SOL    HW258266   9.166   0.211   3.292  1.6536 -0.3222 -2.4139
19230SOL     OW58267   3.171   5.089   7.869 -0.2319 -0.9381  0.0992
19230SOL    HW158268   3.134   5.164   7.822  2.3291  0.3888  0.0301
19230SOL    HW258269   3.240   5.057   7.811 -0.6177 -2.7617  0.5910
19231SOL     OW58270   4.595   6.512   5.956  0.5079 -0.0298 -0.2327
19231SOL    HW158271   4.547   6.557   5.887 -0.3572 -0.6272 -0.0316
19231SOL    HW258272   4.528   6.465   6.005  1.0978  0.4218  1.0493
19232SOL     OW58273   9.197   5.819   2.722  0.5022 -0.1317  0.5466
19232SOL    HW158274   9.216   5.872   2.645 -0.0243 -0.0617  0.4646
19232SOL    HW258275   9.236   5.734   2.703 -0.2605 -0.3476 -0.1191
19233SOL     OW58276   7.830   7.230   1.441 -0.6678 -0.1799  0.5116
19233SOL    HW158277   7.798   7.187   1.520 -0.2734 -1.0281  0.2145
19233SOL    HW258278   7.772   7.199   1.372 -1.6334  1.3232  0.6112
19234SOL     OW58279   3.799   6.173   0.296  0.8168  0.4763  0.3446
19234SOL    HW158280   3.745   6.249   0.275 -0.4096 -0.4074  0.2561
19234SOL    HW258281   3.742   6.114   0.344  1.8206 -0.3021  0.6249
19235SOL     OW58282   9.020   9.463   3.784  0.2499 -0.4112  0.5057
19235SOL    HW158283   9.032   9.525   3.712  3.3418 -1.1619  0.2719
19235SOL    HW258284   8.989   9.517   3.857 -0.9010  0.7021 -0.7420
19236SOL     OW58285   3.263   7.003  10.001 -0.0388  0.6449  0.0702
19236SOL    HW158286   3.175   6.996  10.037 -0.2065  0.8303 -0.2975
19236SOL    HW258287   3.253   6.982   9.908  0.4420 -0.1516  0.1891
19237SOL     OW58288   6.542   5.432   8.641  0.3451  0.3155 -0.1739
19237SOL    HW158289   6.465   5.480   8.672  0.8336  1.8862 -1.2595
19237SOL    HW258290   6.564   5.473   8.557  1.5283 -1.0503 -0.5835
19238SOL     OW58291   3.980   8.509   0.309 -0.1604 -0.0854  0.9694
19238SOL    HW158292   3.978   8.602   0.330 -2.9371 -0.2578  1.8673
19238SOL    HW258293   3.911   8.470   0.362 -0.5577 -2.3119 -0.9676
19239SOL     OW58294   4.528   5.693   6.981  0.1780 -0.1687  0.2644
19239SOL    HW158295   4.442   5.662   6.951 -0.2207 -0.4086  1.5797
19239SOL    HW258296   4.508   5.756   7.050  1.0500 -0.6393  0.9756
19240SOL     OW58297   0.445   4.134   3.533 -0.1516  0.5020  0.2313
19240SOL    HW158298   0.523   4.083   3.514 -0.6713 -0.4593  0.5848
19240SOL    HW258299   0.446   4.204   3.469  1.5590  1.1483  0.9160
19241SOL     OW58300   2.552   9.490   0.772  0.1520 -0.3728  0.1063
19241SOL    HW158301   2.568   9.569   0.721 -0.0774 -0.1197  0.4241
19241SOL    HW258302   2.571   9.515   0.863  1.3124 -1.0314  0.0616
19242SOL     OW58303   6.406   8.690   9.695  0.4783  0.0204 -0.2335
19242SOL    HW158304   6.319   8.681   9.657  0.5102 -0.4318 -0.2037
19242SOL    HW258305   6.461   8.722   9.624  0.5698 -0.9524 -0.6121
19243SOL     OW58306   7.563   5.169   6.074 -0.0564  0.2665  0.1746
19243SOL    HW158307   7.528   5.205   6.155  0.5181  0.5186  0.3158
19243SOL    HW258308   7.633   5.110   6.102 -0.3565 -0.2332 -0.1036
19244SOL     OW58309   3.628   7.614   8.705  0.3830 -0.0897 -0.1075
19244SOL    HW158310   3.685   7.664   8.647  0.1282  0.8412  0.4245
19244SOL    HW258311   3.577   7.680   8.751 -0.0241 -0.8503  0.5551
19245SOL     OW58312   9.715   7.791   6.700  0.0458 -0.2944  0.2396
19245SOL    HW158313   9.667   7.729   6.644  0.4422  0.3468 -0.8385
19245SOL    HW258314   9.670   7.788   6.784 -1.0507 -0.7016 -0.3536
19246SOL     OW58315   6.327   8.689   5.940 -0.2107 -0.5812  0.0554
19246SOL    HW158316   6.275   8.616   5.906 -1.2235  0.1363  0.0043
19246SOL    HW258317   6.322   8.680   6.035 -2.5214  0.8313  0.1453
19247SOL     OW58318   6.043   8.826   5.679 -0.3912  0.1505 -0.8441
19247SOL    HW158319   6.088   8.889   5.622  0.2556  0.0524 -0.4451
19247SOL    HW258320   6.087   8.743   5.663  0.8337  0.4177  0.9175
19248SOL     OW58321   3.732   8.681   5.775 -0.4581  0.1357 -0.1389
19248SOL    HW158322   3.674   8.693   5.851  0.5413 -0.4199  0.7350
19248SOL    HW258323   3.674   8.691   5.700 -1.6772 -0.2580  0.7053
19249SOL     OW58324   0.834   5.247   7.883  0.2973  0.1931 -0.3536
19249SOL    HW158325   0.923   5.254   7.917  0.3241  1.4422 -0.6455
19249SOL    HW258326   0.843   5.194   7.804  1.0168  1.4780 -1.1637
19250SOL     OW58327   7.160   5.375   0.516  0.0819 -0.6646 -0.2355
19250SOL    HW158328   7.154   5.449   0.455  0.1069 -0.6515 -0.2223
19250SOL    HW258329   7.114   5.406   0.594  2.4577  0.4149  0.8212
19251SOL     OW58330   3.455   4.960   0.540 -0.2977  0.4579 -0.6738
19251SOL    HW158331   3.362   4.972   0.557 -0.4228 -0.3880 -0.7246
19251SOL    HW258332   3.468   4.992   0.451 -0.2784  1.7760 -0.2271
19252SOL     OW58333   6.495   8.172   1.195  0.1987  0.6618  0.0302
19252SOL    HW158334   6.541   8.238   1.246 -1.1172  0.0378  2.1402
19252SOL    HW258335   6.490   8.096   1.253 -0.5307 -0.4241 -1.3921
19253SOL     OW58336   7.669   9.818   1.687  0.2052 -0.0870 -0.1796
19253SOL    HW158337   7.644   9.841   1.777  1.4057  0.0620  0.1398
19253SOL    HW258338   7.608   9.866   1.632 -0.1376  0.3298  0.5464
19254SOL     OW58339   1.267   2.494   8.773 -0.4511 -0.3807  0.0706
19254SOL    HW158340   1.261   2.406   8.810 -0.1298 -1.0497 -1.4002
19254SOL    HW258341   1.176   2.526   8.773 -0.3238  0.1765  2.5744
19255SOL     OW58342   9.600   6.954   8.580  0.3521  0.1262  0.4219
19255SOL    HW158343   9.521   6.982   8.626  0.1484 -1.3330  1.0211
19255SOL    HW258344   9.669   7.013   8.610 -0.0813  0.0844  1.5202
19256SOL     OW58345   9.889   6.078   8.061 -0.5740 -0.2708 -0.2789
19256SOL    HW158346   9.967   6.064   8.008  0.0237 -0.9115  0.7191
19256SOL    HW258347   9.847   5.992   8.065 -0.5016 -0.2857  0.4199
19257SOL     OW58348   3.782   0.572   2.335  0.1778  0.1304  0.4129
19257SOL    HW158349   3.747   0.492   2.375  1.0956 -0.4241  0.1188
19257SOL    HW258350   3.767   0.639   2.401 -2.3163  0.1533 -0.0460
19258SOL     OW58351   0.445   9.983   2.806  1.2689  0.4475  0.2913
19258SOL    HW158352   0.460   9.888   2.809  1.8428  0.4474 -1.4632
19258SOL    HW258353   0.507  10.019   2.870  0.9620 -0.3457  1.0640
19259SOL     OW58354   5.183   5.780   0.643 -0.5212 -0.0069  0.4915
19259SOL    HW158355   5.235   5.844   0.692 -0.1290  0.1952 -0.1714
19259SOL    HW258356   5.097   5.821   0.634 -0.3285  0.3564  0.2381
19260SOL     OW58357   6.192   9.014   7.197  0.4552  0.2011 -0.2620
19260SOL    HW158358   6.097   9.025   7.199  0.3230 -0.8565  1.4525
19260SOL    HW258359   6.206   8.944   7.134  0.2729  1.4267 -1.7302
19261SOL     OW58360   4.228   8.387   4.623  0.3647  0.7316  0.5067
19261SOL    HW158361   4.265   8.476   4.631  2.7019  0.1056 -1.7588
19261SOL    HW258362   4.279   8.335   4.684 -1.0492  0.8778  1.8801
19262SOL     OW58363   3.575   2.701   7.266  0.5373 -0.3933  0.5068
19262SOL    HW158364   3.603   2.681   7.355  1.8773 -1.0111 -0.0222
19262SOL    HW258365   3.607   2.790   7.250 -1.6023  0.6000  1.3488
19263SOL     OW58366   5.876   0.170   1.060  0.1271  0.2296 -0.7924
19263SOL    HW158367   5.791   0.166   1.105 -0.0911 -1.1058 -1.2758
19263SOL    HW258368   5.889   0.263   1.042 -1.0177  0.5048 -0.3038
19264SOL     OW58369   8.711   1.750   5.089 -0.4595 -0.0862  0.2248
19264SOL    HW158370   8.731   1.661   5.117  1.6812  0.4421  0.5519
19264SOL    HW258371   8.689   1.741   4.997 -1.5145 -1.0929  0.5536
19265SOL     OW58372   4.460   3.882   6.486 -0.1311  0.5062 -0.0177
19265SOL    HW158373   4.459   3.821   6.560  1.0528  2.0459  1.3618
19265SOL    HW258374   4.369   3.886   6.457 -0.3328 -1.4435  0.2086
19266SOL     OW58375   9.046   2.462   7.607  0.6027  0.8435 -0.4356
19266SOL    HW158376   9.127   2.425   7.572  1.4131  0.7884  1.4137
19266SOL    HW258377   9.000   2.496   7.529  1.7589 -0.2904 -1.6704
19267SOL     OW58378   5.911   2.191   6.011  0.6768 -0.0556 -0.0161
19267SOL    HW158379   5.855   2.119   6.040  0.5859 -0.3737 -0.9584
19267SOL    HW258380   5.963   2.213   6.089 -0.1621 -0.3097  0.6294
19268SOL     OW58381   4.264   8.978   9.305 -0.3288 -0.5587 -0.2443
19268SOL    HW158382   4.226   9.029   9.234 -1.6065 -0.8911  0.1544
19268SOL    HW258383   4.235   9.022   9.385  1.5392  0.1285  0.1042
19269SOL     OW58384   1.415   5.770   4.135  0.5724 -0.0041 -0.1576
19269SOL    HW158385   1.408   5.721   4.053  1.2162  0.2583 -0.3788
19269SOL    HW258386   1.328   5.767   4.173  0.7506 -1.9186  0.1717
19270SOL     OW58387   3.911   8.737   6.146 -0.1090  0.1796 -0.0834
19270SOL    HW158388   4.005   8.727   6.137 -0.0225 -0.1055  0.9849
19270SOL    HW258389   3.894   8.721   6.239 -1.1504  0.6774 -0.1730
19271SOL     OW58390   5.472   3.539   4.291  0.0912  0.5131 -0.0307
19271SOL    HW158391   5.553   3.488   4.282  0.1251  0.7255 -1.0529
19271SOL    HW258392   5.415   3.484   4.344  0.3277 -0.3544 -0.6470
19272SOL     OW58393   4.921   1.531   1.257  0.8115 -0.3034  0.0436
19272SOL    HW158394   5.012   1.557   1.243  1.2877 -1.7045  0.3336
19272SOL    HW258395   4.905   1.466   1.188 -0.3090  0.6565 -0.6401
19273SOL     OW58396   6.428   8.405   2.662  0.9083 -0.0617 -0.0523
19273SOL    HW158397   6.357   8.454   2.703  0.2228 -1.1463  0.1071
19273SOL    HW258398   6.502   8.466   2.661 -0.8794  2.3717 -3.4139
19274SOL     OW58399   4.458   6.577   8.432  0.0832 -0.0570 -0.0456
19274SOL    HW158400   4.477   6.607   8.521 -1.2136 -0.8982  0.5478
19274SOL    HW258401   4.527   6.616   8.378  0.5438  0.9605  1.2286
19275SOL     OW58402   3.991   4.677   7.759 -0.4680 -0.0721 -0.2512
19275SOL    HW158403   3.899   4.701   7.769 -0.4379 -0.2506  0.5624
19275SOL    HW258404   3.993   4.583   7.774 -0.2841 -0.2482 -1.2819
19276SOL     OW58405   6.970   3.334   6.470  0.5906 -0.4479  0.1630
19276SOL    HW158406   6.955   3.356   6.379 -0.2760  0.4661  0.5058
19276SOL    HW258407   6.912   3.393   6.519  0.7073 -1.2229  1.2788
19277SOL     OW58408   7.883   9.801   2.445 -0.2315  0.6682  0.3882
19277SOL    HW158409   7.882   9.845   2.530  1.4127  1.7762 -0.1050
19277SOL    HW258410   7.809   9.837   2.397 -1.2225 -0.0307  1.3579
19278SOL     OW58411   1.607   9.279   6.533  0.1400 -0.0929 -0.1268
19278SOL    HW158412   1.516   9.294   6.506 -0.7024 -2.0603  1.4020
19278SOL    HW258413   1.604   9.201   6.588  2.2894  1.5712  2.6193
19279SOL     OW58414   1.297   6.166   9.467  0.2839 -0.0660 -0.1479
19279SOL    HW158415   1.306   6.205   9.554 -2.1069 -1.5177  0.8484
19279SOL    HW258416   1.368   6.205   9.416  0.3347  2.6331  1.7630
19280SOL     OW58417   2.535   0.152   3.642  0.2198 -0.0333  0.0415
19280SOL    HW158418   2.621   0.187   3.617 -0.5183  0.8141 -1.4150
19280SOL    HW258419   2.490   0.226   3.683 -0.1886 -0.1912 -0.1158
19281SOL     OW58420   4.891   6.324   7.966  0.2294 -0.3193 -0.2143
19281SOL    HW158421   4.949   6.270   7.912 -0.7760 -0.0352 -1.6103
19281SOL    HW258422   4.886   6.408   7.921 -0.4027  0.0274  0.4743
19282SOL     OW58423   3.133   8.829   7.439  0.0993  0.3247 -0.1905
19282SOL    HW158424   3.166   8.880   7.365  0.1713 -0.1988 -0.5290
19282SOL    HW258425   3.137   8.889   7.513  3.2510 -0.1205  0.1522
19283SOL     OW58426   3.796   1.762   1.206 -0.3218  1.1666  0.1398
19283SOL    HW158427   3.891   1.771   1.201 -0.2522  0.3857 -0.0049
19283SOL    HW258428   3.770   1.728   1.121 -0.8927  2.5821 -0.2844
19284SOL     OW58429   1.787   5.170   9.948 -0.3072 -0.5248  0.0535
19284SOL    HW158430   1.870   5.211   9.923 -0.2145 -0.6803  0.1049
19284SOL    HW258431   1.794   5.080   9.917 -0.3452 -0.6133  0.2966
19285SOL     OW58432   6.068   8.553   9.970  0.4906 -0.1800 -0.0457
19285SOL    HW158433   6.033   8.583  10.055  1.7698 -0.6529  0.6713
19285SOL    HW258434   5.990   8.525   9.921 -0.1856 -0.9710  1.3980
19286SOL     OW58435   8.767   4.324   2.689 -0.5197 -0.4774 -0.3252
19286SOL    HW158436   8.796   4.392   2.627 -0.4809 -0.4080 -0.2320
19286SOL    HW258437   8.763   4.244   2.637  0.4992 -0.6321 -0.1878
19287SOL     OW58438   9.031   1.161   0.334  0.3652 -0.3055  0.4476
19287SOL    HW158439   9.093   1.215   0.383  0.2883  1.6040 -1.3912
19287SOL    HW258440   8.953   1.216   0.326 -1.0644 -2.1155  1.4944
19288SOL     OW58441   4.521   4.076   4.621  0.4207 -0.0247 -0.6382
19288SOL    HW158442   4.529   4.169   4.599  0.0348  0.4159  0.9469
19288SOL    HW258443   4.592   4.059   4.682 -0.2116 -0.4572  0.0024
19289SOL     OW58444   0.085   5.397   2.620  0.3575 -0.0664 -0.2503
19289SOL    HW158445   0.037   5.469   2.579  0.7289  0.9849  1.0728
19289SOL    HW258446   0.147   5.369   2.553 -0.0545  0.5959 -0.9288
19290SOL     OW58447   5.517   8.994   2.733 -0.3050  0.4285  0.4914
19290SOL    HW158448   5.535   9.088   2.725 -1.0165  0.4961 -0.4685
19290SOL    HW258449   5.462   8.974   2.658 -0.4625 -0.6914  0.8928
19291SOL     OW58450   5.268   7.795   2.921  0.2407 -0.2945  0.2613
19291SOL    HW158451   5.257   7.843   3.003  0.4631  0.9737 -0.4290
19291SOL    HW258452   5.362   7.801   2.903 -0.0886  1.2586 -1.1289
19292SOL     OW58453   5.610   4.261   3.711 -0.1462 -0.2189 -0.5580
19292SOL    HW158454   5.579   4.341   3.669 -1.7329 -0.4675  0.0586
19292SOL    HW258455   5.704   4.275   3.723 -0.5310  1.9374  0.3679
19293SOL     OW58456   1.282   7.307   2.349  0.2773  0.0152  0.2653
19293SOL    HW158457   1.277   7.296   2.254 -2.2886 -1.0596  0.4341
19293SOL    HW258458   1.257   7.398   2.364 -0.0716 -0.0232 -0.0608
19294SOL     OW58459   2.774   0.972   2.983 -0.2932 -0.0017  0.0048
19294SOL    HW158460   2.794   0.887   2.943  0.4721  0.1678  0.0069
19294SOL    HW258461   2.679   0.977   2.983 -0.3419 -0.7994 -0.1287
19295SOL     OW58462   5.081   1.333   3.295  0.2712  0.8724  0.6477
19295SOL    HW158463   4.994   1.362   3.322 -0.5836 -1.3617  0.5237
19295SOL    HW258464   5.073   1.238   3.286  2.6803  0.6230  0.4203
19296SOL     OW58465   8.953   2.845   5.471  0.4821  0.0033  0.2452
19296SOL    HW158466   8.980   2.791   5.545  1.3971 -0.9879 -0.7737
19296SOL    HW258467   8.991   2.802   5.395 -0.6130  0.8781 -0.8373
19297SOL     OW58468   5.908   9.309   4.762  0.1848  0.0955 -0.9017
19297SOL    HW158469   6.002   9.319   4.750  0.1619 -0.3081 -1.4359
19297SOL    HW258470   5.869   9.361   4.692 -0.0352  1.6591  0.3120
19298SOL     OW58471   9.006   5.287   9.895 -0.2348  0.0664  0.2163
19298SOL    HW158472   9.062   5.363   9.912 -0.0052  0.1551 -0.9069
19298SOL    HW258473   8.995   5.285   9.800 -1.8271 -0.1816  0.3793
19299SOL     OW58474   8.019   4.979   0.268  0.7034 -0.3028 -0.1029
19299SOL    HW158475   8.042   4.895   0.227 -0.7348 -1.1138  0.6634
19299SOL    HW258476   8.064   4.977   0.352  1.0683 -0.0701 -0.2888
19300SOL     OW58477   2.951   7.660   1.599  0.1611 -0.7615  0.0151
19300SOL    HW158478   2.904   7.600   1.543 -1.8743 -0.1548  0.9799
19300SOL    HW258479   2.992   7.604   1.665  0.5511 -1.2724 -0.6470
19301SOL     OW58480   6.928   1.888   2.838  0.2194  0.0088 -0.7793
19301SOL    HW158481   6.949   1.906   2.746  2.1020  3.0139  0.0806
19301SOL    HW258482   6.851   1.942   2.855 -0.6166 -1.1570 -0.7178
19302SOL     OW58483   7.263   2.544   8.407  0.2452  0.9039  0.2009
19302SOL    HW158484   7.350   2.578   8.385  0.6266  0.6711  1.2643
19302SOL    HW258485   7.204   2.589   8.347  1.3078 -0.6211 -2.1469
19303SOL     OW58486   5.643   1.834   7.498  0.1239 -0.5703 -0.4679
19303SOL    HW158487   5.603   1.858   7.414 -0.0237 -0.5852 -0.4018
19303SOL    HW258488   5.730   1.803   7.474  0.5733  0.6583 -0.5023
19304SOL     OW58489   0.565   1.472   7.327  0.1052  0.6117 -0.4787
19304SOL    HW158490   0.598   1.384   7.310  1.6319  1.3559 -1.6197
19304SOL    HW258491   0.583   1.521   7.246  0.0430  2.1840  0.4117
19305SOL     OW58492   4.289   5.651   7.348 -0.2278  0.3724  0.0027
19305SOL    HW158493   4.300   5.657   7.443 -2.2164  1.0648  0.2267
19305SOL    HW258494   4.238   5.728   7.324 -0.5577 -0.2768 -1.5124
19306SOL     OW58495   2.511   4.963   4.941  0.2322 -0.8898  0.6987
19306SOL    HW158496   2.480   4.885   4.894  0.1837 -1.1778  1.1993
19306SOL    HW258497   2.554   5.016   4.874 -1.4315 -0.4217 -0.0491
19307SOL     OW58498   7.448   6.591   4.481  0.4826  0.7941 -0.6370
19307SOL    HW158499   7.538   6.564   4.460  1.1198  2.8656 -0.7772
19307SOL    HW258500   7.459   6.670   4.534 -1.2379 -0.1849  1.3176
19308SOL     OW58501   1.936   4.040   0.211 -0.2519  0.1455 -0.5962
19308SOL    HW158502   1.873   4.025   0.141 -0.2672  0.2124 -0.5971
19308SOL    HW258503   2.009   4.086   0.169 -1.0596  1.8666 -0.2173
19309SOL     OW58504   5.129   4.019   8.535  0.2767 -0.2983  0.1064
19309SOL    HW158505   5.128   4.018   8.631  3.9052 -0.1972  0.3029
19309SOL    HW258506   5.154   3.930   8.511 -0.8467 -0.3872 -0.7895
19310SOL     OW58507   9.864   9.247   9.101  0.3993  0.1368 -0.6575
19310SOL    HW158508   9.945   9.199   9.084  0.7046  0.1879  0.5935
19310SOL    HW258509   9.848   9.235   9.194 -1.8881 -1.1677 -1.1527
19311SOL     OW58510   5.370   3.917   0.040 -0.2120 -0.0938  0.4480
19311SOL    HW158511   5.324   3.957  -0.033  0.1823  0.8008  0.6812
19311SOL    HW258512   5.346   3.969   0.116  0.7481  0.0540  0.6631
19312SOL     OW58513   3.898   2.774   7.107 -0.8898  0.0018  0.1999
19312SOL    HW158514   3.978   2.792   7.157 -1.1681  1.2063  0.2432
19312SOL    HW258515   3.911   2.685   7.072  0.1028 -0.1406  0.8799
19313SOL     OW58516   2.217   0.959   9.025 -0.4166  0.0775 -0.4975
19313SOL    HW158517   2.205   1.031   9.088  2.5629  1.5638 -1.4454
19313SOL    HW258518   2.191   0.881   9.073  0.7071  1.2615  2.2642
19314SOL     OW58519   3.719   1.008   7.953  0.3314 -0.2873 -0.0246
19314SOL    HW158520   3.750   0.930   7.908 -0.0615  0.1186 -1.0391
19314SOL    HW258521   3.798   1.055   7.978  0.5721 -0.1275 -1.0271
19315SOL     OW58522   5.795   0.629   6.051  0.0244 -0.2816 -0.2080
19315SOL    HW158523   5.742   0.667   5.981  0.8602 -0.2494 -0.8303
19315SOL    HW258524   5.745   0.647   6.131 -0.6519  0.1995 -0.7272
19316SOL     OW58525   5.867   0.308   0.589 -0.4230 -0.7708  0.5559
19316SOL    HW158526   5.917   0.253   0.528  1.2676  1.4738 -0.2232
19316SOL    HW258527   5.819   0.246   0.644  1.7146 -3.0259  0.0418
19317SOL     OW58528   8.570   8.614   1.037 -0.2071  0.1981 -0.5037
19317SOL    HW158529   8.515   8.551   1.083  1.0128 -0.5954 -0.0626
19317SOL    HW258530   8.642   8.631   1.098  0.5416  0.4457 -1.4274
19318SOL     OW58531   6.304   5.395   6.765  0.0148 -0.8549 -0.1789
19318SOL    HW158532   6.279   5.423   6.854  1.3863  3.5350 -0.9091
19318SOL    HW258533   6.222   5.399   6.715 -0.0669  0.9873  0.0392
19319SOL     OW58534   3.807   4.686   2.812 -0.7368 -0.0455 -0.1130
19319SOL    HW158535   3.882   4.735   2.780  1.1783 -2.6551  0.0931
19319SOL    HW258536   3.743   4.753   2.835  1.3627  2.2746 -0.6079
19320SOL     OW58537   3.903   1.637   3.306  0.5305  0.0408  0.1698
19320SOL    HW158538   3.968   1.690   3.351  0.5833 -0.9926  1.3731
19320SOL    HW258539   3.824   1.643   3.361  0.1437 -0.0868 -0.3606
19321SOL     OW58540   1.474   0.403   0.152  0.3915  0.0896  0.5850
19321SOL    HW158541   1.518   0.481   0.119  0.5346  0.0734  0.7392
19321SOL    HW258542   1.510   0.390   0.240 -0.0189  0.1528  0.7618
19322SOL     OW58543   5.732   4.204   4.777 -0.1428  0.1491  0.2089
19322SOL    HW158544   5.819   4.166   4.768 -0.7690 -1.9385  2.0756
19322SOL    HW258545   5.672   4.129   4.767 -1.6096  1.1609  1.0136
19323SOL     OW58546   7.196   4.825   7.918  0.5344 -0.1106  0.1436
19323SOL    HW158547   7.153   4.907   7.941 -0.4799 -0.0498 -1.7423
19323SOL    HW258548   7.225   4.837   7.828  0.3699 -1.8049 -0.1749
19324SOL     OW58549   4.612   3.272   3.589 -0.2749 -0.1265  0.6667
19324SOL    HW158550   4.685   3.282   3.651 -1.2832 -0.5946  1.9882
19324SOL    HW258551   4.629   3.337   3.521  2.4349 -1.5734 -0.1712
19325SOL     OW58552   3.698   9.700   8.912 -0.4322  0.1224 -0.2654
19325SOL    HW158553   3.661   9.615   8.889 -1.1848 -0.0045  1.3253
19325SOL    HW258554   3.664   9.759   8.844 -0.7954 -0.6350 -0.7608
19326SOL     OW58555   1.497   9.084   2.232 -0.3925  0.0815  0.3266
19326SOL    HW158556   1.533   9.042   2.154  0.2771  1.0480  0.0964
19326SOL    HW258557   1.571   9.133   2.269 -1.1611  1.0824  0.5594
19327SOL     OW58558   0.627   8.338   1.266 -0.4939 -0.5242  0.3389
19327SOL    HW158559   0.601   8.429   1.278  0.8639  0.0871 -1.0060
19327SOL    HW258560   0.694   8.323   1.333 -0.8493 -0.5862  0.6788
19328SOL     OW58561   2.198   9.502   1.911 -0.0582 -0.1664  0.3196
19328SOL    HW158562   2.190   9.525   1.818  1.2927  1.3934  0.5418
19328SOL    HW258563   2.208   9.586   1.956  1.5439 -0.9736  1.5977
19329SOL     OW58564   9.439   6.086   2.572 -0.6100  0.5657  0.5110
19329SOL    HW158565   9.346   6.092   2.551 -0.3089 -1.2185 -1.7970
19329SOL    HW258566   9.479   6.053   2.492  2.0547  1.3487  1.4147
19330SOL     OW58567   9.896   6.842   3.678 -0.1172 -0.1782  0.0620
19330SOL    HW158568   9.927   6.928   3.651  0.3916 -0.3383  0.1364
19330SOL    HW258569   9.807   6.858   3.710 -0.2154  0.2350 -0.4071
19331SOL     OW58570   8.238   4.005   9.958  0.3729 -0.1257 -0.5494
19331SOL    HW158571   8.282   4.021  10.041 -3.2657 -0.4455  1.6327
19331SOL    HW258572   8.262   3.915   9.936 -0.0724 -0.7361  1.2475
19332SOL     OW58573   5.856   7.208   9.908  0.5572 -0.8433  0.4531
19332SOL    HW158574   5.795   7.138   9.933  0.9533 -0.9475  1.1591
19332SOL    HW258575   5.801   7.276   9.870 -0.0915 -0.6552  1.6917
19333SOL     OW58576   6.342   2.667   9.946 -0.9176 -0.5472 -0.0238
19333SOL    HW158577   6.256   2.691   9.913 -0.4164  1.1371 -0.2342
19333SOL    HW258578   6.398   2.667   9.868 -0.3829  0.2230  0.3414
19334SOL     OW58579   8.556   7.617   1.509 -0.8548  0.1497  0.1526
19334SOL    HW158580   8.619   7.655   1.570  0.1333 -0.2950 -0.5591
19334SOL    HW258581   8.563   7.671   1.431 -1.6843  0.3597  0.2209
19335SOL     OW58582   4.624   7.248   3.398 -0.5509 -0.1325 -0.2845
19335SOL    HW158583   4.612   7.214   3.487  0.8770 -2.5998 -0.9331
19335SOL    HW258584   4.542   7.294   3.378 -1.2793 -0.3786  1.9320
19336SOL     OW58585   5.999   7.359   1.874 -0.1349 -0.0318  0.3492
19336SOL    HW158586   5.974   7.432   1.930 -1.5179  0.1655 -0.4737
19336SOL    HW258587   5.930   7.354   1.808  1.1403 -0.5851 -1.0304
19337SOL     OW58588   8.912   9.794   2.952 -0.3308  0.2239 -0.0940
19337SOL    HW158589   8.846   9.798   2.882 -1.2065 -0.8016  0.6371
19337SOL    HW258590   8.959   9.712   2.936  0.6770  0.8576 -0.4984
19338SOL     OW58591   7.268   9.804   5.443 -0.2555 -0.2271  0.0305
19338SOL    HW158592   7.186   9.814   5.491  0.3832 -0.0294  1.1196
19338SOL    HW258593   7.336   9.821   5.508  0.6880 -1.5970 -0.5420
19339SOL     OW58594   2.525   5.259   2.720  0.7779  0.2735 -0.2571
19339SOL    HW158595   2.578   5.254   2.799  0.4470 -0.7594 -0.0835
19339SOL    HW258596   2.519   5.352   2.701  1.0255  0.5228  0.8287
19340SOL     OW58597   6.158   5.245   9.114 -0.2685  0.5272  0.5872
19340SOL    HW158598   6.202   5.160   9.106 -1.5377 -0.2095  1.0246
19340SOL    HW258599   6.147   5.258   9.208 -0.7054  0.8350  0.4985
19341SOL     OW58600   5.272   3.477   8.236 -0.7184 -0.1962  0.3252
19341SOL    HW158601   5.300   3.492   8.146 -0.7387 -0.8119  0.2159
19341SOL    HW258602   5.211   3.404   8.231  2.4471 -3.1664  1.3115
19342SOL     OW58603   5.393   9.185   6.912 -0.5804  0.5315 -0.3620
19342SOL    HW158604   5.334   9.243   6.864 -1.2404 -0.5834 -0.9327
19342SOL    HW258605   5.358   9.098   6.898  0.0858  0.0242  0.9258
19343SOL     OW58606   8.108   7.380   9.745 -0.5653  0.5762 -0.0597
19343SOL    HW158607   8.072   7.306   9.695 -1.6039  1.1932 -0.2477
19343SOL    HW258608   8.031   7.424   9.782 -0.0514  2.1407 -0.7603
19344SOL     OW58609   8.334   2.696   4.629 -0.0059 -0.7727  0.3246
19344SOL    HW158610   8.283   2.764   4.585 -0.4763 -1.5972 -0.4361
19344SOL    HW258611   8.298   2.694   4.718 -1.8525 -1.8164 -0.3812
19345SOL     OW58612   0.965   3.448   6.673 -0.3336 -1.2051  0.3305
19345SOL    HW158613   0.870   3.462   6.678 -0.4682 -2.0140  0.1956
19345SOL    HW258614   1.001   3.532   6.644 -1.0421 -0.9880  0.0687
19346SOL     OW58615   5.428   2.223   6.885  0.2009  0.4917  0.2608
19346SOL    HW158616   5.434   2.181   6.971 -2.1978 -1.8661 -0.5795
19346SOL    HW258617   5.359   2.288   6.895  0.9195  1.2364  0.4562
19347SOL     OW58618   4.162   9.437   5.059 -0.6665  0.1228  0.2326
19347SOL    HW158619   4.248   9.449   5.099 -1.2289 -0.1523  1.5588
19347SOL    HW258620   4.181   9.395   4.975  0.4183 -1.0735  1.0345
19348SOL     OW58621   2.082   7.580   9.315 -0.0479 -0.0746 -0.5838
19348SOL    HW158622   2.091   7.492   9.352 -0.3700  0.5199  0.9634
19348SOL    HW258623   2.024   7.626   9.375  0.8728  1.4929 -0.8412
19349SOL     OW58624   0.633   3.406   4.294 -1.0693 -0.4771 -0.0175
19349SOL    HW158625   0.600   3.365   4.374 -0.3779 -2.2839 -0.6049
19349SOL    HW258626   0.557   3.448   4.255 -1.4595  0.2436  1.4591
19350SOL     OW58627   2.722   5.306   2.252 -0.4965 -0.1616  0.5120
19350SOL    HW158628   2.783   5.241   2.216 -0.7093  0.5352 -1.2018
19350SOL    HW258629   2.739   5.385   2.201 -2.1311  0.3393  0.6860
19351SOL     OW58630   1.921   4.410   6.294 -0.2934 -0.0474  0.0894
19351SOL    HW158631   1.853   4.459   6.341 -1.0035 -1.8305  1.0106
19351SOL    HW258632   1.953   4.472   6.228 -2.1120  1.1822  0.2695
19352SOL     OW58633   3.315   4.221   1.158  0.1959 -0.7660 -0.4535
19352SOL    HW158634   3.349   4.307   1.186  3.6407 -1.8801 -0.6778
19352SOL    HW258635   3.310   4.170   1.239  1.3302 -1.2660 -0.6760
19353SOL     OW58636   4.027   4.665   0.261 -0.4650  0.5184 -0.3558
19353SOL    HW158637   4.093   4.598   0.281  1.2910  1.9462 -1.0365
19353SOL    HW258638   4.031   4.725   0.335 -1.4316  0.3042 -0.1302
19354SOL     OW58639   8.903   5.399   3.425  0.1297  0.0385  0.2569
19354SOL    HW158640   8.885   5.331   3.360 -2.1656 -2.4736  3.2050
19354SOL    HW258641   8.996   5.388   3.446 -0.1117 -1.9994  0.3963
19355SOL     OW58642   3.897   8.163   3.373 -0.0340  0.1538  0.1211
19355SOL    HW158643   3.815   8.168   3.323 -1.2204  0.0622  1.9243
19355SOL    HW258644   3.889   8.082   3.424  1.3872 -0.0772  0.0109
19356SOL     OW58645   8.042   1.581   2.711  0.3603  0.2280 -0.7648
19356SOL    HW158646   8.090   1.633   2.647 -0.3577  0.9357 -0.7388
19356SOL    HW258647   8.096   1.582   2.789 -0.8004  3.1871  0.1436
19357SOL     OW58648   7.545   2.630   9.639  0.5246  0.4433  0.1658
19357SOL    HW158649   7.568   2.628   9.732  1.3566  1.9106  0.0179
19357SOL    HW258650   7.452   2.652   9.638 -0.2063 -2.2821  0.6882
19358SOL     OW58651   5.725   9.019   0.499  0.2729 -0.1436 -0.2209
19358SOL    HW158652   5.762   9.107   0.492  1.2709 -0.5675 -0.3884
19358SOL    HW258653   5.738   8.995   0.590  0.1198 -0.1764 -0.2072
19359SOL     OW58654   0.441   8.095   0.340 -0.3578  0.0053  0.0511
19359SOL    HW158655   0.471   8.159   0.276 -0.0911  0.4866  0.6452
19359SOL    HW258656   0.484   8.013   0.315 -2.3709 -0.5294 -2.0172
19360SOL     OW58657   2.526   7.563   5.126 -0.0549 -0.0351  0.2416
19360SOL    HW158658   2.568   7.481   5.101  0.8366  0.2969  0.6125
19360SOL    HW258659   2.546   7.624   5.055 -1.4613 -0.3596 -0.4671
19361SOL     OW58660   4.421   6.928   7.881  0.3906  0.2991 -0.1475
19361SOL    HW158661   4.360   6.979   7.828 -1.9228  1.2744  3.1431
19361SOL    HW258662   4.500   6.982   7.884 -0.3788  1.4978 -0.4888
19362SOL     OW58663   4.294   4.772   8.421  0.3684 -0.5227  0.5402
19362SOL    HW158664   4.267   4.684   8.449  2.2719 -1.5004 -0.4872
19362SOL    HW258665   4.298   4.822   8.503 -1.8221 -1.0314  1.0179
19363SOL     OW58666   9.570   2.235   3.182  0.2980 -0.3134  0.0801
19363SOL    HW158667   9.505   2.221   3.112 -0.1571 -2.0215  0.7799
19363SOL    HW258668   9.542   2.175   3.251  1.9921 -0.2355  0.8576
19364SOL     OW58669   2.840   2.418   8.118  0.1386 -0.0094  0.2320
19364SOL    HW158670   2.894   2.432   8.196  1.8251  1.0658 -1.0452
19364SOL    HW258671   2.903   2.414   8.046 -1.4612  0.6207 -1.2725
19365SOL     OW58672   5.801   8.011   2.217 -0.0356 -0.0910  0.1172
19365SOL    HW158673   5.731   7.962   2.174 -1.4652  0.6175  1.5498
19365SOL    HW258674   5.835   8.069   2.149  1.6909 -2.9023 -1.6257
19366SOL     OW58675   1.764   7.506   4.248 -0.4206 -0.4030 -0.0604
19366SOL    HW158676   1.853   7.519   4.213  0.0595  0.1237  1.2856
19366SOL    HW258677   1.706   7.542   4.181  0.3570 -1.0061 -1.0852
19367SOL     OW58678   8.255   5.141   6.876  0.3132  0.2503 -0.0911
19367SOL    HW158679   8.321   5.129   6.808  1.1123  0.5976  0.6194
19367SOL    HW258680   8.288   5.212   6.930 -0.6112  0.3831  0.3211
19368SOL     OW58681   7.797   6.835   6.719 -0.2152  0.3066 -0.4170
19368SOL    HW158682   7.846   6.760   6.684  1.9210  0.9677  0.9438
19368SOL    HW258683   7.726   6.797   6.770 -0.6281 -0.7157 -1.7029
19369SOL     OW58684   4.649   7.982   5.923 -0.2652  0.0538 -0.0296
19369SOL    HW158685   4.613   8.048   5.864 -0.4484  0.3722  0.4375
19369SOL    HW258686   4.670   8.029   6.003 -2.4648 -0.8152  1.1332
19370SOL     OW58687   2.603   0.098   6.761  0.3398 -0.6367  0.2821
19370SOL    HW158688   2.688   0.076   6.724  0.0447 -0.7827 -0.3384
19370SOL    HW258689   2.622   0.162   6.829  0.8894 -0.1753 -0.2911
19371SOL     OW58690   1.496   6.472   1.645  0.2804  0.2470  0.1199
19371SOL    HW158691   1.590   6.467   1.662 -0.0669 -0.8320  2.0207
19371SOL    HW258692   1.487   6.447   1.553  1.7101 -1.8253  0.4616
19372SOL     OW58693   3.015   7.930   5.473  0.3870  0.3143  0.1447
19372SOL    HW158694   2.996   7.885   5.391  0.0129  0.3309  0.2207
19372SOL    HW258695   2.990   7.868   5.541  1.2508  0.0722  0.2475
19373SOL     OW58696   7.597   0.338   9.800  0.3590  0.4107  0.1972
19373SOL    HW158697   7.603   0.243   9.811 -1.2558  0.5411  3.3518
19373SOL    HW258698   7.685   0.370   9.818  0.5968 -0.4038  0.5328
19374SOL     OW58699   9.876   9.681   4.211  0.6147 -0.4038  0.7202
19374SOL    HW158700   9.960   9.728   4.214  1.2670 -1.5111  0.2362
19374SOL    HW258701   9.889   9.612   4.146 -1.2327  0.4287 -0.6506
19375SOL     OW58702   3.702   2.830   2.865 -0.1124  0.0618 -0.3090
19375SOL    HW158703   3.670   2.889   2.934  0.5433  1.2100 -0.9737
19375SOL    HW258704   3.624   2.781   2.839 -0.5184  0.0963  0.7557
19376SOL     OW58705   1.536   8.660   4.979  0.2139  0.2207 -0.3399
19376SOL    HW158706   1.458   8.709   5.003 -0.6730 -1.2359 -0.1455
19376SOL    HW258707   1.580   8.715   4.914 -0.9573  1.0617 -0.4438
19377SOL     OW58708   7.608   3.830   1.273  0.6207  0.3390  0.3570
19377SOL    HW158709   7.591   3.871   1.358  3.3683  0.3555  0.9763
19377SOL    HW258710   7.698   3.798   1.279  0.9382  0.4072 -2.5733
19378SOL     OW58711   5.475   8.541   2.804 -0.3992 -0.1536 -0.2422
19378SOL    HW158712   5.381   8.555   2.817 -0.4779 -1.9242  1.8087
19378SOL    HW258713   5.485   8.446   2.802  1.2339 -0.0103 -1.8401
19379SOL     OW58714   6.059   5.092   6.752  0.1611  0.6106 -0.2328
19379SOL    HW158715   6.120   5.092   6.825  0.5486 -0.1451 -0.5380
19379SOL    HW258716   6.114   5.103   6.674 -0.2350  1.3049 -0.4212
19380SOL     OW58717   7.038   4.956   2.714 -0.0044 -0.3294 -0.0096
19380SOL    HW158718   6.958   4.950   2.662 -1.7479 -1.9170  2.6094
19380SOL    HW258719   7.047   4.870   2.755  2.2220  0.2909  0.9721
19381SOL     OW58720   4.655   0.106   0.114  0.2181  0.3760 -0.0826
19381SOL    HW158721   4.586   0.067   0.061 -0.1844  0.8683  0.0675
19381SOL    HW258722   4.668   0.193   0.075  1.3662 -0.0224 -0.6576
19382SOL     OW58723   2.417   8.128   2.014 -0.1050  0.1761 -0.0707
19382SOL    HW158724   2.484   8.185   1.977 -0.2758  0.4141 -0.0146
19382SOL    HW258725   2.466   8.053   2.049  0.0032 -0.3428 -1.3027
19383SOL     OW58726   8.238   4.252   2.096 -0.5026 -0.3760  0.2988
19383SOL    HW158727   8.301   4.321   2.073 -1.7033  1.1503  1.3213
19383SOL    HW258728   8.179   4.247   2.021  0.1054 -0.9327 -0.1470
19384SOL     OW58729   4.725   2.026   9.139  0.3324  0.5328 -0.3987
19384SOL    HW158730   4.730   2.121   9.154  0.2117  0.4030  0.5697
19384SOL    HW258731   4.659   1.996   9.201 -0.7967  0.0172 -1.8146
19385SOL     OW58732   8.855   7.213   6.586 -0.3694 -0.3313 -0.2424
19385SOL    HW158733   8.833   7.306   6.595  0.7076 -0.1423  0.6176
19385SOL    HW258734   8.934   7.201   6.639 -0.7448 -1.8418  0.0219
19386SOL     OW58735   4.851   9.210   7.861 -0.0373 -0.3139  0.0005
19386SOL    HW158736   4.909   9.172   7.928  0.0648 -0.0994  0.0348
19386SOL    HW258737   4.763   9.191   7.893 -0.0742  1.9623  1.5351
19387SOL     OW58738   4.638   2.471   5.731 -0.0966  0.3404 -0.5643
19387SOL    HW158739   4.649   2.552   5.681 -1.5111  0.7931 -0.1687
19387SOL    HW258740   4.544   2.460   5.740  0.0882 -0.8981  0.1524
19388SOL     OW58741   5.466   3.224   4.781  0.3723 -0.0336 -0.2988
19388SOL    HW158742   5.410   3.290   4.821  0.1254 -1.0027  1.0454
19388SOL    HW258743   5.406   3.164   4.738  0.6480  1.1587 -2.5064
19389SOL     OW58744   7.683   4.715   3.349 -0.1150  0.7126  0.6075
19389SOL    HW158745   7.696   4.780   3.280 -1.1132 -0.2998 -0.5714
19389SOL    HW258746   7.707   4.761   3.430  0.8834  1.9863 -0.3642
19390SOL     OW58747   2.159   8.815   4.459  0.3156  0.0188  0.0897
19390SOL    HW158748   2.227   8.868   4.417  0.1094  1.5633  1.6157
19390SOL    HW258749   2.180   8.725   4.433  2.2137  0.5807 -0.4715
19391SOL     OW58750   1.666   7.552   0.405 -0.3579 -0.3228 -0.7767
19391SOL    HW158751   1.577   7.580   0.381 -0.6321 -0.6311 -0.1365
19391SOL    HW258752   1.674   7.575   0.498  0.9066  1.4223 -1.2667
19392SOL     OW58753   5.305   4.485   0.140 -0.5317 -0.0198  0.5357
19392SOL    HW158754   5.264   4.543   0.076 -1.1291 -1.2066 -0.2048
19392SOL    HW258755   5.245   4.486   0.215 -0.3655  0.5677  0.6641
19393SOL     OW58756   9.710   1.907   1.592  0.5938  0.0937  0.5607
19393SOL    HW158757   9.648   1.874   1.527  0.3989 -1.1784  1.3417
19393SOL    HW258758   9.656   1.925   1.669  0.8024  1.6679  0.3646
19394SOL     OW58759   5.665   5.267   9.146  0.1557 -0.1498 -0.5082
19394SOL    HW158760   5.604   5.321   9.097  1.6185 -0.0212 -2.2959
19394SOL    HW258761   5.724   5.231   9.080  1.3573 -1.1322  1.0157
19395SOL     OW58762   7.999   6.468   3.601  0.2567  0.1048 -0.0135
19395SOL    HW158763   8.059   6.525   3.553  2.9333 -0.4294  2.3627
19395SOL    HW258764   7.915   6.514   3.600  1.6769  2.9002 -0.2381
19396SOL     OW58765   5.139   8.981   9.910 -0.5174 -0.1278 -0.6039
19396SOL    HW158766   5.174   8.893   9.893 -3.6173 -2.0330  1.8280
19396SOL    HW258767   5.134   8.987  10.006 -2.6418  1.7279 -0.7609
19397SOL     OW58768   6.392   7.224   7.247 -0.0332  0.3321 -0.2001
19397SOL    HW158769   6.384   7.317   7.227  1.3508  0.4869 -0.1321
19397SOL    HW258770   6.484   7.213   7.273 -1.0505 -0.3320  3.6373
19398SOL     OW58771   2.470   1.652   2.989 -0.3560 -0.3358  0.1462
19398SOL    HW158772   2.559   1.620   2.975  0.0704  1.0316 -0.3635
19398SOL    HW258773   2.424   1.631   2.908 -0.5785 -1.2177  0.4814
19399SOL     OW58774   7.808   4.754   3.599 -1.0775  0.0728 -0.3083
19399SOL    HW158775   7.771   4.842   3.594 -1.5908 -0.0772  0.6252
19399SOL    HW258776   7.845   4.749   3.687  1.4475  0.3059 -1.2729
19400SOL     OW58777   3.622   5.003   9.235 -0.4602 -0.3582  0.8129
19400SOL    HW158778   3.573   4.988   9.154  0.0082  1.9056  0.0240
19400SOL    HW258779   3.565   4.971   9.305 -1.2408 -1.5775 -0.3245
19401SOL     OW58780   0.567   3.469   5.820  0.1677  0.0317 -0.2206
19401SOL    HW158781   0.524   3.446   5.738  2.0228 -2.9156 -0.5163
19401SOL    HW258782   0.525   3.413   5.886 -0.2620  1.2558  0.5739
19402SOL     OW58783   2.014   7.611   7.795 -0.6289  0.1678 -0.1768
19402SOL    HW158784   2.073   7.681   7.822 -1.9216  0.6351  1.5811
19402SOL    HW258785   1.999   7.627   7.702  0.1783  1.4035 -0.1115
19403SOL     OW58786   7.688   3.187   7.708  0.3274 -0.0591  0.0165
19403SOL    HW158787   7.598   3.158   7.725  0.8260 -1.0916  1.0322
19403SOL    HW258788   7.703   3.164   7.616 -0.7638  1.0420 -0.4624
19404SOL     OW58789   0.183   6.512   2.989  0.1508 -0.2215 -0.0029
19404SOL    HW158790   0.140   6.595   2.968 -0.4375 -0.6414 -0.4822
19404SOL    HW258791   0.145   6.485   3.072  0.5842  0.1504  0.3196
19405SOL     OW58792   8.588   7.226   9.711  0.6201  0.3446 -0.2475
19405SOL    HW158793   8.582   7.151   9.651 -3.0738  0.2834 -0.0336
19405SOL    HW258794   8.538   7.295   9.668 -0.8837  0.7775  1.9879
19406SOL     OW58795   5.721   6.750   7.179  0.6772  0.0107  0.9447
19406SOL    HW158796   5.793   6.812   7.169 -0.0126  0.5495 -1.1163
19406SOL    HW258797   5.649   6.802   7.214  0.2512  0.3070 -0.3158
19407SOL     OW58798   9.679   7.251   9.498 -0.1340  0.5728  0.8378
19407SOL    HW158799   9.712   7.269   9.410 -0.8739 -0.7374  0.2593
19407SOL    HW258800   9.615   7.320   9.515  0.7635  1.4420  0.7976
19408SOL     OW58801   5.923   8.824   7.554 -0.2929 -0.3012 -0.0160
19408SOL    HW158802   5.884   8.794   7.637 -1.9202  0.5924 -0.3985
19408SOL    HW258803   5.856   8.803   7.489  0.8266 -0.6757 -1.0561
19409SOL     OW58804   4.633   1.175   5.734  0.3779  0.1130 -0.6888
19409SOL    HW158805   4.550   1.212   5.702 -1.3482 -2.4467  0.5386
19409SOL    HW258806   4.630   1.187   5.829  1.8801  0.7673 -0.6949
19410SOL     OW58807   0.568   4.525   2.820 -0.0025 -0.1386  0.3933
19410SOL    HW158808   0.635   4.472   2.863 -0.9916 -1.4228  0.4158
19410SOL    HW258809   0.573   4.500   2.727 -1.4881 -1.4832  0.6294
19411SOL     OW58810   1.512   1.596   6.499  0.4275  0.0887  0.5237
19411SOL    HW158811   1.486   1.508   6.471 -0.7781  0.6425 -0.1493
19411SOL    HW258812   1.598   1.583   6.540  0.7568 -1.2361 -0.5057
19412SOL     OW58813   3.904   6.760   1.602  0.2616  0.0327  0.0222
19412SOL    HW158814   3.832   6.747   1.540  0.4934  1.6375 -0.6355
19412SOL    HW258815   3.981   6.775   1.547  0.6635  0.5015  0.6905
19413SOL     OW58816   1.733   8.619   1.236  0.6890  0.7165 -0.8151
19413SOL    HW158817   1.783   8.605   1.316  0.6367 -0.5534 -0.9885
19413SOL    HW258818   1.655   8.668   1.264  0.3249 -0.3153  0.0393
19414SOL     OW58819   1.190   6.128   0.880 -0.0713 -0.2345 -0.1574
19414SOL    HW158820   1.188   6.217   0.916 -1.0372 -1.1040  2.1533
19414SOL    HW258821   1.099   6.101   0.879  0.2925 -1.5374  0.1288
19415SOL     OW58822   7.028   0.455   9.326 -0.3380  0.1214  0.1998
19415SOL    HW158823   7.089   0.426   9.258  0.2942  4.2389 -1.2807
19415SOL    HW258824   7.075   0.439   9.408  1.4838  0.4842 -0.7095
19416SOL     OW58825   5.458   8.699   3.557  0.1013  0.3221  0.3235
19416SOL    HW158826   5.384   8.668   3.504  0.4924  1.8342 -1.2295
19416SOL    HW258827   5.452   8.650   3.638 -0.6712 -1.9830 -1.0390
19417SOL     OW58828   8.212   3.761   8.569  1.0480 -0.0701  0.7339
19417SOL    HW158829   8.207   3.780   8.663  2.1772 -1.4511  1.1164
19417SOL    HW258830   8.173   3.674   8.560  1.5775 -0.2436  0.0450
19418SOL     OW58831   2.008   1.306   9.127  0.0239 -0.8222 -0.0786
19418SOL    HW158832   1.960   1.225   9.107 -0.7459 -1.0224  2.2001
19418SOL    HW258833   2.015   1.352   9.044  0.4097 -3.1748 -1.4476
19419SOL     OW58834   6.596   7.301   8.959 -0.6022  0.6072 -0.2202
19419SOL    HW158835   6.564   7.391   8.968 -3.9206 -0.3336 -1.3557
19419SOL    HW258836   6.576   7.261   9.043 -0.7815  0.4781 -0.3243
19420SOL     OW58837   0.333   3.648   7.268  0.0648  0.4087  0.3995
19420SOL    HW158838   0.323   3.691   7.183  1.0602  3.0846  1.5064
19420SOL    HW258839   0.265   3.687   7.323  1.5676  1.3177  1.6944
19421SOL     OW58840   3.449   1.664   4.789  0.0785  0.3680  0.3191
19421SOL    HW158841   3.509   1.737   4.775  0.0741  0.5544  1.2192
19421SOL    HW258842   3.386   1.696   4.853 -0.8185  0.0685 -0.3926
19422SOL     OW58843   4.482   9.816   5.338  0.7351  0.5390 -0.4097
19422SOL    HW158844   4.429   9.847   5.412  1.7567  1.0536  0.1156
19422SOL    HW258845   4.433   9.844   5.261  0.5828  1.6423  0.0688
19423SOL     OW58846   7.032   3.940   7.295  0.3191 -0.0504  0.0477
19423SOL    HW158847   6.964   3.873   7.288 -0.3305  0.6044 -0.0365
19423SOL    HW258848   7.106   3.904   7.246 -0.1121 -0.5876 -0.2221
19424SOL     OW58849   2.557   6.660   3.424 -0.2812  0.2635 -0.2280
19424SOL    HW158850   2.559   6.594   3.355  1.6326 -0.5652  0.5272
19424SOL    HW258851   2.613   6.624   3.493 -0.6947  1.8516  1.0013
19425SOL     OW58852   1.286   3.122   8.275 -0.0116 -0.0267 -0.2704
19425SOL    HW158853   1.306   3.208   8.239  0.9392 -0.3273 -0.4767
19425SOL    HW258854   1.190   3.117   8.274 -0.0485  0.7182 -0.9696
19426SOL     OW58855   1.935   7.393   6.038  0.6106  0.2177  1.0557
19426SOL    HW158856   1.949   7.443   5.958 -0.4017  1.2941  1.5275
19426SOL    HW258857   2.007   7.418   6.096  1.0769 -0.2034  0.6641
19427SOL     OW58858   1.868   5.306   8.978 -0.6521  0.8392  0.1247
19427SOL    HW158859   1.885   5.297   8.884 -0.8440  1.9670 -0.0356
19427SOL    HW258860   1.953   5.291   9.019 -0.4639  0.8018 -0.2687
19428SOL     OW58861   1.626   7.747   8.593 -0.0244 -0.4356  0.1051
19428SOL    HW158862   1.579   7.751   8.510 -1.4904 -1.6249  0.8131
19428SOL    HW258863   1.702   7.805   8.581 -0.5038 -0.1293 -1.8330
19429SOL     OW58864   6.604   1.180   4.423  0.2261  0.0011 -0.5598
19429SOL    HW158865   6.603   1.124   4.345  1.3438  0.6505 -1.0541
19429SOL    HW258866   6.513   1.210   4.430 -0.4346 -1.8806 -0.2401
19430SOL     OW58867   9.699   3.405   8.646  0.6515 -0.7558  0.0496
19430SOL    HW158868   9.782   3.382   8.604 -0.0186 -0.9070 -1.2396
19430SOL    HW258869   9.648   3.324   8.643  0.1199 -0.4247 -0.0068
19431SOL     OW58870   7.270   9.556   4.252 -0.1055  0.1585  0.6412
19431SOL    HW158871   7.336   9.625   4.262  1.0032 -0.6569 -0.6169
19431SOL    HW258872   7.309   9.479   4.294  0.1316 -0.5337 -0.7640
19432SOL     OW58873   3.694   3.434   0.826 -0.0793 -0.7351  0.3899
19432SOL    HW158874   3.637   3.484   0.885 -1.3280  0.0486 -1.3899
19432SOL    HW258875   3.773   3.486   0.818  0.2180 -0.9820  1.5476
19433SOL     OW58876   7.849   5.768   5.858  0.3562  0.2751  0.0562
19433SOL    HW158877   7.940   5.740   5.866  0.3308  0.0331 -0.4774
19433SOL    HW258878   7.832   5.770   5.764  0.2110  1.6401  0.0937
19434SOL     OW58879   6.416   9.429   8.041 -0.5558  0.3590  0.1027
19434SOL    HW158880   6.460   9.453   7.959 -1.8004 -1.6786 -1.2713
19434SOL    HW258881   6.327   9.464   8.032 -1.1263 -1.0474 -0.1144
19435SOL     OW58882   9.057   3.805   3.034  0.8986  0.3513 -0.3676
19435SOL    HW158883   9.033   3.859   2.959 -0.3496  1.7117  0.9553
19435SOL    HW258884   9.133   3.849   3.072 -0.2893  1.3894  0.8757
19436SOL     OW58885   8.833   0.311   1.676  0.4056 -0.3587 -0.1837
19436SOL    HW158886   8.887   0.389   1.683 -0.2261  0.1648 -0.9620
19436SOL    HW258887   8.832   0.290   1.583 -0.3307 -0.6343 -0.1231
19437SOL     OW58888   2.876   8.897   8.208  0.5190 -0.2689  0.0318
19437SOL    HW158889   2.896   8.984   8.174  0.4893  1.3306  3.6518
19437SOL    HW258890   2.784   8.902   8.236  0.2588 -1.7568 -0.4555
19438SOL     OW58891   3.743   1.746   9.270  0.4102 -0.6447 -0.0554
19438SOL    HW158892   3.755   1.809   9.341  1.4989  0.3681 -1.0651
19438SOL    HW258893   3.782   1.790   9.194 -1.1559 -1.4794 -1.3895
19439SOL     OW58894   7.570   2.652   4.085 -0.2252 -0.5881  0.9682
19439SOL    HW158895   7.487   2.652   4.134  0.7159 -1.4651  2.6472
19439SOL    HW258896   7.600   2.743   4.089 -1.2504 -0.1805  0.0297
19440SOL     OW58897   2.668   0.924   9.407  0.3156 -0.1594  1.2578
19440SOL    HW158898   2.702   0.868   9.338 -0.0586 -0.2299  1.1302
19440SOL    HW258899   2.576   0.939   9.384  0.4260  0.5580  1.2510
19441SOL     OW58900   7.583   6.845   9.084 -0.5151 -0.2152  0.4440
19441SOL    HW158901   7.655   6.888   9.038 -0.6255 -1.5341 -1.0514
19441SOL    HW258902   7.523   6.916   9.106 -0.0766  0.5699 -0.7990
19442SOL     OW58903   4.372   1.108   2.817  0.3916  0.0033  0.2130
19442SOL    HW158904   4.335   1.065   2.740  1.7715  0.8207 -0.9763
19442SOL    HW258905   4.406   1.036   2.870 -0.7676 -0.5888  0.1842
19443SOL     OW58906   0.997   9.749   1.397  0.3235  0.1294 -0.2756
19443SOL    HW158907   0.911   9.714   1.374  0.0267  0.9975 -0.5393
19443SOL    HW258908   1.046   9.674   1.429  0.0468 -0.7118 -1.7529
19444SOL     OW58909   7.107   9.512   1.774 -0.1481  0.3255  0.3684
19444SOL    HW158910   7.147   9.483   1.692 -0.4517 -1.5695  0.8426
19444SOL    HW258911   7.031   9.455   1.784  1.3063 -1.3055  3.2273
19445SOL     OW58912   9.376   8.556   3.185 -0.0255 -0.3842  0.1578
19445SOL    HW158913   9.467   8.545   3.212  0.4948  1.7166 -0.5322
19445SOL    HW258914   9.340   8.468   3.187  1.7476 -1.1525  1.3695
19446SOL     OW58915   4.163   5.242   0.690 -0.1372  0.0195 -1.3590
19446SOL    HW158916   4.199   5.154   0.693 -1.5531 -0.5883  1.2986
19446SOL    HW258917   4.219   5.293   0.749  1.2090  1.1995 -3.5481
19447SOL     OW58918   1.904   7.557   5.818 -0.3086  0.2779 -0.2435
19447SOL    HW158919   1.962   7.589   5.748 -0.4449 -2.9589 -2.0040
19447SOL    HW258920   1.816   7.563   5.781 -0.3310 -2.0056 -0.6734
19448SOL     OW58921   2.196   6.947   2.354 -0.4189  0.1032  0.3224
19448SOL    HW158922   2.205   7.025   2.408  0.0213  0.3797 -0.1359
19448SOL    HW258923   2.269   6.952   2.292 -0.3193 -0.7305  0.3582
19449SOL     OW58924   7.479   5.636   2.326 -0.2250 -0.1440 -0.8270
19449SOL    HW158925   7.427   5.716   2.322 -0.4230 -0.1796  0.5618
19449SOL    HW258926   7.466   5.603   2.415  0.5960 -1.2213 -1.0831
19450SOL     OW58927   5.041   0.230   9.376  0.2351  0.3382 -0.1118
19450SOL    HW158928   5.108   0.180   9.329 -1.2210 -1.9311  0.0479
19450SOL    HW258929   4.988   0.270   9.306 -1.6001 -2.5924 -0.5847
19451SOL     OW58930   5.237   2.585   0.739 -0.2868 -0.0740 -0.0427
19451SOL    HW158931   5.270   2.498   0.717 -0.5476 -0.0589 -0.4924
19451SOL    HW258932   5.301   2.619   0.803  0.1201 -0.3727 -0.2841
19452SOL     OW58933   7.854   8.476   0.111 -0.3069  0.5473 -0.0156
19452SOL    HW158934   7.816   8.528   0.041 -0.0624  1.5083  0.5431
19452SOL    HW258935   7.779   8.437   0.156 -0.5056  0.5946 -0.3060
19453SOL     OW58936   1.019   9.739   4.785 -0.2055 -0.1295  0.6740
19453SOL    HW158937   0.956   9.700   4.846 -1.4231  0.5164 -0.1216
19453SOL    HW258938   1.094   9.762   4.839 -1.0138 -0.1109  1.8191
19454SOL     OW58939   7.032   2.336   8.690 -0.4672 -0.1137 -0.0738
19454SOL    HW158940   7.058   2.409   8.747  2.3944 -0.2083 -1.0791
19454SOL    HW258941   7.039   2.372   8.602 -0.2359 -1.2694 -0.5381
19455SOL     OW58942   2.537   1.472   0.162  0.2895 -0.9183  0.0563
19455SOL    HW158943   2.513   1.395   0.112  2.0253 -1.6483  0.2685
19455SOL    HW258944   2.623   1.498   0.127 -0.1779  0.8237  0.0971
19456SOL     OW58945   3.403   2.761   9.603  0.4726 -0.1438 -0.0165
19456SOL    HW158946   3.330   2.808   9.563  0.3540  1.5931  2.0604
19456SOL    HW258947   3.468   2.828   9.622  1.3955 -1.2145  0.7705
19457SOL     OW58948   1.186   7.877   5.041 -0.0170  0.1939 -0.5866
19457SOL    HW158949   1.156   7.968   5.043 -0.9492 -0.0735  2.1120
19457SOL    HW258950   1.280   7.883   5.024  0.2185  1.8297  0.9558
19458SOL     OW58951   3.091   6.565   4.033  0.8332  0.0733  0.5115
19458SOL    HW158952   3.069   6.478   4.001  1.7226 -0.3303  0.9452
19458SOL    HW258953   3.022   6.622   3.999  1.2042 -0.4829 -1.2782
19459SOL     OW58954   4.955   7.415   9.475 -0.2637 -0.3029 -0.4443
19459SOL    HW158955   5.040   7.424   9.517 -0.0804  0.0509 -0.8782
19459SOL    HW258956   4.965   7.458   9.390 -0.8919 -0.1960 -0.4751
19460SOL     OW58957   9.641   3.260   2.191 -0.0413 -0.3064 -0.5808
19460SOL    HW158958   9.548   3.278   2.178 -0.2455 -1.4659 -0.8713
19460SOL    HW258959   9.667   3.317   2.264 -1.4846 -1.4615  0.9040
19461SOL     OW58960   5.961   6.391   9.913 -0.6547  0.7993 -0.3495
19461SOL    HW158961   6.044   6.348   9.935 -0.9954 -0.9986 -2.2229
19461SOL    HW258962   5.894   6.333   9.948 -1.1147  0.2565 -2.0367
19462SOL     OW58963   9.879   1.666   8.729  0.2195  0.1951  0.2836
19462SOL    HW158964   9.906   1.593   8.674  0.1038  1.2271 -1.2216
19462SOL    HW258965   9.942   1.736   8.710 -0.3124  0.8476  0.8390
19463SOL     OW58966   7.206   0.225   3.814 -0.1819  0.7174  0.7326
19463SOL    HW158967   7.141   0.155   3.822 -0.5036  1.1293  1.9197
19463SOL    HW258968   7.277   0.187   3.763 -1.3816  0.2814 -0.6917
19464SOL     OW58969   8.880   6.605   4.591  0.1816 -0.3921  0.0178
19464SOL    HW158970   8.975   6.613   4.582  0.0694  2.9112  0.2617
19464SOL    HW258971   8.866   6.588   4.684  0.5449 -0.3689  0.0777
19465SOL     OW58972   8.704   1.476   0.566 -0.1441  0.7295 -0.2303
19465SOL    HW158973   8.625   1.424   0.580  0.8619 -0.7440  0.2492
19465SOL    HW258974   8.672   1.563   0.542 -1.8929  0.1140 -0.2607
19466SOL     OW58975   8.977   5.092   2.044  0.2135  0.3198  0.6623
19466SOL    HW158976   8.998   5.093   2.138 -1.2072 -1.3146  1.0414
19466SOL    HW258977   9.054   5.052   2.003 -0.3703 -1.8119  1.5309
19467SOL     OW58978   8.503   9.218   7.488 -0.3999  0.3455 -0.3529
19467SOL    HW158979   8.517   9.254   7.575  1.4521 -1.7156  0.2998
19467SOL    HW258980   8.428   9.158   7.498 -0.8320  0.8632 -0.4433
19468SOL     OW58981   8.038   4.528   4.577  0.3716 -0.0376  0.1369
19468SOL    HW158982   8.051   4.462   4.645  2.2087  1.2292  1.0799
19468SOL    HW258983   7.956   4.502   4.534 -0.1425 -1.6116  1.9453
19469SOL     OW58984   8.053   7.533   4.373  0.2524 -0.2800  0.1617
19469SOL    HW158985   7.973   7.481   4.378  0.3611 -0.4385  0.2393
19469SOL    HW258986   8.065   7.549   4.279 -0.1619  0.1933  0.1850
19470SOL     OW58987   1.703   2.870   3.633 -1.0011  0.1577 -0.1604
19470SOL    HW158988   1.738   2.955   3.659 -0.9160 -0.6211  2.6464
19470SOL    HW258989   1.752   2.847   3.554  0.5324  1.7491  0.2596
19471SOL     OW58990   9.136   6.316   5.158 -0.5670 -0.1353 -0.2865
19471SOL    HW158991   9.086   6.384   5.203  1.0029  0.3653  0.8109
19471SOL    HW258992   9.117   6.236   5.207  0.2583  0.1996  0.6275
19472SOL     OW58993   7.225   7.560   7.701  0.3310  0.2375  0.7432
19472SOL    HW158994   7.196   7.474   7.672  3.0485 -1.2333  1.9912
19472SOL    HW258995   7.158   7.590   7.762 -1.2732 -0.3803 -0.6462
19473SOL     OW58996   8.640   6.888   3.931  0.0993  0.2001  0.1471
19473SOL    HW158997   8.641   6.792   3.934  0.6130  0.0359 -2.5499
19473SOL    HW258998   8.730   6.914   3.951  0.0678  0.1037  0.4207
19474SOL     OW58999   0.564   4.874   8.847 -0.3066  0.0650  0.1111
19474SOL    HW159000   0.649   4.859   8.807 -0.5246  1.9378 -1.2180
19474SOL    HW259001   0.541   4.964   8.821 -3.6199 -1.0486 -1.3814
19475SOL     OW59002   4.642   7.496   2.705 -0.1574  0.2964  0.0164
19475SOL    HW159003   4.630   7.401   2.700  0.4024  0.2566 -0.7535
19475SOL    HW259004   4.571   7.526   2.763 -0.5029 -0.5525  0.0525
19476SOL     OW59005   8.351   0.917   6.388 -0.4555 -0.1052  0.1477
19476SOL    HW159006   8.333   0.908   6.482  0.7945  0.2754  0.4482
19476SOL    HW259007   8.364   0.827   6.358  0.4882 -0.1501  0.6444
19477SOL     OW59008   8.420   6.136   3.791 -0.3426  0.2968  0.0796
19477SOL    HW159009   8.334   6.105   3.764 -0.2563 -1.2869  1.4271
19477SOL    HW259010   8.465   6.159   3.709 -1.5281 -0.2448 -0.7427
19478SOL     OW59011   1.130   1.203   9.943  0.5281  0.1826  0.1963
19478SOL    HW159012   1.199   1.260   9.977 -2.1355  2.9894  1.4655
19478SOL    HW259013   1.094   1.161  10.021  0.1680 -0.4896 -0.3220
19479SOL     OW59014   7.359   3.677   2.211 -0.1170  0.2134  0.5626
19479SOL    HW159015   7.452   3.660   2.203  0.2254  1.4290  1.6851
19479SOL    HW259016   7.343   3.680   2.306 -1.2953  0.0220  0.3864
19480SOL     OW59017   0.161   2.612   9.792 -0.3309 -0.2240 -0.2705
19480SOL    HW159018   0.086   2.642   9.741 -0.4907 -0.6784 -0.3074
19480SOL    HW259019   0.209   2.555   9.732  1.7812  2.4823 -1.3411
19481SOL     OW59020   3.842   3.157   0.693  0.7789 -0.5341 -0.0735
19481SOL    HW159021   3.881   3.227   0.640  1.1124 -1.6552 -1.3663
19481SOL    HW259022   3.805   3.097   0.629 -3.0030  0.3309  1.0591
19482SOL     OW59023   3.957   5.427   2.668  0.1620 -0.2848  0.1558
19482SOL    HW159024   3.937   5.482   2.744  2.0164 -1.0464  1.2475
19482SOL    HW259025   3.953   5.487   2.593  1.0814  1.1268  1.1867
19483SOL     OW59026   3.593   4.449   6.962  0.7707  0.1855  0.6272
19483SOL    HW159027   3.619   4.456   6.870 -1.4599 -0.5004 -0.1104
19483SOL    HW259028   3.574   4.539   6.988 -1.3202  0.1236 -0.4922
19484SOL     OW59029   8.611   1.899   1.647  0.0769 -0.4472 -0.2355
19484SOL    HW159030   8.611   1.988   1.683 -1.3817 -1.0112  1.2595
19484SOL    HW259031   8.536   1.856   1.688  1.2523 -2.6573 -0.2505
19485SOL     OW59032   4.062   5.939   9.066 -0.0341 -0.4687  0.2314
19485SOL    HW159033   3.966   5.934   9.071 -0.3516  0.2194 -2.8925
19485SOL    HW259034   4.092   5.849   9.072 -1.3133 -1.2328 -2.8632
19486SOL     OW59035   1.071   9.330   4.010 -0.6255  0.1603  0.0385
19486SOL    HW159036   1.003   9.396   3.994 -1.9241 -1.4126 -1.3937
19486SOL    HW259037   1.111   9.316   3.924 -0.1603 -0.6561  0.3727
19487SOL     OW59038   2.350   0.411   6.729  0.2976 -0.0927 -0.0577
19487SOL    HW159039   2.384   0.366   6.652  3.0960 -1.4327  1.8041
19487SOL    HW259040   2.427   0.449   6.771 -1.2206  1.1933  1.7366
19488SOL     OW59041   2.538   3.533   1.527  0.3624  0.2638  0.3106
19488SOL    HW159042   2.629   3.503   1.534  0.1624 -0.3718  0.2737
19488SOL    HW259043   2.496   3.469   1.470  0.1606  1.2056 -0.6081
19489SOL     OW59044   3.378   5.655   1.304 -0.3839  0.3074  0.0378
19489SOL    HW159045   3.409   5.574   1.264 -1.3216 -0.0237 -0.0279
19489SOL    HW259046   3.456   5.691   1.348  0.1041 -0.4826 -0.1588
19490SOL     OW59047   3.881   5.569   2.898  0.2808  0.0978  0.4182
19490SOL    HW159048   3.831   5.623   2.836  0.0284  0.0205  0.5508
19490SOL    HW259049   3.914   5.631   2.963 -1.0573 -0.0347  1.2782
19491SOL     OW59050   6.567   0.560   8.490 -0.0493  0.3529  0.2905
19491SOL    HW159051   6.537   0.516   8.569 -2.3422  0.5815 -0.3649
19491SOL    HW259052   6.609   0.640   8.522 -0.0697 -0.0250  1.3060
19492SOL     OW59053   6.990   9.225   3.673  0.1454  0.2709 -0.0619
19492SOL    HW159054   6.951   9.148   3.631  1.5157  0.4190 -1.7320
19492SOL    HW259055   7.081   9.225   3.642  0.0354  2.8790 -0.6139
19493SOL     OW59056   9.338   1.427   1.701 -0.2235  0.1998 -0.4624
19493SOL    HW159057   9.386   1.475   1.634  0.9943 -0.8452 -0.3846
19493SOL    HW259058   9.401   1.364   1.735 -1.7416 -1.5287 -0.6280
19494SOL     OW59059   1.861   2.283   4.048 -0.6918 -0.2041  0.3051
19494SOL    HW159060   1.781   2.254   4.092 -0.0278 -1.5316  0.7084
19494SOL    HW259061   1.886   2.363   4.094 -1.7272  0.1836  0.2270
19495SOL     OW59062   3.386   5.425   2.530  0.4501 -0.2876  0.4844
19495SOL    HW159063   3.389   5.519   2.551  1.2097 -0.0075 -0.7354
19495SOL    HW259064   3.476   5.396   2.541  0.4350 -0.6114 -0.2214
19496SOL     OW59065   5.093   7.223   0.080 -0.8038  0.3940  0.5786
19496SOL    HW159066   5.018   7.164   0.077 -1.9177  1.7438  0.9524
19496SOL    HW259067   5.055   7.310   0.092  0.8593  1.0320  1.5416
19497SOL     OW59068   1.925   1.697   8.315  0.0466 -0.1787 -0.5097
19497SOL    HW159069   1.888   1.785   8.324  0.1201 -0.2223  0.3639
19497SOL    HW259070   1.866   1.652   8.255  0.7414  0.8577 -2.0257
19498SOL     OW59071   9.431   1.331   0.270 -0.3352  0.4123 -0.2041
19498SOL    HW159072   9.366   1.340   0.340 -0.5987 -1.0940 -0.2271
19498SOL    HW259073   9.421   1.241   0.239  0.6381  0.6678 -1.3398
19499SOL     OW59074   0.480   7.749   9.041  0.6303  0.3446  0.2894
19499SOL    HW159075   0.526   7.707   8.969 -0.7760  0.4289 -0.7029
19499SOL    HW259076   0.497   7.843   9.030 -0.0723  0.4082 -0.3068
19500SOL     OW59077   8.893   7.887   6.403 -0.3756  0.1238 -0.0090
19500SOL    HW159078   8.906   7.956   6.337  2.4688 -0.2392  0.0639
19500SOL    HW259079   8.899   7.933   6.487 -1.1801  0.1599  0.0366
19501SOL     OW59080   9.935   1.494   7.267  0.7221  0.0623  0.1211
19501SOL    HW159081  10.020   1.514   7.229  0.0019 -0.8036 -2.0908
19501SOL    HW259082   9.929   1.399   7.265  0.3810  0.0145  1.9099
19502SOL     OW59083   8.180   8.309   7.963 -0.1491 -0.3085  0.0263
19502SOL    HW159084   8.225   8.385   7.925 -0.0037 -0.6258 -0.4581
19502SOL    HW259085   8.158   8.335   8.052  0.3247  0.1273  0.0170
19503SOL     OW59086   4.353   7.575   6.840  0.0780  0.0232  0.3708
19503SOL    HW159087   4.435   7.613   6.808  0.3103 -0.7095  0.0601
19503SOL    HW259088   4.364   7.481   6.826 -0.7668 -0.0922  0.4438
19504SOL     OW59089   8.169   9.693   5.343 -0.3308  0.0005 -0.4593
19504SOL    HW159090   8.250   9.658   5.307  0.3700  0.6761  0.4389
19504SOL    HW259091   8.125   9.733   5.268  1.7214  2.5513 -0.4294
19505SOL     OW59092   3.317   7.633   0.478  0.1687  0.7209  0.4390
19505SOL    HW159093   3.369   7.562   0.515  0.9066  0.7672 -0.4447
19505SOL    HW259094   3.314   7.699   0.547 -0.8562 -0.3107  1.4096
19506SOL     OW59095   9.510   9.929   7.276  0.9589 -0.3899 -0.2811
19506SOL    HW159096   9.479   9.861   7.335 -1.0293  0.8139  0.1651
19506SOL    HW259097   9.552   9.881   7.204  3.7707 -1.8876  2.1395
19507SOL     OW59098   6.577   6.413   3.788  0.5725 -0.1118  0.2952
19507SOL    HW159099   6.516   6.465   3.840 -1.6784 -0.8894 -1.4128
19507SOL    HW259100   6.562   6.323   3.816  1.1240 -0.3020  0.0001
19508SOL     OW59101   5.314   2.428   4.561  0.7082  0.7877  1.0833
19508SOL    HW159102   5.380   2.497   4.559  1.4068  0.3387  3.9084
19508SOL    HW259103   5.233   2.472   4.586  1.3131  0.5933  3.6464
19509SOL     OW59104   1.432   7.210   8.247  0.4824  0.6675 -0.6857
19509SOL    HW159105   1.477   7.268   8.308  1.7311 -0.4552 -0.5085
19509SOL    HW259106   1.374   7.269   8.197  0.4000  1.7901  0.6568
19510SOL     OW59107   1.725   9.356   8.324  0.0190  0.2079  0.2033
19510SOL    HW159108   1.806   9.406   8.331  0.1149  0.1745 -0.5917
19510SOL    HW259109   1.692   9.376   8.237  1.6643 -3.4508 -1.4997
19511SOL     OW59110   3.816   2.549   1.641 -0.0323 -0.0822  0.6446
19511SOL    HW159111   3.841   2.641   1.635 -0.9739  0.2756  1.9101
19511SOL    HW259112   3.778   2.529   1.555 -0.4514  0.9108  0.5891
19512SOL     OW59113   9.399   7.320   7.426 -0.2323  0.1454 -0.0938
19512SOL    HW159114   9.494   7.324   7.439 -0.1902 -0.0489 -0.3424
19512SOL    HW259115   9.383   7.232   7.393 -0.2891  0.7655 -1.7899
19513SOL     OW59116   9.104   6.077   4.649 -0.2200  0.0820  0.3151
19513SOL    HW159117   9.199   6.077   4.659 -0.2990 -1.2896  1.4106
19513SOL    HW259118   9.089   6.036   4.563  0.1707 -0.8185  0.6587
19514SOL     OW59119   3.803   6.830   3.985 -0.4872  1.0282 -0.1540
19514SOL    HW159120   3.826   6.766   3.917  1.0896 -0.5008  1.6884
19514SOL    HW259121   3.707   6.827   3.988 -0.5134 -0.1830 -1.0966
19515SOL     OW59122   2.518   1.465   4.295 -0.2100 -0.5279  0.2491
19515SOL    HW159123   2.485   1.549   4.264 -0.7582 -0.2941  1.3908
19515SOL    HW259124   2.456   1.400   4.260  1.0106 -0.6533 -1.8344
19516SOL     OW59125   4.053   1.933   8.189  0.2524  0.0258 -0.6624
19516SOL    HW159126   3.991   1.982   8.135  0.7564 -0.4433 -1.6969
19516SOL    HW259127   4.002   1.905   8.265 -0.7728 -0.2763 -1.4430
19517SOL     OW59128   5.954   6.700   2.547  0.2289 -0.8498  0.2519
19517SOL    HW159129   5.897   6.652   2.486  0.8275  1.0414 -1.9500
19517SOL    HW259130   5.895   6.760   2.592  0.1366 -0.2606 -0.6105
19518SOL     OW59131   5.070   4.067   2.308  0.2991  0.3831  0.5832
19518SOL    HW159132   5.045   4.131   2.242 -0.7620 -2.3712 -1.9156
19518SOL    HW259133   4.988   4.044   2.352  0.6582  0.6209  1.4028
19519SOL     OW59134   3.614   2.574   4.507 -0.5287 -0.1529  0.2207
19519SOL    HW159135   3.628   2.646   4.568  2.2528  0.5574 -1.0771
19519SOL    HW259136   3.571   2.615   4.431  0.1618 -0.0491 -0.1202
19520SOL     OW59137   9.470   1.256   4.021  0.4272  0.1321 -0.0946
19520SOL    HW159138   9.425   1.190   3.967  1.4998 -1.3459  0.7328
19520SOL    HW259139   9.527   1.205   4.078  1.1276  1.7980  0.7625
19521SOL     OW59140   5.443   1.082   4.241  0.5637  0.0344  0.5243
19521SOL    HW159141   5.370   1.142   4.226  0.8690  1.0879  2.7254
19521SOL    HW259142   5.520   1.129   4.207  0.4783 -0.2318 -0.0441
19522SOL     OW59143   4.702   6.014   6.568  0.3184  0.1570  0.2685
19522SOL    HW159144   4.758   5.951   6.523 -0.3488 -0.2193 -0.0643
19522SOL    HW259145   4.613   5.986   6.546  0.0026  1.8034 -0.7438
19523SOL     OW59146   9.653   4.253   7.298 -0.1897 -0.0979 -0.3869
19523SOL    HW159147   9.665   4.171   7.250 -3.4684 -1.4487  0.8686
19523SOL    HW259148   9.593   4.304   7.243  0.0353  0.4984 -0.0885
19524SOL     OW59149   8.579   4.793   9.169  0.4201 -1.3270  0.4963
19524SOL    HW159150   8.625   4.858   9.222 -0.6877  0.9437 -1.1241
19524SOL    HW259151   8.645   4.727   9.148  2.4836  0.8244 -0.2149
19525SOL     OW59152   9.299   6.814   4.253  0.1473  0.8537 -0.4968
19525SOL    HW159153   9.374   6.776   4.207 -1.3447 -1.5753 -1.1313
19525SOL    HW259154   9.326   6.817   4.345  1.0891  0.1716 -0.7405
19526SOL     OW59155   4.709   7.601   8.296  0.1233  0.3929 -0.2489
19526SOL    HW159156   4.700   7.556   8.212 -0.1145 -0.1119  0.0479
19526SOL    HW259157   4.710   7.531   8.361  0.6086  0.7638  0.1496
19527SOL     OW59158   2.673   3.126   6.590 -0.4417  0.3189 -0.1218
19527SOL    HW159159   2.700   3.148   6.500  0.5509 -2.6662 -0.6600
19527SOL    HW259160   2.747   3.151   6.644 -0.2206  0.3134 -0.4188
19528SOL     OW59161   0.084   7.871   2.953 -0.0998 -0.3481 -0.7550
19528SOL    HW159162   0.104   7.778   2.969 -0.1010 -0.6057 -2.1856
19528SOL    HW259163  -0.009   7.879   2.977 -0.0376 -0.6475 -0.3883
19529SOL     OW59164   0.835   0.803   7.817 -0.1828  0.2108  0.3159
19529SOL    HW159165   0.868   0.877   7.766 -2.2120  2.7932  2.4381
19529SOL    HW259166   0.746   0.790   7.786  0.1870 -1.5347 -0.1231
19530SOL     OW59167   7.115   3.575   1.679  0.1328 -0.2168  0.2094
19530SOL    HW159168   7.124   3.483   1.703  3.6851  0.2524  1.2382
19530SOL    HW259169   7.182   3.588   1.612  0.6925  1.9039  1.1178
19531SOL     OW59170   6.202   7.607   2.246 -0.3408  0.1116  0.0211
19531SOL    HW159171   6.162   7.692   2.227 -0.5174  0.2612  0.9783
19531SOL    HW259172   6.290   7.613   2.209 -0.3227  0.7512  0.1564
19532SOL     OW59173   8.636   2.681   8.207  0.2248 -0.4706  0.4754
19532SOL    HW159174   8.544   2.699   8.227 -0.2748 -3.3691  1.3450
19532SOL    HW259175   8.671   2.764   8.176 -2.3327  1.0629  1.3887
19533SOL     OW59176   9.489   9.741   7.736 -0.0338  0.3219  0.5370
19533SOL    HW159177   9.412   9.714   7.786  0.7045 -0.5735  1.2219
19533SOL    HW259178   9.506   9.831   7.764 -0.8205  0.5180  0.3885
19534SOL     OW59179   4.429   0.462   8.717 -0.3386 -0.4847 -0.2334
19534SOL    HW159180   4.498   0.395   8.715  0.5947  0.4719 -0.6845
19534SOL    HW259181   4.427   0.498   8.629  0.3046  1.1971  0.3986
19535SOL     OW59182   5.120   3.799   1.206  0.0555 -0.1517 -0.4302
19535SOL    HW159183   5.192   3.824   1.263  1.1489  0.4300 -1.9969
19535SOL    HW259184   5.100   3.709   1.230 -0.8923  0.6623  2.1968
19536SOL     OW59185   3.530   6.078   2.068 -0.1672 -0.2395  0.0836
19536SOL    HW159186   3.515   5.984   2.079  1.3659 -1.0814 -3.4535
19536SOL    HW259187   3.613   6.095   2.111 -0.6115 -0.3766  1.0260
19537SOL     OW59188   2.509   1.264   2.120  0.0790  0.7105  0.0176
19537SOL    HW159189   2.549   1.351   2.125 -0.5981  1.1194 -1.2799
19537SOL    HW259190   2.521   1.237   2.029 -0.7917 -0.0288  0.1097
19538SOL     OW59191   7.851   1.297   3.798  0.0041 -0.1737  0.0604
19538SOL    HW159192   7.939   1.283   3.833 -0.0058  1.7805  1.0129
19538SOL    HW259193   7.794   1.292   3.874 -0.4564  0.5831 -0.2274
19539SOL     OW59194   3.817   6.494   4.209 -0.5925  0.0115  0.5815
19539SOL    HW159195   3.835   6.433   4.281 -0.8453 -1.7187 -0.7490
19539SOL    HW259196   3.822   6.440   4.130 -3.0532  1.2171 -0.5199
19540SOL     OW59197   7.334   7.493   4.230  1.1261  0.3730 -0.1946
19540SOL    HW159198   7.240   7.500   4.247  1.0448 -0.1082 -0.4145
19540SOL    HW259199   7.347   7.402   4.205  1.5385  0.5994 -0.8455
19541SOL     OW59200   1.134   5.998   7.480  0.7056 -0.0620 -0.3166
19541SOL    HW159201   1.162   6.001   7.572  2.2590 -0.0812 -0.7570
19541SOL    HW259202   1.065   5.932   7.478  0.3125  0.2930  0.9223
19542SOL     OW59203   2.890   7.162   3.066 -0.0636 -0.2311 -0.3905
19542SOL    HW159204   2.815   7.220   3.052  0.9756  0.8454 -1.8419
19542SOL    HW259205   2.859   7.098   3.129 -1.9624  0.6241 -0.3759
19543SOL     OW59206   9.320   0.295   6.669 -0.1913 -0.0677 -0.3449
19543SOL    HW159207   9.343   0.322   6.758  0.0266 -0.4063 -0.2967
19543SOL    HW259208   9.376   0.349   6.613  0.4567 -0.6157 -0.2390
19544SOL     OW59209   8.369   5.844   6.843 -0.1884  0.3199 -0.6963
19544SOL    HW159210   8.363   5.783   6.769  0.5510  0.2712 -0.7221
19544SOL    HW259211   8.326   5.923   6.812  0.2801  0.3666 -1.2532
19545SOL     OW59212   7.718   6.093   2.196  0.0402  0.0725  0.5956
19545SOL    HW159213   7.698   6.181   2.229  0.4000  1.0494 -1.5866
19545SOL    HW259214   7.803   6.072   2.236 -0.4661  0.2919  1.8430
19546SOL     OW59215   2.176   8.865   2.520  0.2749 -0.2995  0.2752
19546SOL    HW159216   2.233   8.928   2.564  0.1415 -0.4464  0.6679
19546SOL    HW259217   2.215   8.854   2.433  0.8002 -0.3313  0.5077
19547SOL     OW59218   1.531   8.178   4.229 -0.2919 -0.1813  0.0950
19547SOL    HW159219   1.581   8.210   4.303  1.0656  0.4887 -1.0578
19547SOL    HW259220   1.520   8.255   4.172  0.2386 -1.0335 -1.2182
19548SOL     OW59221   0.648   5.380   1.150  0.2007  0.0924  0.3573
19548SOL    HW159222   0.660   5.446   1.218 -0.3680  1.2092 -0.5753
19548SOL    HW259223   0.688   5.420   1.072 -1.1498 -0.1684 -0.4892
19549SOL     OW59224   7.045   9.788   2.142 -0.3921  0.2759  0.2304
19549SOL    HW159225   7.059   9.710   2.088  1.3996  2.0901 -2.1372
19549SOL    HW259226   6.964   9.826   2.108  2.5941  3.5248 -4.3877
19550SOL     OW59227   4.177   9.948   8.726  0.7668  0.1622  0.0811
19550SOL    HW159228   4.101   9.894   8.747  1.7010 -1.9877 -1.6841
19550SOL    HW259229   4.147  10.007   8.657  0.4692 -0.0677  0.0147
19551SOL     OW59230   0.010   6.995   6.669 -0.1851  0.0444  0.1215
19551SOL    HW159231   0.041   6.904   6.677 -1.0100 -0.2490  0.0309
19551SOL    HW259232  -0.035   7.012   6.751  0.7566  0.6921  0.5190
19552SOL     OW59233   6.700   4.062   2.931  0.0505  0.2994  0.2478
19552SOL    HW159234   6.611   4.091   2.952 -0.2353 -0.1797 -0.3016
19552SOL    HW259235   6.689   3.976   2.891  0.8076 -0.0366  0.7341
19553SOL     OW59236   0.795   2.448   4.001  0.8699  0.1698 -0.1273
19553SOL    HW159237   0.816   2.517   4.065  1.3483  0.7186 -0.8606
19553SOL    HW259238   0.724   2.398   4.042  0.2186  1.3613  0.2432
19554SOL     OW59239   9.780   6.652   2.690  0.2358  0.1130  0.0180
19554SOL    HW159240   9.865   6.696   2.695  0.4361  0.0051 -1.7356
19554SOL    HW259241   9.724   6.713   2.642 -0.3169 -0.3379  0.0734
19555SOL     OW59242   6.529   1.933   3.638 -0.1866  0.2349  0.1967
19555SOL    HW159243   6.516   2.011   3.692  0.2108 -0.3460  1.1578
19555SOL    HW259244   6.623   1.931   3.622  0.4091 -1.9229  3.1833
19556SOL     OW59245   9.587   9.073   0.354 -0.2365  0.1724 -0.2738
19556SOL    HW159246   9.494   9.049   0.362 -0.0363 -0.7320 -0.5606
19556SOL    HW259247   9.621   9.014   0.288  0.4597  0.7833 -0.4749
19557SOL     OW59248   1.304   7.060   8.473  0.2953  0.0744  0.2005
19557SOL    HW159249   1.366   7.068   8.401  0.6773  0.6747  0.5828
19557SOL    HW259250   1.312   6.969   8.502  0.0742 -0.1967 -0.5629
19558SOL     OW59251   6.917   7.306   0.593  0.3428  0.0665  0.5823
19558SOL    HW159252   6.862   7.234   0.624  1.9277 -1.1428  0.7261
19558SOL    HW259253   6.857   7.365   0.547 -1.1701 -0.7927  1.3798
19559SOL     OW59254   9.569   4.151   7.752  0.2714 -0.2728 -0.2800
19559SOL    HW159255   9.563   4.139   7.847  1.1368  0.0076 -0.1888
19559SOL    HW259256   9.661   4.135   7.731  0.4785  1.4469 -0.8157
19560SOL     OW59257   5.514   6.311   1.962 -0.1728 -0.6332  0.1314
19560SOL    HW159258   5.455   6.353   1.900  2.3591  1.9386 -0.7748
19560SOL    HW259259   5.535   6.227   1.922 -0.5900 -0.1258 -1.2083
19561SOL     OW59260   0.525   4.536   6.900 -0.0082 -0.4530 -0.3053
19561SOL    HW159261   0.575   4.524   6.981  0.6164 -0.1669 -0.6434
19561SOL    HW259262   0.453   4.473   6.907 -0.5251  0.2335  0.9117
19562SOL     OW59263   7.629   9.734   9.547  0.7784  0.5066  0.0683
19562SOL    HW159264   7.672   9.771   9.625  0.9311  0.9886 -0.2399
19562SOL    HW259265   7.648   9.640   9.551 -0.2505  0.3219  1.2711
19563SOL     OW59266   5.066   1.445   9.448  0.0315  0.0322 -0.0015
19563SOL    HW159267   5.037   1.505   9.517 -2.6631 -0.6134 -0.4900
19563SOL    HW259268   5.124   1.383   9.493 -0.7086  0.3321  1.4190
19564SOL     OW59269   1.111   5.195   7.950 -0.6130  0.1788 -0.0300
19564SOL    HW159270   1.108   5.282   7.988 -0.9997  0.2288 -0.1748
19564SOL    HW259271   1.186   5.197   7.890  0.6437 -0.2146  1.4739
19565SOL     OW59272   5.691   9.629   8.728  0.5925 -0.3095 -0.2952
19565SOL    HW159273   5.757   9.643   8.660  0.1557 -0.8478 -0.8370
19565SOL    HW259274   5.690   9.534   8.741  0.4713 -0.2341  0.2617
19566SOL     OW59275   8.679   3.058   4.879 -0.0058  0.1026  0.6677
19566SOL    HW159276   8.618   3.017   4.818 -0.2107  0.9861  0.2680
19566SOL    HW259277   8.762   3.061   4.832 -0.2345  1.0542  0.2990
19567SOL     OW59278   9.867   2.119   7.645  0.1593 -0.2723 -0.1848
19567SOL    HW159279   9.909   2.188   7.594  0.7591  0.4413  1.2241
19567SOL    HW259280   9.908   2.124   7.731 -1.6168 -0.6809  0.7295
19568SOL     OW59281   2.151   6.210   5.628  0.1367  0.0241  0.4630
19568SOL    HW159282   2.071   6.181   5.584  1.3195 -1.0336 -1.0970
19568SOL    HW259283   2.210   6.235   5.556  0.9696  1.4886  1.5951
19569SOL     OW59284   2.455   2.879   2.269  0.0469 -0.4335  0.2610
19569SOL    HW159285   2.500   2.908   2.190 -0.9052 -0.6817 -0.3899
19569SOL    HW259286   2.369   2.921   2.264 -1.0765 -2.6311 -0.2923
19570SOL     OW59287   8.694   8.643   8.894  0.8733  0.3387  0.1557
19570SOL    HW159288   8.624   8.707   8.906  0.3555 -0.3510  0.9268
19570SOL    HW259289   8.729   8.662   8.806  0.4418  1.3767  0.1973
19571SOL     OW59290   4.111   5.865   7.674  0.2404  0.3069 -0.0136
19571SOL    HW159291   4.032   5.913   7.653  0.4896  0.7023 -0.0559
19571SOL    HW259292   4.094   5.826   7.759 -0.2091 -0.0722 -0.2743
19572SOL     OW59293   4.968   4.894   6.871 -0.8247 -0.2795 -0.3932
19572SOL    HW159294   4.924   4.809   6.876 -0.6199 -0.3905 -0.4297
19572SOL    HW259295   4.975   4.912   6.777 -0.1866 -0.5909 -0.4170
19573SOL     OW59296   8.900   7.890   8.271  0.5489  0.1796  0.4985
19573SOL    HW159297   8.913   7.974   8.225  0.4083 -1.3827 -2.6798
19573SOL    HW259298   8.986   7.867   8.303  1.1955  0.2654 -1.0804
19574SOL     OW59299   1.205   7.233   0.416 -0.0962  0.3366 -0.2519
19574SOL    HW159300   1.282   7.187   0.452  1.4917  1.1404 -2.4121
19574SOL    HW259301   1.144   7.163   0.392 -0.2193 -0.3071  1.7600
19575SOL     OW59302   1.633   5.942   9.059 -1.0103  0.2357 -0.1496
19575SOL    HW159303   1.701   6.000   9.025  0.3029 -0.3654  1.3657
19575SOL    HW259304   1.587   5.911   8.981 -0.7786  2.1125 -1.0888
19576SOL     OW59305   1.495   4.084   9.137 -0.3180  0.2923 -0.2373
19576SOL    HW159306   1.429   4.084   9.207  1.0203  0.7400  1.0761
19576SOL    HW259307   1.552   4.010   9.158  0.7197  1.0751 -0.2356
19577SOL     OW59308   5.586   6.944   5.310  0.3555 -0.0124 -0.0759
19577SOL    HW159309   5.530   7.016   5.340 -0.0333  0.0215 -0.8361
19577SOL    HW259310   5.612   6.970   5.222 -0.0643 -0.9530 -0.4872
19578SOL     OW59311   9.809   1.551   0.834 -0.9008  0.8070 -0.0154
19578SOL    HW159312   9.900   1.521   0.825 -1.3380 -0.7950  0.5794
19578SOL    HW259313   9.789   1.592   0.750 -0.3458 -0.9377 -1.0558
19579SOL     OW59314   6.936   6.638   2.096 -0.0799  0.0561  0.5480
19579SOL    HW159315   6.923   6.708   2.160 -1.3486  1.4553 -1.1324
19579SOL    HW259316   6.869   6.654   2.029  1.3361 -1.1602 -1.2676
19580SOL     OW59317   2.064   1.478   8.526 -0.0187 -0.3700 -0.3894
19580SOL    HW159318   1.991   1.516   8.575  0.9017 -0.8407  1.4034
19580SOL    HW259319   2.042   1.385   8.519  0.1188 -0.4031 -0.3817
19581SOL     OW59320   3.174   1.972   4.959 -0.2799 -0.6492  0.1388
19581SOL    HW159321   3.207   2.026   5.031  0.3439  1.3934 -1.5635
19581SOL    HW259322   3.120   2.031   4.907 -0.3774 -1.9421 -1.3150
19582SOL     OW59323   1.942   6.772   7.739 -0.3392  0.1515 -0.3046
19582SOL    HW159324   1.942   6.676   7.741  1.3541  0.1285  0.1170
19582SOL    HW259325   1.961   6.798   7.829  0.9720  0.8296 -0.7535
19583SOL     OW59326   2.509  10.006   8.002  0.4422  0.2570 -0.1519
19583SOL    HW159327   2.418   9.985   7.983  0.0722  0.3928  1.3237
19583SOL    HW259328   2.560   9.951   7.942 -0.5898 -0.1504 -0.6825
19584SOL     OW59329   7.725   3.766   5.097  0.0158 -0.5218 -0.1802
19584SOL    HW159330   7.789   3.708   5.057 -0.0116 -0.9166  0.3409
19584SOL    HW259331   7.695   3.719   5.175  0.8345  0.6671  0.8872
19585SOL     OW59332   4.778   1.062   6.253 -0.0764 -0.3181  0.1330
19585SOL    HW159333   4.852   1.102   6.208 -0.9971  0.2560 -0.9047
19585SOL    HW259334   4.756   1.123   6.323 -0.1480 -0.0365 -0.1342
19586SOL     OW59335   5.003   8.233   7.074  0.1097 -0.4883 -0.3429
19586SOL    HW159336   4.967   8.322   7.082  1.1193  0.5172 -4.5160
19586SOL    HW259337   5.077   8.232   7.135 -0.6352  1.1049  0.6550
19587SOL     OW59338   9.613   7.656   0.128  0.5124 -0.0508  0.2611
19587SOL    HW159339   9.674   7.677   0.199  2.7380 -1.0158 -1.2527
19587SOL    HW259340   9.575   7.572   0.153 -0.1524  0.4994  1.1560
19588SOL     OW59341   9.612   6.767   3.728 -0.0881 -0.7015 -0.3569
19588SOL    HW159342   9.596   6.722   3.810  1.2431 -0.2799  0.1582
19588SOL    HW259343   9.614   6.697   3.662  1.9772 -1.4310  0.4326
19589SOL     OW59344   2.474   5.286   6.581 -0.0395  0.2996  0.6392
19589SOL    HW159345   2.430   5.337   6.650 -1.1878 -2.0790  1.7616
19589SOL    HW259346   2.410   5.280   6.511 -0.4440 -0.7548  1.0897
19590SOL     OW59347   2.969   4.759   3.263  0.3951 -0.0438  0.4393
19590SOL    HW159348   3.024   4.828   3.299  0.2021  0.1787  0.3202
19590SOL    HW259349   2.882   4.777   3.298 -0.1004  1.0101 -1.1961
19591SOL     OW59350   1.108   1.027   8.751  0.4129  0.2927  0.0619
19591SOL    HW159351   1.083   1.005   8.661 -0.2290  0.3956  0.2094
19591SOL    HW259352   1.126   0.943   8.792  1.9619  0.3059 -0.5004
19592SOL     OW59353   0.927   9.489   3.657  0.0853  0.5891  0.1786
19592SOL    HW159354   0.848   9.436   3.653 -0.1241  0.7528  1.6425
19592SOL    HW259355   0.898   9.574   3.690  0.6664  1.1230 -0.6224
19593SOL     OW59356   3.609   2.355   1.523 -0.0902  0.3877  0.1437
19593SOL    HW159357   3.567   2.436   1.495 -0.1477 -0.7775 -3.8470
19593SOL    HW259358   3.693   2.355   1.478 -0.1547 -1.7752 -0.1054
19594SOL     OW59359   7.437   9.780   8.354 -0.3357  0.4135  0.0144
19594SOL    HW159360   7.392   9.703   8.318  2.5428 -0.9559 -0.9966
19594SOL    HW259361   7.454   9.757   8.446 -0.8707  0.5240  0.1401
19595SOL     OW59362   8.632   1.633   3.426 -0.1571 -0.0256  0.3314
19595SOL    HW159363   8.604   1.665   3.340  0.7154  0.7743  0.3191
19595SOL    HW259364   8.616   1.707   3.485 -1.1681 -0.7222  0.9597
19596SOL     OW59365   4.104   3.724   2.592 -0.4557 -0.5077  0.4604
19596SOL    HW159366   4.032   3.756   2.538 -0.6987  0.8735  1.5462
19596SOL    HW259367   4.150   3.661   2.536 -1.2535  0.1574 -1.0033
19597SOL     OW59368   8.054   6.877   8.314 -0.1796 -0.0644  0.2003
19597SOL    HW159369   8.132   6.821   8.308 -0.4440 -0.2852 -1.7527
19597SOL    HW259370   8.048   6.920   8.229 -1.4353  1.0126  0.7905
19598SOL     OW59371   8.011   1.461   1.617 -0.1479  0.1914  1.1405
19598SOL    HW159372   8.056   1.390   1.571 -1.2426 -0.3867  0.9404
19598SOL    HW259373   8.080   1.503   1.669  1.0337  0.6324 -0.7063
19599SOL     OW59374   7.381   8.267   4.661 -0.3206 -0.2833  0.2669
19599SOL    HW159375   7.470   8.277   4.694 -0.5096 -0.6793  0.9178
19599SOL    HW259376   7.391   8.224   4.576  0.3447  2.9599 -1.4652
19600SOL     OW59377   9.503   2.412   6.045 -0.1770 -0.2997 -0.5079
19600SOL    HW159378   9.526   2.402   5.953  0.9079  0.4707 -0.3340
19600SOL    HW259379   9.581   2.385   6.093  0.5727  2.6080  0.0857
19601SOL     OW59380   4.725   4.295   9.570 -0.5130 -0.1524  0.0043
19601SOL    HW159381   4.671   4.217   9.557  0.8810 -1.3601  1.0822
19601SOL    HW259382   4.804   4.279   9.519 -0.3261  0.6973  0.0099
19602SOL     OW59383   1.884   8.175   8.386  0.6450 -0.5678 -0.2321
19602SOL    HW159384   1.886   8.270   8.398 -0.6228 -0.6685  0.9991
19602SOL    HW259385   1.939   8.160   8.309  1.3891  1.0888 -0.0744
19603SOL     OW59386   1.560   7.018   2.286 -0.3849  0.0922  0.4359
19603SOL    HW159387   1.536   7.084   2.351  0.3888 -0.0309  0.8678
19603SOL    HW259388   1.649   6.990   2.312  0.2701  0.6024 -1.1383
19604SOL     OW59389   9.178   3.152   3.219 -0.4175  0.4792 -0.2179
19604SOL    HW159390   9.192   3.070   3.171 -0.0889  0.9977 -1.0137
19604SOL    HW259391   9.138   3.124   3.302 -3.7595 -0.2676 -1.9110
19605SOL     OW59392   9.847   3.884   4.919 -0.3653  0.3011  0.0927
19605SOL    HW159393   9.893   3.818   4.868  0.7767  1.6980 -0.7970
19605SOL    HW259394   9.845   3.850   5.008  1.0653 -0.4903 -0.1501
19606SOL     OW59395   6.955   1.769   4.515 -0.0927  0.1866  0.2285
19606SOL    HW159396   6.860   1.762   4.509  0.0386 -1.6251 -0.3906
19606SOL    HW259397   6.986   1.680   4.503  1.7320  0.8568 -0.3795
19607SOL     OW59398   9.765   4.267   1.678  0.1371  0.0555  0.8625
19607SOL    HW159399   9.679   4.271   1.721 -2.0219 -1.6811 -2.8532
19607SOL    HW259400   9.782   4.174   1.667 -0.5251  0.2440 -3.5601
19608SOL     OW59401   5.795   3.832   0.530 -0.0086 -0.0573  0.4015
19608SOL    HW159402   5.804   3.922   0.562  0.9297 -0.2512  0.7296
19608SOL    HW259403   5.881   3.811   0.494 -0.4244 -0.5918 -0.2942
19609SOL     OW59404   3.685   6.742   4.967  0.2500 -0.4999 -0.1341
19609SOL    HW159405   3.705   6.719   5.058  2.0329  0.8219 -0.1464
19609SOL    HW259406   3.615   6.682   4.943  0.5938 -1.7470  1.7120
19610SOL     OW59407   6.339   1.308   9.973 -0.6563 -0.0238  0.4637
19610SOL    HW159408   6.320   1.401   9.960  1.8648  0.3516 -1.1978
19610SOL    HW259409   6.281   1.263   9.911 -0.3378  0.6410 -0.3434
19611SOL     OW59410   7.252   0.233   4.192  0.2068 -0.1578  0.0912
19611SOL    HW159411   7.197   0.305   4.163  0.5028 -0.2552 -0.7249
19611SOL    HW259412   7.276   0.187   4.112 -0.3637 -1.4488  0.6214
19612SOL     OW59413   0.517   3.884   6.538  0.9135  0.0943  0.3478
19612SOL    HW159414   0.541   3.892   6.446 -0.2217 -0.1118  0.0191
19612SOL    HW259415   0.447   3.948   6.550  0.1735 -0.7728  0.7422
19613SOL     OW59416   6.786   0.078   1.175  0.6916 -0.3357  0.1960
19613SOL    HW159417   6.705   0.030   1.196  0.6252 -0.1473  0.3796
19613SOL    HW259418   6.780   0.157   1.229  0.6916 -0.0122 -0.2766
19614SOL     OW59419   4.131   4.069   6.035 -0.2746  0.1834 -0.2838
19614SOL    HW159420   4.151   3.984   5.994 -0.6372  0.1783 -0.4600
19614SOL    HW259421   4.212   4.095   6.078  0.5690  0.8475 -2.1635
19615SOL     OW59422   2.555   8.763   6.207  0.2718 -0.2739  0.6048
19615SOL    HW159423   2.565   8.822   6.281 -1.1088  0.4627  0.2182
19615SOL    HW259424   2.645   8.748   6.177  0.6363  2.7159 -0.1335
19616SOL     OW59425   1.846   0.353   3.510 -0.6132  0.0332 -0.1075
19616SOL    HW159426   1.905   0.287   3.545  0.2784  1.2270  0.7436
19616SOL    HW259427   1.763   0.307   3.497 -0.5385 -0.8735  2.1277
19617SOL     OW59428   1.685   2.985   4.840 -0.8425  0.1682  0.0084
19617SOL    HW159429   1.697   3.074   4.874 -2.6400 -0.0968  1.4639
19617SOL    HW259430   1.631   2.996   4.761 -1.9061  0.3175  0.7385
19618SOL     OW59431   2.056   2.652   8.132 -0.0991 -0.0744  0.4699
19618SOL    HW159432   2.102   2.726   8.093 -1.7619  1.2030  0.7724
19618SOL    HW259433   2.016   2.606   8.058  0.7689 -0.5676  0.2988
19619SOL     OW59434   3.221   2.415   0.982  0.2944 -0.1930  0.4207
19619SOL    HW159435   3.252   2.418   1.072  0.2707 -1.8183  0.5230
19619SOL    HW259436   3.179   2.499   0.968  1.2460  0.5096  1.5695
19620SOL     OW59437   7.013   9.058   9.426  0.1137  0.1600  0.1313
19620SOL    HW159438   6.999   9.118   9.500  0.8302  0.7520 -0.1994
19620SOL    HW259439   6.931   9.010   9.419 -0.0206  0.2019  1.2170
19621SOL     OW59440   9.285   0.287   4.196 -0.5781 -0.7414 -0.4378
19621SOL    HW159441   9.211   0.290   4.256  0.2226 -0.3125  0.5524
19621SOL    HW259442   9.316   0.377   4.191 -0.2976 -0.8662 -1.0795
19622SOL     OW59443   4.675   6.438   8.221  0.0918 -0.0293 -0.1503
19622SOL    HW159444   4.705   6.370   8.282  1.4709  0.0708 -0.6787
19622SOL    HW259445   4.712   6.519   8.255 -2.5711  0.7559  1.1922
19623SOL     OW59446   4.491   6.874   8.816  0.3047  0.4830  0.0556
19623SOL    HW159447   4.485   6.953   8.869 -3.5202 -0.0212  0.6198
19623SOL    HW259448   4.411   6.826   8.835  1.8381 -2.9375 -1.2858
19624SOL     OW59449   9.340   9.063   9.837 -0.5981  0.0639  0.0237
19624SOL    HW159450   9.257   9.109   9.852  0.0909  1.5156 -0.4700
19624SOL    HW259451   9.329   8.979   9.881 -2.3022  0.2644  0.0376
19625SOL     OW59452   2.705   4.732   0.532  0.2554 -0.4328  0.5256
19625SOL    HW159453   2.770   4.767   0.593  0.3997  0.8663 -0.3412
19625SOL    HW259454   2.621   4.755   0.572  0.3479  0.4610  0.2273
19626SOL     OW59455   6.078   6.296   3.696 -0.3858  0.1328 -0.0851
19626SOL    HW159456   6.022   6.268   3.769 -0.2768 -0.8426 -0.3629
19626SOL    HW259457   6.089   6.390   3.710 -0.1080 -0.0822  1.3419
19627SOL     OW59458   5.012   6.578   9.605 -0.6673 -0.7763  0.1026
19627SOL    HW159459   5.068   6.637   9.656  0.6386 -3.1645  1.6213
19627SOL    HW259460   5.018   6.612   9.515  1.2449  0.5114  0.6452
19628SOL     OW59461   0.109   4.676   6.704 -0.4342  0.0099 -0.4779
19628SOL    HW159462   0.035   4.729   6.733 -0.9807  0.1351 -2.0252
19628SOL    HW259463   0.079   4.585   6.712  0.1212 -0.0702  1.1416
19629SOL     OW59464   1.585   4.708   9.970 -0.1049  0.4588  0.0183
19629SOL    HW159465   1.568   4.710   9.876 -0.5206  0.0805  0.0805
19629SOL    HW259466   1.558   4.794  10.001  1.3945  1.1250 -0.4235
19630SOL     OW59467   5.312   1.646   5.798  0.3043  0.3276  0.8354
19630SOL    HW159468   5.313   1.642   5.703  1.6914 -1.1525  0.8827
19630SOL    HW259469   5.224   1.615   5.823 -0.6952  2.3455  0.0371
19631SOL     OW59470   4.002   4.375   5.777  0.1555 -0.2490 -0.3884
19631SOL    HW159471   3.966   4.325   5.850  0.4467 -0.6420 -0.5128
19631SOL    HW259472   3.966   4.334   5.699 -1.8907  1.4803 -0.4468
19632SOL     OW59473   6.853   0.195   9.001  0.3562  0.2943  0.6332
19632SOL    HW159474   6.905   0.162   9.074 -1.1526 -0.3319  1.4486
19632SOL    HW259475   6.816   0.117   8.960  2.2176  0.5113 -1.6699
19633SOL     OW59476   6.194   4.819   2.207 -0.4433  0.4673  0.5171
19633SOL    HW159477   6.254   4.884   2.244 -1.4564  1.3321  0.6932
19633SOL    HW259478   6.108   4.846   2.237 -1.0277 -0.2277 -0.4758
19634SOL     OW59479   7.328   2.342   9.698 -0.2461 -0.0690  0.0002
19634SOL    HW159480   7.325   2.434   9.671  1.0395  0.0272  0.1023
19634SOL    HW259481   7.289   2.341   9.785 -2.7758 -0.0928 -1.0705
19635SOL     OW59482   3.971   6.179   2.043 -0.2335  0.0674  0.1134
19635SOL    HW159483   3.970   6.192   1.949  0.2195 -0.1877  0.0681
19635SOL    HW259484   3.882   6.152   2.065 -0.1216 -0.7222 -0.3700
19636SOL     OW59485   8.073   0.477   7.247  0.5194  0.5328 -0.5419
19636SOL    HW159486   8.150   0.460   7.301 -0.3098 -1.0915  0.2109
19636SOL    HW259487   8.073   0.407   7.182 -0.0874  0.7604 -0.8018
19637SOL     OW59488   2.004   7.912   5.278  0.1247  0.4580  0.3009
19637SOL    HW159489   1.911   7.913   5.300  0.4968  0.7362  1.9895
19637SOL    HW259490   2.006   7.911   5.182 -1.6157  4.0804  0.0884
19638SOL     OW59491   5.013   2.821   6.080 -0.0644  0.2848  0.0801
19638SOL    HW159492   5.096   2.777   6.097  0.8782  1.5941 -0.9568
19638SOL    HW259493   5.033   2.915   6.084 -1.6784  0.6531  0.6420
19639SOL     OW59494   0.086   2.435   2.809 -0.1891 -0.4658  0.2625
19639SOL    HW159495   0.063   2.456   2.899 -0.0812  0.6661  0.0468
19639SOL    HW259496   0.005   2.451   2.760 -0.5632 -2.1301  0.2907
19640SOL     OW59497   9.306   9.041   6.737 -0.1400  0.4341  0.5389
19640SOL    HW159498   9.336   8.952   6.719  1.5608  0.8838  0.9648
19640SOL    HW259499   9.298   9.082   6.651  0.0518  0.1717  0.3960
19641SOL     OW59500   7.886   8.157   6.089  0.0581  0.1641  0.5532
19641SOL    HW159501   7.915   8.213   6.018 -0.2980  1.1579  1.1770
19641SOL    HW259502   7.965   8.137   6.138  0.2411 -0.1892  0.1206
19642SOL     OW59503   0.162  -0.023   1.645  0.2817  0.6835 -0.5472
19642SOL    HW159504   0.103   0.042   1.607 -0.6240 -0.3407 -0.9073
19642SOL    HW259505   0.231   0.030   1.686 -0.5654  1.8799 -0.6063
19643SOL     OW59506   5.299   9.791   7.640 -0.2721  0.6021 -0.3830
19643SOL    HW159507   5.228   9.726   7.637 -0.6104  0.9245  0.2896
19643SOL    HW259508   5.356   9.768   7.567 -0.2945 -0.5647 -0.0567
19644SOL     OW59509   6.472   8.863   3.347  0.0177  0.1489  0.7155
19644SOL    HW159510   6.401   8.799   3.342 -0.7150  0.8497  1.6678
19644SOL    HW259511   6.524   8.836   3.422  0.6468 -0.2388  0.1498
19645SOL     OW59512   4.091   5.629   8.343 -0.0743  0.2932  0.1609
19645SOL    HW159513   4.162   5.574   8.309  0.2259  0.2219  0.9023
19645SOL    HW259514   4.042   5.572   8.401  0.7243  1.0120  1.5824
19646SOL     OW59515   9.922   8.903   0.936  0.2620 -0.5864 -0.0407
19646SOL    HW159516   9.934   8.809   0.923  0.9511 -0.3024 -1.6781
19646SOL    HW259517   9.887   8.934   0.853  1.4605  0.8300 -0.0522
19647SOL     OW59518   9.109   2.855   6.164 -0.2623  0.2026  0.4430
19647SOL    HW159519   9.118   2.935   6.113  0.6250 -0.5075 -0.5631
19647SOL    HW259520   9.067   2.793   6.105  1.8865 -1.0097  0.0827
19648SOL     OW59521   4.506   1.137   7.395  0.7883 -0.3964 -0.4159
19648SOL    HW159522   4.520   1.216   7.448 -0.4531  0.7316 -1.6611
19648SOL    HW259523   4.593   1.111   7.367  1.1549  1.4085 -1.1204
19649SOL     OW59524   2.877   9.739   1.151 -0.1214  0.0267  0.1561
19649SOL    HW159525   2.809   9.753   1.216 -0.0523  0.3409  0.1616
19649SOL    HW259526   2.930   9.668   1.187 -0.1709  0.0990  0.3708
19650SOL     OW59527   0.723   8.108   5.182  0.1080 -0.3635 -0.2434
19650SOL    HW159528   0.717   8.031   5.126 -0.8688  0.2118 -0.9759
19650SOL    HW259529   0.736   8.074   5.270 -1.2755 -1.4171 -0.4092
19651SOL     OW59530   7.259   4.739   8.165  0.1110 -0.7606 -0.2528
19651SOL    HW159531   7.232   4.757   8.075  0.2193  1.0413  0.0483
19651SOL    HW259532   7.347   4.702   8.157  0.0015 -0.8973 -0.8864
19652SOL     OW59533   1.726   3.386   6.699  0.3110  0.5277  0.0526
19652SOL    HW159534   1.723   3.443   6.622  2.6208  0.0507 -0.4708
19652SOL    HW259535   1.713   3.298   6.664  0.1454  0.4187  0.3846
19653SOL     OW59536   4.609   7.908   0.112 -0.8828 -0.3761  0.1251
19653SOL    HW159537   4.584   7.998   0.090  0.2387  0.5295  2.2961
19653SOL    HW259538   4.640   7.871   0.029 -0.7491  1.4514 -0.6853
19654SOL     OW59539   8.723   8.012   1.334  0.5287  0.0802  0.2867
19654SOL    HW159540   8.811   7.982   1.312 -0.0007 -0.9168 -0.5629
19654SOL    HW259541   8.688   7.943   1.391 -0.1841 -0.2314 -0.5031
19655SOL     OW59542   8.141   7.063   9.896 -0.4284  0.0957 -0.0899
19655SOL    HW159543   8.098   6.980   9.874 -0.6806 -0.1071  1.1181
19655SOL    HW259544   8.169   7.098   9.811 -0.3406 -1.2046 -0.6309
19656SOL     OW59545   9.309   9.923   2.786  0.3620  0.1175 -0.6410
19656SOL    HW159546   9.235   9.985   2.786  0.0028 -0.2409  1.6566
19656SOL    HW259547   9.281   9.851   2.842  1.8713 -0.7926 -0.9900
19657SOL     OW59548   0.565   7.267   5.206  0.3795 -0.4202 -0.2980
19657SOL    HW159549   0.629   7.294   5.273  0.4447  3.0365 -1.5347
19657SOL    HW259550   0.606   7.292   5.123 -2.0149  0.7125 -1.2121
19658SOL     OW59551   5.055   4.254   2.569  0.0922  0.2984  0.5293
19658SOL    HW159552   4.963   4.279   2.576  0.0699  0.1625  0.7308
19658SOL    HW259553   5.059   4.167   2.610  0.3220  0.3353  0.5831
19659SOL     OW59554   8.820   1.317   0.306 -1.1205  0.2730 -0.2782
19659SOL    HW159555   8.767   1.381   0.355 -0.4371 -0.1225  1.0446
19659SOL    HW259556   8.757   1.269   0.253 -1.8050  1.2294 -0.3647
19660SOL     OW59557   9.152   5.811   1.617 -0.5100 -0.0372 -0.1133
19660SOL    HW159558   9.112   5.853   1.541 -0.0409 -0.6890 -0.7266
19660SOL    HW259559   9.181   5.884   1.672 -3.8112  0.5318  1.1036
19661SOL     OW59560   3.754   6.951   0.195  0.4526 -0.4304  0.2243
19661SOL    HW159561   3.661   6.962   0.178  0.2489  1.3359  2.0522
19661SOL    HW259562   3.760   6.948   0.291  2.4183  1.6562  0.2499
19662SOL     OW59563   4.720   1.381   7.057 -0.0908  0.0126 -0.3327
19662SOL    HW159564   4.692   1.444   6.990 -0.3288 -1.3697 -1.5752
19662SOL    HW259565   4.796   1.338   7.018 -0.3999 -0.9976  0.1674
19663SOL     OW59566   9.416   5.261   1.074 -0.5907 -0.1751 -0.0160
19663SOL    HW159567   9.448   5.319   1.143  0.4031 -2.4540  1.5669
19663SOL    HW259568   9.414   5.316   0.995 -0.8260  2.2746  1.5707
19664SOL     OW59569   0.886   1.625   6.044 -0.0656  0.7919 -0.1438
19664SOL    HW159570   0.913   1.661   5.960  1.0746  0.5337  0.0995
19664SOL    HW259571   0.922   1.686   6.110  0.6626  0.0040  0.2111
19665SOL     OW59572   4.678   9.008   4.885 -1.4049 -0.4184  0.1162
19665SOL    HW159573   4.767   9.041   4.870 -1.3610 -1.0448 -1.1315
19665SOL    HW259574   4.628   9.036   4.809 -1.9555 -1.1513  0.1933
19666SOL     OW59575   0.397   1.656   4.355 -0.5258 -0.8115  0.7893
19666SOL    HW159576   0.452   1.730   4.329 -2.8406  1.2770  1.5273
19666SOL    HW259577   0.422   1.586   4.295  0.0129  1.3179 -1.6544
19667SOL     OW59578   6.770   5.045   3.768 -0.3658 -0.0730 -0.5047
19667SOL    HW159579   6.754   5.106   3.841 -0.8632 -0.4595 -0.2815
19667SOL    HW259580   6.865   5.050   3.753 -0.4617  1.1891 -0.8810
19668SOL     OW59581   8.889   4.478   9.322  0.5612 -0.0256  0.0997
19668SOL    HW159582   8.942   4.412   9.278  0.6168  1.0239 -1.5051
19668SOL    HW259583   8.952   4.540   9.358  0.4977 -0.6205  1.2854
19669SOL     OW59584   5.540   0.773   2.718  0.3741  0.0009  0.0855
19669SOL    HW159585   5.514   0.689   2.755  1.0172 -0.5001 -0.5580
19669SOL    HW259586   5.458   0.821   2.707  0.0064 -0.5104  0.5258
19670SOL     OW59587   8.568   8.223   9.162 -0.6897  0.1341 -0.1120
19670SOL    HW159588   8.517   8.254   9.087  1.1141 -1.2488 -2.0207
19670SOL    HW259589   8.534   8.136   9.180  0.1119 -0.2876 -0.5787
19671SOL     OW59590   3.482   8.812   6.718 -0.3779  0.4632 -0.3543
19671SOL    HW159591   3.480   8.760   6.638 -2.5372  1.4216 -1.0091
19671SOL    HW259592   3.470   8.749   6.788 -0.4211 -0.1963 -0.9391
19672SOL     OW59593   3.143   9.416   3.892 -0.3305 -0.3572  0.2360
19672SOL    HW159594   3.132   9.359   3.968 -0.3080  0.9299  1.2308
19672SOL    HW259595   3.084   9.379   3.826  0.0740 -1.8348  0.6461
19673SOL     OW59596   4.268   3.292   9.654 -0.1051 -0.1065 -0.3253
19673SOL    HW159597   4.215   3.255   9.583  0.2229 -0.8714 -0.1830
19673SOL    HW259598   4.247   3.385   9.654  0.0148 -0.0691 -1.5376
19674SOL     OW59599   9.542   4.065   3.384  0.1252 -0.4673 -0.2781
19674SOL    HW159600   9.582   3.985   3.418  2.4154  0.7795  0.2015
19674SOL    HW259601   9.531   4.048   3.290  1.7621 -0.9572 -0.4166
19675SOL     OW59602   4.733   5.286   5.772  0.6950  0.0945  0.3702
19675SOL    HW159603   4.717   5.378   5.752  0.8332  0.1027  0.2967
19675SOL    HW259604   4.688   5.238   5.703 -2.0140 -0.0008  2.0624
19676SOL     OW59605   0.333   3.461   9.635  0.0043 -0.1275  0.1569
19676SOL    HW159606   0.326   3.385   9.693  0.0975  1.1959  1.9661
19676SOL    HW259607   0.423   3.458   9.602  0.0791 -0.6558  0.4011
19677SOL     OW59608   6.217   3.615   7.278 -0.2173  0.0188 -0.2038
19677SOL    HW159609   6.174   3.665   7.348 -0.6120 -1.1038  0.3735
19677SOL    HW259610   6.160   3.628   7.202  0.4940  1.6805 -0.4945
19678SOL     OW59611   4.869   9.165   7.304  0.0861  0.6522 -0.3543
19678SOL    HW159612   4.905   9.078   7.319 -1.1732  0.4690  2.0044
19678SOL    HW259613   4.937   9.225   7.334 -0.1626  0.3962  0.7445
19679SOL     OW59614   8.859   4.066   3.723 -0.3458 -0.3115 -0.6443
19679SOL    HW159615   8.783   4.084   3.669 -2.1514 -1.5055  1.3460
19679SOL    HW259616   8.850   3.974   3.748  2.1020 -0.6785 -0.7993
19680SOL     OW59617   2.219   8.031   8.461 -0.3814  0.2657 -0.5053
19680SOL    HW159618   2.170   8.047   8.541  1.2793  0.8832  0.4339
19680SOL    HW259619   2.178   8.089   8.396 -1.5283  0.0030 -0.0344
19681SOL     OW59620   9.569   2.666   9.902  0.7742  0.6775 -0.5487
19681SOL    HW159621   9.557   2.583   9.949 -0.7244  0.0918 -1.8609
19681SOL    HW259622   9.584   2.639   9.811  2.8071  1.7980 -0.5990
19682SOL     OW59623   6.002   4.901   9.054 -0.3150  0.3932  0.5723
19682SOL    HW159624   6.064   4.837   9.019  1.0849  2.2539 -0.5497
19682SOL    HW259625   6.024   4.909   9.147 -1.6274 -1.8889  1.1613
19683SOL     OW59626   5.551   6.733   5.459  0.3183 -0.5941  0.8562
19683SOL    HW159627   5.490   6.692   5.398  2.7430 -2.2868 -0.5827
19683SOL    HW259628   5.586   6.808   5.411 -0.1614  0.0256  1.4534
19684SOL     OW59629   1.682   2.814   4.325 -0.2774  0.3112  0.1215
19684SOL    HW159630   1.645   2.868   4.394 -1.9695 -1.0458  0.3460
19684SOL    HW259631   1.745   2.757   4.369  0.4349  1.0821  0.1197
19685SOL     OW59632   5.845   7.711   2.359 -0.5592 -0.1690  0.5231
19685SOL    HW159633   5.916   7.765   2.323  0.1039 -0.7797  0.8921
19685SOL    HW259634   5.766   7.762   2.344  0.0104  0.7184  0.4835
19686SOL     OW59635   0.135   7.047   0.411 -0.0270  0.1031 -0.0641
19686SOL    HW159636   0.219   7.002   0.420 -0.1073  0.0553  0.4913
19686SOL    HW259637   0.108   7.065   0.501 -1.2425 -1.0401 -0.1809
19687SOL     OW59638   3.100   1.693   8.035  0.1233 -0.2212 -0.5952
19687SOL    HW159639   3.189   1.677   8.066 -0.5524 -0.7713  1.1776
19687SOL    HW259640   3.061   1.750   8.102 -1.4337 -1.5320 -0.3058
19688SOL     OW59641   0.624   0.208   2.353  0.3358 -0.1428 -0.3728
19688SOL    HW159642   0.641   0.272   2.423  0.9115  1.0656 -1.5662
19688SOL    HW259643   0.608   0.126   2.399 -0.9623  0.9472  1.2650
19689SOL     OW59644   1.220   0.297   8.804 -0.2455  0.2710  0.2459
19689SOL    HW159645   1.280   0.290   8.878 -0.4536  1.4684  0.5513
19689SOL    HW259646   1.148   0.352   8.836  0.5442  2.4000 -1.3675
19690SOL     OW59647   4.014   6.471   9.411 -0.3277 -0.3221 -0.3258
19690SOL    HW159648   4.033   6.405   9.344 -0.7816 -0.9423  0.1358
19690SOL    HW259649   4.045   6.431   9.493  0.2577  0.4420 -0.1686
19691SOL     OW59650   1.066   8.121   1.059 -0.4293  0.0563  0.2045
19691SOL    HW159651   1.010   8.172   1.118 -1.1667 -0.1254 -0.3239
19691SOL    HW259652   1.005   8.067   1.009  0.2094  0.0031 -0.5281
19692SOL     OW59653   7.221   5.108   6.543  0.6837 -0.4765 -0.0083
19692SOL    HW159654   7.183   5.042   6.601  0.6490 -0.4913 -0.0484
19692SOL    HW259655   7.315   5.102   6.560  0.5788  0.4781  1.0883
19693SOL     OW59656   4.257   9.140   2.190  0.0645 -0.1690  0.0834
19693SOL    HW159657   4.190   9.129   2.257 -1.1356  0.5023 -0.9487
19693SOL    HW259658   4.251   9.061   2.136 -0.0543 -0.0191 -0.1280
19694SOL     OW59659   1.300   1.064   0.305  0.2115 -0.3967 -0.2710
19694SOL    HW159660   1.282   0.976   0.338  0.7542  0.4340  2.4855
19694SOL    HW259661   1.214   1.104   0.296  0.0440 -0.6927 -0.0007
19695SOL     OW59662   8.895   0.022   4.372  0.3628  0.0414 -0.1144
19695SOL    HW159663   8.839   0.019   4.450  0.8347 -0.1273  0.2240
19695SOL    HW259664   8.981  -0.007   4.403  0.4139 -0.5902 -0.8253
19696SOL     OW59665   2.527   0.712   9.850 -0.6173 -0.0095  0.4997
19696SOL    HW159666   2.551   0.651   9.780 -0.9434 -1.1580  1.3566
19696SOL    HW259667   2.593   0.781   9.845  0.6951 -1.2065  0.4543
19697SOL     OW59668   3.055   5.312   7.776 -0.1078  0.2263 -0.0310
19697SOL    HW159669   3.008   5.378   7.826 -1.3227 -0.9180  0.3964
19697SOL    HW259670   3.133   5.357   7.743  0.9540  0.9674  3.1504
19698SOL     OW59671   7.863   5.903   4.565  0.1995 -0.1711  0.3528
19698SOL    HW159672   7.855   5.973   4.500 -1.3389 -0.3439  0.3293
19698SOL    HW259673   7.919   5.940   4.633 -0.3380  0.9789  0.1859
19699SOL     OW59674   4.619   5.174   2.916 -0.3842  0.1190  0.0709
19699SOL    HW159675   4.692   5.235   2.929 -0.3595  0.3034 -0.8539
19699SOL    HW259676   4.543   5.220   2.952  0.0459 -0.3521  1.6608
19700SOL     OW59677   8.911   8.830   8.968 -0.2308  0.3908 -0.0342
19700SOL    HW159678   8.886   8.920   8.946 -0.6522  0.6421  1.3574
19700SOL    HW259679   8.827   8.784   8.975 -0.0175 -0.0930 -0.6653
19701SOL     OW59680   6.225   5.419   2.995 -0.1696  0.2800 -0.9444
19701SOL    HW159681   6.245   5.330   2.964 -0.3274  0.4506 -1.5471
19701SOL    HW259682   6.171   5.457   2.926  0.8898  1.2654 -1.2672
19702SOL     OW59683   6.447   1.616   1.552 -0.2884  0.3226 -0.5524
19702SOL    HW159684   6.359   1.619   1.514  0.0190  0.2127 -1.2975
19702SOL    HW259685   6.488   1.698   1.524 -0.3575  0.6665  0.3214
19703SOL     OW59686   4.708   9.415   7.551 -0.2849  0.2188 -0.6108
19703SOL    HW159687   4.678   9.504   7.534  0.8649  1.0820  1.4493
19703SOL    HW259688   4.635   9.373   7.597 -0.6464  0.2392 -1.1564
19704SOL     OW59689   3.027   6.747   5.314 -0.3163 -0.2596  0.2930
19704SOL    HW159690   3.019   6.692   5.392 -2.8759  0.4696  0.6321
19704SOL    HW259691   3.059   6.831   5.347  2.1411 -0.9854 -0.0253
19705SOL     OW59692   5.147   2.865   5.689 -0.0826  0.0807 -0.4381
19705SOL    HW159693   5.115   2.777   5.708  0.2439 -0.0478 -0.4687
19705SOL    HW259694   5.122   2.881   5.598  1.5311 -0.7554 -1.0755
19706SOL     OW59695   5.170   0.637   5.654  0.1173  0.1175 -0.1508
19706SOL    HW159696   5.090   0.666   5.610  0.8484  0.9233 -0.9901
19706SOL    HW259697   5.159   0.542   5.663 -0.7797  0.1722 -0.5716
19707SOL     OW59698   6.137   4.970   5.459 -0.5122 -0.1310  0.3610
19707SOL    HW159699   6.184   4.901   5.410  1.1843  1.2516 -0.0690
19707SOL    HW259700   6.062   4.925   5.497 -0.0199 -2.0083 -0.7235
19708SOL     OW59701   3.455   9.681   9.377 -0.0644 -0.3033 -0.7617
19708SOL    HW159702   3.533   9.626   9.365  1.6590  0.4235  4.4543
19708SOL    HW259703   3.394   9.625   9.426 -1.1475  0.3998 -1.2728
19709SOL     OW59704   1.231   0.222   1.361 -0.2902 -0.1345  0.3663
19709SOL    HW159705   1.263   0.304   1.322  0.3418 -0.3979  0.3121
19709SOL    HW259706   1.269   0.221   1.449 -0.9591  0.0130  0.6632
19710SOL     OW59707   0.917   0.748   8.320 -0.1568 -0.0695 -0.0866
19710SOL    HW159708   0.917   0.663   8.364  0.6425 -0.1428 -0.2136
19710SOL    HW259709   0.894   0.728   8.229 -0.0463 -0.1409 -0.0989
19711SOL     OW59710   2.538   8.098   5.002  0.1975  0.3857 -0.0314
19711SOL    HW159711   2.603   8.088   5.071 -0.7564 -0.9418  0.7218
19711SOL    HW259712   2.497   8.183   5.019  1.6128  1.1846 -0.4481
19712SOL     OW59713   9.449   3.640   8.207  0.4908 -0.0494 -0.2971
19712SOL    HW159714   9.477   3.549   8.199  0.7934  0.0328 -0.1864
19712SOL    HW259715   9.518   3.683   8.257 -0.6405 -0.2161  1.4986
19713SOL     OW59716   9.694   7.580   3.771  0.1716 -0.3448 -0.0472
19713SOL    HW159717   9.762   7.602   3.835  0.0169  1.3216 -0.4182
19713SOL    HW259718   9.742   7.565   3.690  0.3182 -1.9526  0.2965
19714SOL     OW59719   8.496   5.277   9.970 -0.4974  0.0113 -0.0569
19714SOL    HW159720   8.433   5.216  10.010 -0.2641  0.1931  0.6024
19714SOL    HW259721   8.507   5.244   9.881 -0.6247 -0.7287  0.1869
19715SOL     OW59722   2.025   2.839   0.268  0.3827  0.2531  0.4940
19715SOL    HW159723   2.050   2.893   0.193  1.5487 -1.5623 -0.5008
19715SOL    HW259724   2.091   2.858   0.335  1.8744 -1.2014 -0.5029
19716SOL     OW59725   6.082   1.188   6.309  0.1102 -0.0591 -0.3913
19716SOL    HW159726   6.032   1.135   6.371 -2.1698 -0.1330 -2.1399
19716SOL    HW259727   6.062   1.278   6.332 -1.1422 -0.0882 -1.2246
19717SOL     OW59728   2.111   6.183   6.694  0.0559  0.9697  0.4654
19717SOL    HW159729   2.186   6.175   6.754 -0.4202  2.6562  1.3680
19717SOL    HW259730   2.049   6.238   6.742 -1.5839 -0.0089 -0.4554
19718SOL     OW59731   4.852   3.863   2.264  0.1447 -0.0960  0.3157
19718SOL    HW159732   4.759   3.866   2.287 -0.0155  0.6166 -0.4113
19718SOL    HW259733   4.866   3.940   2.210  1.0527 -0.4781 -0.0044
19719SOL     OW59734   3.845   0.037   6.022  0.6163 -0.3773  0.3645
19719SOL    HW159735   3.837   0.071   5.932 -0.3798 -1.5170 -0.0021
19719SOL    HW259736   3.843   0.115   6.077 -0.4963  0.2588 -0.5245
19720SOL     OW59737   5.993   5.397   4.828  0.3570 -0.1286 -0.5637
19720SOL    HW159738   5.918   5.360   4.781  0.8868  1.2085 -2.5944
19720SOL    HW259739   6.030   5.322   4.875 -1.7015 -1.0015 -0.2102
19721SOL     OW59740   8.056   4.224   6.143 -0.5910  0.2614  0.2302
19721SOL    HW159741   8.058   4.277   6.063 -0.2513  1.4947  1.0271
19721SOL    HW259742   8.057   4.133   6.111  2.1911  0.6643 -1.1610
19722SOL     OW59743   7.139   9.306   0.975  0.1804  0.2016  0.6967
19722SOL    HW159744   7.112   9.387   1.019  0.2082  0.0345  1.0263
19722SOL    HW259745   7.059   9.273   0.935  0.5387  1.4357 -1.1718
19723SOL     OW59746   1.724   7.555   3.263  0.3674 -0.5804  0.2091
19723SOL    HW159747   1.750   7.607   3.187  2.0632 -1.6926 -0.0425
19723SOL    HW259748   1.695   7.472   3.225 -1.5888 -0.1324  0.6449
19724SOL     OW59749   6.542   4.941   1.813 -0.0291  0.1927 -0.4434
19724SOL    HW159750   6.573   5.019   1.768 -0.4711 -0.2642 -1.6047
19724SOL    HW259751   6.453   4.929   1.780 -1.4824  1.3766  2.6465
19725SOL     OW59752   6.084   6.153   3.310 -0.1532  0.1981  0.3178
19725SOL    HW159753   6.124   6.189   3.389  0.1188  0.3483  0.1138
19725SOL    HW259754   5.991   6.175   3.318  0.0642  1.2844  0.0201
19726SOL     OW59755   6.798   0.257   5.323 -0.3397 -0.0466 -0.4226
19726SOL    HW159756   6.883   0.258   5.279 -1.1871  1.0072 -2.1243
19726SOL    HW259757   6.799   0.176   5.375  1.7465  0.0211 -0.2603
19727SOL     OW59758   9.838   2.753   5.847 -0.1529 -0.0272  0.1055
19727SOL    HW159759   9.777   2.805   5.795  0.8777  0.7136 -0.3987
19727SOL    HW259760   9.832   2.790   5.935 -0.1908  0.2711 -0.0210
19728SOL     OW59761   8.134   3.801   5.267 -0.3278 -0.0834  0.2931
19728SOL    HW159762   8.219   3.759   5.281  0.3003  0.5387 -1.4310
19728SOL    HW259763   8.149   3.862   5.195 -2.2929 -0.0623 -0.1467
19729SOL     OW59764   7.969   3.291   9.098  0.2750 -0.3512  0.2296
19729SOL    HW159765   7.961   3.207   9.053  1.7121 -0.7040  0.5743
19729SOL    HW259766   8.018   3.271   9.178  0.4543  0.7710  0.4204
19730SOL     OW59767   5.206   1.766   3.466  0.3629  0.4803 -0.3569
19730SOL    HW159768   5.300   1.778   3.454  0.3253  1.4800  0.2383
19730SOL    HW259769   5.169   1.778   3.379  0.4619  3.8402 -0.0985
19731SOL     OW59770   7.465   2.970   3.334 -0.5441 -0.3178 -0.2503
19731SOL    HW159771   7.532   2.909   3.363 -0.4022  0.0307  0.1676
19731SOL    HW259772   7.389   2.950   3.389 -0.1703  0.5666  0.6334
19732SOL     OW59773   8.568   7.430   8.039  0.0374  0.6422 -0.0223
19732SOL    HW159774   8.611   7.511   8.011  1.1650 -0.0069 -0.2097
19732SOL    HW259775   8.616   7.360   7.996  0.1421 -0.2344  1.4242
19733SOL     OW59776   0.272   2.843   9.593 -0.0384 -0.5033  0.4105
19733SOL    HW159777   0.360   2.852   9.629  0.7449 -0.5852 -1.3940
19733SOL    HW259778   0.284   2.800   9.508 -1.8678 -0.9352  0.3089
19734SOL     OW59779   6.176   4.252   2.622 -0.2044 -0.0265  0.0287
19734SOL    HW159780   6.252   4.195   2.610  0.5955  1.3951 -2.7620
19734SOL    HW259781   6.109   4.196   2.660  1.3686 -2.0761 -0.0363
19735SOL     OW59782   9.878   5.084   9.412 -0.6327 -0.3229 -0.0276
19735SOL    HW159783   9.870   4.989   9.403 -1.9964 -0.0970 -1.9691
19735SOL    HW259784   9.791   5.117   9.391  0.4183  1.4566 -2.0054
19736SOL     OW59785   9.640   0.596   0.703 -0.1309 -0.5206 -0.4575
19736SOL    HW159786   9.733   0.611   0.688 -0.0048  0.7714  1.3592
19736SOL    HW259787   9.636   0.523   0.765 -0.1598  1.1414  1.5874
19737SOL     OW59788   5.556   2.159   5.522  0.4631  0.2035  0.2348
19737SOL    HW159789   5.486   2.158   5.457  1.4761 -0.2130 -0.8846
19737SOL    HW259790   5.553   2.072   5.562  0.9747 -0.1863 -0.5425
19738SOL     OW59791   1.650   1.270   6.939 -0.1614  0.2078  0.2649
19738SOL    HW159792   1.659   1.328   7.015 -0.3306  0.7431 -0.1237
19738SOL    HW259793   1.740   1.255   6.910 -0.1997  2.7690 -1.4966
19739SOL     OW59794   5.468   9.474   0.731 -0.4626 -0.1786 -0.1859
19739SOL    HW159795   5.532   9.468   0.660  0.8368  1.9956  0.7037
19739SOL    HW259796   5.383   9.481   0.687  0.4234  2.7845 -1.6803
19740SOL     OW59797   5.681   9.287   0.882  0.1022  0.2033  0.3249
19740SOL    HW159798   5.752   9.304   0.821 -0.0477 -1.0773 -0.2487
19740SOL    HW259799   5.672   9.368   0.932  0.6699  1.0610 -0.9020
19741SOL     OW59800   7.959   0.869   1.218 -0.2395 -0.0909 -0.3107
19741SOL    HW159801   8.004   0.872   1.133  1.6768 -0.8160  0.6150
19741SOL    HW259802   7.910   0.787   1.217  0.9165 -0.8025 -0.2046
19742SOL     OW59803   1.487   5.550   2.591 -0.4275  0.1377  0.0094
19742SOL    HW159804   1.582   5.562   2.583 -0.6922  2.6164 -0.2198
19742SOL    HW259805   1.473   5.527   2.683  0.2510  2.1504  0.6707
19743SOL     OW59806   9.021   3.439   3.375  0.0524 -0.5692  0.8855
19743SOL    HW159807   8.976   3.418   3.293  0.8096 -0.9216  0.5471
19743SOL    HW259808   9.076   3.515   3.354  0.9278 -1.2061  0.8082
19744SOL     OW59809   3.039   0.668   5.756  0.1901 -0.2380  0.1139
19744SOL    HW159810   2.966   0.611   5.781  0.7091 -1.7560 -1.6529
19744SOL    HW259811   3.088   0.681   5.837 -0.0296 -2.2256  0.6178
19745SOL     OW59812   0.890   2.152   1.229 -0.2770  0.5361  0.9259
19745SOL    HW159813   0.918   2.218   1.165 -0.2291 -2.1494 -2.1028
19745SOL    HW259814   0.971   2.107   1.253 -0.6835 -0.7209  0.0528
19746SOL     OW59815   9.156   6.864   0.467  0.5583  0.1760  0.2163
19746SOL    HW159816   9.211   6.942   0.476  0.2034  0.7323 -1.8526
19746SOL    HW259817   9.073   6.887   0.508  0.4893  0.8747 -0.3025
19747SOL     OW59818   1.104   9.516   5.185 -0.4928 -0.3284  0.1464
19747SOL    HW159819   1.052   9.505   5.265  1.0228 -0.3289  1.1806
19747SOL    HW259820   1.058   9.463   5.119 -2.4162  0.5955  0.6817
19748SOL     OW59821   2.616   0.718   0.118 -0.7463  0.4309  0.2955
19748SOL    HW159822   2.709   0.727   0.095 -0.6185  0.7973  0.9244
19748SOL    HW259823   2.572   0.706   0.034  0.1204 -2.2268  0.1416
19749SOL     OW59824   5.620   5.690   9.986  0.4077 -0.0955 -0.2529
19749SOL    HW159825   5.536   5.727  10.012  0.3139 -0.2125 -0.3927
19749SOL    HW259826   5.620   5.692   9.891 -0.0223 -1.3884 -0.2935
19750SOL     OW59827   9.810   7.092   4.936 -0.5076 -0.2543  0.2585
19750SOL    HW159828   9.771   7.007   4.916 -0.9875 -0.0691  0.3907
19750SOL    HW259829   9.811   7.138   4.852  0.8618 -0.8247 -0.0597
19751SOL     OW59830   2.983   2.141   1.054 -0.3522  0.1059 -0.2282
19751SOL    HW159831   2.952   2.230   1.036  0.2097  0.0782 -1.4010
19751SOL    HW259832   3.072   2.153   1.086 -1.3109  0.1552  2.7448
19752SOL     OW59833   3.730   1.084   4.305 -0.3777 -0.5735 -0.0015
19752SOL    HW159834   3.657   1.045   4.352 -0.1596  0.5253  1.2893
19752SOL    HW259835   3.797   1.016   4.303 -0.6557 -0.8693  0.6608
19753SOL     OW59836   0.530   9.596   0.277  0.0853  0.4344  0.1813
19753SOL    HW159837   0.444   9.562   0.254  0.6338 -0.5559 -0.4754
19753SOL    HW259838   0.512   9.679   0.321 -1.2089  0.1233  0.2757
19754SOL     OW59839   8.981   1.671   2.591  0.0849 -0.0375 -0.2126
19754SOL    HW159840   8.906   1.678   2.533 -0.5357  1.7841  0.7416
19754SOL    HW259841   9.044   1.734   2.557  0.3863 -0.1412  0.1469
19755SOL     OW59842   5.927   2.844   7.010 -0.3994  0.3328 -0.1296
19755SOL    HW159843   5.915   2.781   6.940 -2.9183 -1.3616  1.6488
19755SOL    HW259844   6.009   2.818   7.053 -0.4695 -0.5792 -0.5290
19756SOL     OW59845   1.758   2.142   8.926 -0.4677  0.0486 -0.5218
19756SOL    HW159846   1.724   2.053   8.924 -0.5347  0.0771 -2.1463
19756SOL    HW259847   1.689   2.195   8.885 -0.8149  1.0163  1.2278
19757SOL     OW59848   5.422   6.582   4.019 -0.3644  0.1957  0.2088
19757SOL    HW159849   5.344   6.626   4.052  0.0693 -0.8576  2.8531
19757SOL    HW259850   5.391   6.495   3.995 -0.6791  0.9477 -2.4494
19758SOL     OW59851   2.423   6.668   6.996  0.1331 -0.6602  0.2448
19758SOL    HW159852   2.403   6.740   6.936  0.0101 -0.3930  0.5992
19758SOL    HW259853   2.444   6.712   7.079  1.0940 -0.9807  0.1859
19759SOL     OW59854   3.537   0.955   4.062  0.4540  0.3205  0.6692
19759SOL    HW159855   3.594   0.989   3.993 -1.0274  0.0311 -0.7541
19759SOL    HW259856   3.594   0.903   4.117  1.4775 -0.4750 -1.0632
19760SOL     OW59857   8.079   8.469   7.219  0.5302 -0.1326  0.1544
19760SOL    HW159858   8.050   8.400   7.159 -0.9116  1.2264 -0.7836
19760SOL    HW259859   8.159   8.503   7.180 -0.3191  0.6402 -0.9781
19761SOL     OW59860   8.787   1.232   9.961  0.1639 -0.3645  0.2258
19761SOL    HW159861   8.776   1.159  10.022  0.5139 -0.6090  0.0054
19761SOL    HW259862   8.744   1.203   9.881  0.5817 -0.4627  0.0351
19762SOL     OW59863   0.473   6.389   0.664  0.2290 -0.4300  0.6316
19762SOL    HW159864   0.417   6.453   0.708 -2.5293 -1.4389 -1.1350
19762SOL    HW259865   0.452   6.398   0.571  4.1195  0.0544 -0.3915
19763SOL     OW59866   0.749   4.051   7.023 -0.3077 -0.2402 -0.2017
19763SOL    HW159867   0.771   4.082   6.935 -0.3370  0.5100  0.0473
19763SOL    HW259868   0.673   3.994   7.010 -0.2489 -0.2157 -0.6753
19764SOL     OW59869   4.398   4.170   2.362 -0.2716 -0.1888  0.0670
19764SOL    HW159870   4.344   4.093   2.379  0.9433 -0.6393  2.1500
19764SOL    HW259871   4.414   4.209   2.448 -0.7069  2.3466 -0.8877
19765SOL     OW59872   5.565   3.550   9.441 -0.0987  0.4179 -0.1929
19765SOL    HW159873   5.560   3.631   9.492  0.8563  0.5990 -0.3610
19765SOL    HW259874   5.553   3.480   9.505  0.9159  0.6467  0.2691
19766SOL     OW59875   3.451   7.577   0.002 -0.1220 -0.3313 -0.6921
19766SOL    HW159876   3.401   7.659  -0.010 -0.7353 -0.4723  0.6957
19766SOL    HW259877   3.541   7.606   0.015 -0.3464  0.1314 -0.1375
19767SOL     OW59878   5.012   1.791   3.228  0.3727  0.1045  0.1536
19767SOL    HW159879   5.051   1.871   3.264 -0.6603  0.1677  1.1574
19767SOL    HW259880   4.919   1.811   3.219  0.0441 -1.0982  0.7330
19768SOL     OW59881   3.379   2.788   0.427  0.6559 -0.1574  0.2815
19768SOL    HW159882   3.411   2.781   0.337 -0.2194  0.4551 -0.0938
19768SOL    HW259883   3.432   2.858   0.465  0.7244 -0.1124  0.1066
19769SOL     OW59884   5.657   2.686   9.374  0.0143 -0.2837 -0.6968
19769SOL    HW159885   5.624   2.711   9.288 -0.2180 -1.6851 -1.0256
19769SOL    HW259886   5.667   2.591   9.370  0.4561 -0.3167  0.6681
19770SOL     OW59887   2.002   8.259   9.342  0.0501  0.0386 -0.3805
19770SOL    HW159888   1.992   8.178   9.391 -1.0161 -0.3072 -1.1179
19770SOL    HW259889   2.057   8.315   9.397 -1.1901 -0.2780  1.2467
19771SOL     OW59890   4.702   1.453   1.620 -0.6559  0.0606 -0.7783
19771SOL    HW159891   4.693   1.387   1.552 -1.6746 -0.8413  0.1922
19771SOL    HW259892   4.614   1.487   1.632 -0.5663 -0.0756  0.3564
19772SOL     OW59893   6.513   4.771   9.069 -0.4977  0.4230 -0.3516
19772SOL    HW159894   6.565   4.849   9.049 -0.7492  0.7053  0.0623
19772SOL    HW259895   6.488   4.736   8.984  3.1857 -1.6956 -0.7932
19773SOL     OW59896   5.273   1.758   9.603  0.0177 -0.2292  0.7576
19773SOL    HW159897   5.308   1.669   9.600 -0.1454 -0.3537  1.9812
19773SOL    HW259898   5.178   1.747   9.601 -0.0294 -0.1610  1.9786
19774SOL     OW59899   2.668   8.325   0.925  0.5913  0.2748  0.1710
19774SOL    HW159900   2.754   8.323   0.884  1.2905  0.3321  1.5658
19774SOL    HW259901   2.631   8.238   0.907  1.4674 -0.2074  0.6040
19775SOL     OW59902   9.064   2.641   7.153  0.3566 -0.3939 -0.9027
19775SOL    HW159903   9.013   2.583   7.096  0.0072  0.0157 -1.0166
19775SOL    HW259904   9.002   2.710   7.177  0.8096  0.0053 -0.8820
19776SOL     OW59905   5.602   8.778   6.173 -0.5952  0.1111 -0.1437
19776SOL    HW159906   5.541   8.729   6.118 -2.1334 -0.0322  1.5967
19776SOL    HW259907   5.646   8.712   6.227 -0.2230  0.3693 -0.1210
19777SOL     OW59908   3.960   0.821   4.802 -0.4731  0.2292  0.1365
19777SOL    HW159909   3.955   0.742   4.857 -0.3410 -0.6858 -1.1240
19777SOL    HW259910   4.053   0.839   4.796 -0.2794 -1.0194 -1.5665
19778SOL     OW59911   3.631   6.694   1.127  0.1956 -0.0317 -0.1522
19778SOL    HW159912   3.583   6.618   1.161  2.0526 -0.5906  1.4162
19778SOL    HW259913   3.621   6.761   1.195  0.6719  0.2324 -0.3341
19779SOL     OW59914   3.285   5.297   5.173  0.6023  0.0369 -0.3669
19779SOL    HW159915   3.217   5.301   5.106  0.0023  0.3365  0.2482
19779SOL    HW259916   3.354   5.353   5.140 -0.3372  1.4395 -0.0464
19780SOL     OW59917   8.667   6.719   9.512  0.2134  0.2703  0.3585
19780SOL    HW159918   8.665   6.646   9.574 -0.1941 -0.2173 -0.2073
19780SOL    HW259919   8.678   6.677   9.426 -0.7471  0.8172 -0.0459
19781SOL     OW59920   0.382   1.211   7.693  0.1904 -0.1597  0.5382
19781SOL    HW159921   0.454   1.217   7.631  0.7379  2.6380  1.3211
19781SOL    HW259922   0.397   1.127   7.739  2.3634 -0.1252 -0.0044
19782SOL     OW59923   0.862   9.060   9.420  0.0105 -0.0997  0.2127
19782SOL    HW159924   0.771   9.080   9.439 -0.7168 -1.3431 -1.6944
19782SOL    HW259925   0.903   9.145   9.408 -1.2483  0.4461 -0.3754
19783SOL     OW59926   7.027   7.615   2.825 -0.3365 -0.1077  0.5063
19783SOL    HW159927   6.979   7.631   2.744 -1.1666  0.6166  1.1262
19783SOL    HW259928   7.053   7.702   2.855  0.2651 -0.3989  0.8508
19784SOL     OW59929   9.078   6.247   3.659  0.2150  0.0381  0.1027
19784SOL    HW159930   9.155   6.256   3.715 -0.6544 -0.6126  1.4458
19784SOL    HW259931   9.099   6.299   3.581  1.5616  0.7461  0.9005
19785SOL     OW59932   9.746   0.852   1.589  0.0541  0.6339  0.3502
19785SOL    HW159933   9.730   0.944   1.609  0.6247  0.6597  0.7233
19785SOL    HW259934   9.661   0.817   1.562 -0.8160  0.5592  2.9128
19786SOL     OW59935   6.293   5.912   1.033  0.3143 -0.5541  0.0045
19786SOL    HW159936   6.367   5.852   1.036  0.8776  0.1488  2.8855
19786SOL    HW259937   6.254   5.907   1.120 -0.4809  2.2019 -0.0986
19787SOL     OW59938   9.688   5.779   1.677  0.1343  0.4403 -0.3106
19787SOL    HW159939   9.745   5.757   1.604  1.0980  0.9553  0.2679
19787SOL    HW259940   9.600   5.757   1.646  0.7088 -1.1525 -0.9197
19788SOL     OW59941   4.103   2.497   3.100 -0.1168  0.5592 -0.1446
19788SOL    HW159942   4.141   2.495   3.187 -0.4827 -2.9102  0.0879
19788SOL    HW259943   4.009   2.512   3.114 -0.7198 -2.9271  0.5056
19789SOL     OW59944   1.194   9.517   7.073 -0.0645 -0.2785  0.2595
19789SOL    HW159945   1.282   9.495   7.102 -0.5999 -0.8193  1.5696
19789SOL    HW259946   1.174   9.452   7.006 -0.1637 -1.3973  1.3308
19790SOL     OW59947   1.011   0.465   0.251 -0.4244 -0.2908 -0.2045
19790SOL    HW159948   1.039   0.550   0.218 -0.8941  0.1180  0.4277
19790SOL    HW259949   1.032   0.468   0.344  0.8120 -1.3951 -0.4192
19791SOL     OW59950   2.877   7.725   4.557 -0.1796 -0.3490 -0.0627
19791SOL    HW159951   2.866   7.810   4.514  1.2377  0.6271  1.4089
19791SOL    HW259952   2.870   7.661   4.486 -1.1754  0.9772 -1.2167
19792SOL     OW59953   6.030   7.981   5.106 -0.0536  0.1949  0.1893
19792SOL    HW159954   6.082   7.900   5.109  0.4170  0.5089  0.9270
19792SOL    HW259955   5.940   7.951   5.098  0.1858 -0.3807 -0.4586
19793SOL     OW59956   1.796   4.976   5.005 -0.1697 -0.1275  0.2084
19793SOL    HW159957   1.849   5.026   4.942 -2.5409 -0.7708 -2.5621
19793SOL    HW259958   1.709   5.016   4.998 -1.9173 -3.7667 -1.3281
19794SOL     OW59959   5.282   0.881   0.195  0.2432 -0.0422 -0.3642
19794SOL    HW159960   5.295   0.958   0.250  0.1558 -1.2175  1.3661
19794SOL    HW259961   5.187   0.866   0.196  0.3468 -0.6903  0.0468
19795SOL     OW59962   9.044   0.280   6.709 -0.0839  0.1280 -0.2842
19795SOL    HW159963   9.138   0.291   6.692 -0.0094  1.5953  0.8683
19795SOL    HW259964   9.006   0.262   6.623  1.7421 -5.1688 -0.3106
19796SOL     OW59965   7.738   3.030   2.604  0.1402  0.1040  0.2667
19796SOL    HW159966   7.747   2.935   2.599 -0.9161 -0.0380  0.6589
19796SOL    HW259967   7.786   3.055   2.683  0.5140 -0.0833  0.1012
19797SOL     OW59968   7.268   2.529   2.388  0.4627  0.0191 -0.2575
19797SOL    HW159969   7.350   2.570   2.416  0.2423 -0.9356  2.0095
19797SOL    HW259970   7.204   2.555   2.455 -1.2966  1.2427 -2.2874
19798SOL     OW59971   5.882   2.120   2.811  0.0706  0.5739  0.1153
19798SOL    HW159972   5.794   2.157   2.817  0.2942  1.1501 -0.1435
19798SOL    HW259973   5.872   2.044   2.754 -0.2741  0.5952  0.1456
19799SOL     OW59974   3.837   4.187   2.507 -0.2387  0.8249 -0.1624
19799SOL    HW159975   3.803   4.111   2.554 -1.9269  1.3777 -0.4413
19799SOL    HW259976   3.903   4.224   2.566 -1.3847  0.7376  1.2296
19800SOL     OW59977   6.881   8.563   0.723 -0.2858 -0.3917 -0.1376
19800SOL    HW159978   6.911   8.601   0.640  0.7293 -0.3204  0.2479
19800SOL    HW259979   6.801   8.515   0.700 -1.9931  2.4246 -0.5348
19801SOL     OW59980   2.281   6.268   5.365  0.1515 -0.0524 -0.1427
19801SOL    HW159981   2.334   6.346   5.351  0.2356 -0.2240 -0.8142
19801SOL    HW259982   2.343   6.196   5.361  0.1625 -0.1292  1.0398
19802SOL     OW59983   5.836   0.536   5.433 -0.4956 -0.2049 -0.6691
19802SOL    HW159984   5.904   0.594   5.467 -0.1065 -1.1839  0.2890
19802SOL    HW259985   5.864   0.517   5.343 -1.0526  1.6872 -1.2781
19803SOL     OW59986   9.819   3.802   6.815  0.0309  0.5223  0.5509
19803SOL    HW159987   9.790   3.773   6.729 -0.5326  0.7680  0.6478
19803SOL    HW259988   9.750   3.772   6.875  0.1243  0.8552  0.8321
19804SOL     OW59989   4.223   0.873   6.079  0.1236  0.2261 -0.7980
19804SOL    HW159990   4.213   0.839   6.168  1.8523 -1.9244 -1.3354
19804SOL    HW259991   4.282   0.948   6.089 -0.8255  0.8913 -0.0037
19805SOL     OW59992   0.850   1.004   2.484 -0.4377  0.0298 -0.2293
19805SOL    HW159993   0.916   1.036   2.546  0.9290  0.2638 -1.7221
19805SOL    HW259994   0.866   1.054   2.405 -1.9961 -0.4082 -0.8538
19806SOL     OW59995   6.906   9.913   4.885 -0.3945  0.4284  0.5624
19806SOL    HW159996   6.959   9.837   4.911 -0.1435  0.3417 -0.1862
19806SOL    HW259997   6.816   9.882   4.889 -0.2573 -0.1737 -0.5319
19807SOL     OW59998   6.912   6.998   3.936 -0.1889 -0.8225 -0.0660
19807SOL    HW159999   6.924   7.056   3.861 -0.0898 -0.7073  0.0375
19807SOL    HW260000   6.821   7.009   3.961  0.0209 -0.1350  0.4220
19808SOL     OW60001   6.206   3.176   1.782  0.0155 -0.3250  0.6328
19808SOL    HW160002   6.140   3.170   1.851  0.8802 -1.4476  1.3856
19808SOL    HW260003   6.281   3.217   1.824 -0.0161  0.5018 -0.0937
19809SOL     OW60004   0.365   3.420   6.231  0.1272 -0.2005 -0.4028
19809SOL    HW160005   0.385   3.484   6.163  0.7235  0.2612  0.2002
19809SOL    HW260006   0.270   3.428   6.243  0.1963  0.6056 -0.3082
19810SOL     OW60007   2.626   0.410   9.389  0.3570 -0.1047 -0.1313
19810SOL    HW160008   2.720   0.398   9.379  0.0538 -1.1545 -2.0703
19810SOL    HW260009   2.602   0.472   9.320 -0.4815 -0.3713 -0.0904
19811SOL     OW60010   5.267   0.158   2.409 -0.0488  0.5055 -0.1606
19811SOL    HW160011   5.343   0.116   2.448 -0.1505  0.3219 -0.1595
19811SOL    HW260012   5.259   0.118   2.322 -0.5629  0.0046  0.1073
19812SOL     OW60013   4.874   9.927   1.809 -0.2592 -0.4665  0.2217
19812SOL    HW160014   4.786   9.890   1.798 -0.6088  0.3505  0.2352
19812SOL    HW260015   4.919   9.865   1.866 -0.7779 -0.9677  0.0956
19813SOL     OW60016   0.762   5.575   8.647 -0.3619 -0.0325 -0.3684
19813SOL    HW160017   0.846   5.539   8.672 -0.8750 -0.4132  0.8801
19813SOL    HW260018   0.779   5.623   8.566  1.0616 -0.0154 -0.0740
19814SOL     OW60019   3.231   1.984   7.196 -0.0098  0.2699 -0.3822
19814SOL    HW160020   3.207   2.010   7.107  2.9864 -2.0967 -2.1109
19814SOL    HW260021   3.208   1.891   7.201 -0.2262  0.3955  1.3794
19815SOL     OW60022   0.476   6.758   2.413 -0.2893  0.1482  0.4668
19815SOL    HW160023   0.530   6.732   2.488  0.6315  0.1047 -0.1933
19815SOL    HW260024   0.529   6.737   2.337  0.1983  3.1173 -0.1500
19816SOL     OW60025   8.716   4.569   8.875  0.4479  0.1716  0.3453
19816SOL    HW160026   8.801   4.610   8.892  0.7541 -0.3284  0.0636
19816SOL    HW260027   8.673   4.626   8.812  0.6608  0.3214  0.3373
19817SOL     OW60028   1.831   0.901   7.891  0.0224  0.1342  0.5433
19817SOL    HW160029   1.905   0.899   7.951 -0.8368 -0.2887  1.6307
19817SOL    HW260030   1.781   0.822   7.912 -0.2692 -0.0806 -0.8037
19818SOL     OW60031   4.304   2.029   4.557 -0.1561 -0.4105 -0.3693
19818SOL    HW160032   4.395   2.043   4.582  0.1284 -0.1780 -1.4517
19818SOL    HW260033   4.253   2.072   4.624  0.4771 -1.7564  1.0508
19819SOL     OW60034   0.866   1.765   1.324  0.5646  0.5539 -0.2283
19819SOL    HW160035   0.780   1.750   1.363  0.5775  0.6548 -0.1626
19819SOL    HW260036   0.901   1.840   1.371  1.1382 -0.1473  0.4903
19820SOL     OW60037   8.931   3.046   4.692 -0.2879 -0.3368 -0.1608
19820SOL    HW160038   8.993   2.982   4.657  1.6006  1.4036 -0.1914
19820SOL    HW260039   8.899   3.094   4.616  0.6665  0.7333  0.0795
19821SOL     OW60040   9.998   9.447   3.699 -0.5840  0.1423 -0.3779
19821SOL    HW160041   9.911   9.416   3.674  0.0953 -2.9964  0.6549
19821SOL    HW260042  10.023   9.509   3.631 -3.6939  1.3420 -0.5572
19822SOL     OW60043   4.197   7.659   0.988 -0.2160 -0.2502  0.0222
19822SOL    HW160044   4.268   7.625   1.044 -0.7044 -0.2087  0.6838
19822SOL    HW260045   4.172   7.585   0.933  0.3923 -0.2430 -0.2784
19823SOL     OW60046   4.372   6.769   2.624  0.3303  0.0753 -0.6881
19823SOL    HW160047   4.359   6.859   2.655 -2.0397  0.1353 -1.6422
19823SOL    HW260048   4.313   6.716   2.678  2.3746 -1.1169  0.5014
19824SOL     OW60049   7.562   0.381   7.032 -0.1771  0.3077  0.2885
19824SOL    HW160050   7.584   0.474   7.033 -0.5533  0.4900 -2.1871
19824SOL    HW260051   7.638   0.340   6.991  0.3318 -0.6360  2.0742
19825SOL     OW60052   1.448   8.412   9.060 -0.2312 -0.3750 -0.2065
19825SOL    HW160053   1.415   8.368   8.982  1.5019  0.7060 -1.6254
19825SOL    HW260054   1.525   8.460   9.030  1.5821 -1.3040  2.4924
19826SOL     OW60055   9.436   1.863   8.270  0.4345 -0.4376  0.0287
19826SOL    HW160056   9.519   1.845   8.314  0.8229 -0.8856 -0.8634
19826SOL    HW260057   9.432   1.801   8.198 -0.4099 -0.0385 -0.2946
19827SOL     OW60058   2.164   5.447   5.442  0.2714  0.0410 -0.4471
19827SOL    HW160059   2.135   5.358   5.423  0.4151 -0.3501  1.0246
19827SOL    HW260060   2.197   5.443   5.532  1.0123  1.4073 -0.6251
19828SOL     OW60061   0.508   5.460   9.150  0.0113 -0.2371  0.1359
19828SOL    HW160062   0.470   5.433   9.234  0.8327 -1.4874  0.1266
19828SOL    HW260063   0.469   5.399   9.086 -0.7499  0.8195 -0.4404
19829SOL     OW60064   0.254   2.793   3.665  0.4344 -0.1314  0.3567
19829SOL    HW160065   0.252   2.879   3.708  2.0605  0.4897 -0.7286
19829SOL    HW260066   0.346   2.779   3.645  0.1278 -1.9534  0.1085
19830SOL     OW60067   0.309   1.198   9.945 -0.5600  0.0253 -0.0344
19830SOL    HW160068   0.293   1.110   9.911 -0.0892 -1.3733  2.9830
19830SOL    HW260069   0.226   1.245   9.932 -1.7729 -1.7934  0.7102
19831SOL     OW60070   2.809   8.888   7.287  0.9250 -0.8471  0.1647
19831SOL    HW160071   2.866   8.886   7.363  0.5461 -0.5534  0.4590
19831SOL    HW260072   2.849   8.827   7.225  1.1619 -1.1812  0.6466
19832SOL     OW60073   7.146   7.774   6.501  0.5441 -0.2245 -0.0451
19832SOL    HW160074   7.217   7.733   6.551  0.2877 -0.1156  0.4194
19832SOL    HW260075   7.187   7.800   6.419  1.4710  1.2792  0.8236
19833SOL     OW60076   4.569   1.285   6.051  0.2467  0.1652  0.2072
19833SOL    HW160077   4.597   1.296   6.142  1.1344  1.0667 -0.1597
19833SOL    HW260078   4.645   1.312   5.999  0.2304 -1.5613 -0.8132
19834SOL     OW60079   5.915   7.232   3.963 -0.2609 -0.1457 -0.1850
19834SOL    HW160080   5.832   7.268   3.931  0.3032 -0.9439 -2.7754
19834SOL    HW260081   5.904   7.137   3.957  0.9137 -0.2622 -0.8789
19835SOL     OW60082   2.764   6.225   8.285 -0.0221 -0.2326 -0.0089
19835SOL    HW160083   2.725   6.253   8.368  0.8159 -1.8428  0.9664
19835SOL    HW260084   2.707   6.155   8.253 -0.7914  0.9028 -1.2407
19836SOL     OW60085   5.212   4.227   7.066  0.3882  0.0869 -0.0611
19836SOL    HW160086   5.304   4.254   7.065  0.2871  0.4052 -0.8747
19836SOL    HW260087   5.205   4.162   6.996  0.0087  0.0028  0.0551
19837SOL     OW60088   6.453   6.865   3.854  0.3154  0.1250  0.3831
19837SOL    HW160089   6.392   6.820   3.912 -0.1829  0.6862  0.3072
19837SOL    HW260090   6.453   6.812   3.774 -1.1187  0.8326 -0.1224
19838SOL     OW60091   7.887   5.133   3.606 -0.1394 -0.2195 -0.0916
19838SOL    HW160092   7.807   5.134   3.660  1.8435 -0.9829  3.1439
19838SOL    HW260093   7.887   5.047   3.565 -1.6490  0.3382 -1.3631
19839SOL     OW60094   6.162   0.390   9.628 -0.0124 -0.3540  0.3936
19839SOL    HW160095   6.080   0.438   9.613 -0.4183 -1.5899 -1.8347
19839SOL    HW260096   6.134   0.301   9.647  0.7774 -1.1034 -1.6814
19840SOL     OW60097   6.980   7.037   8.820  0.4044  0.0421  0.0255
19840SOL    HW160098   6.922   7.108   8.849  0.9619  0.4347  0.1848
19840SOL    HW260099   6.920   6.966   8.797 -0.1730  0.6368 -0.3510
19841SOL     OW60100   1.121  10.008   6.023 -0.2254 -0.0419  0.2921
19841SOL    HW160101   1.167   9.940   5.975 -0.6850  0.9741 -1.7233
19841SOL    HW260102   1.038   9.969   6.048  0.3204 -0.8177  0.9195
19842SOL     OW60103   5.720   3.390   9.267  0.4329  0.1832  0.3063
19842SOL    HW160104   5.699   3.359   9.179  1.0401 -1.7762  0.8121
19842SOL    HW260105   5.663   3.466   9.279 -0.7238 -0.3762 -1.2277
19843SOL     OW60106   4.595   9.171   0.215  0.1118 -0.1646  0.2361
19843SOL    HW160107   4.606   9.251   0.266 -0.5183  1.1766 -1.5921
19843SOL    HW260108   4.680   9.159   0.171 -0.1951  0.2936 -0.5101
19844SOL     OW60109   8.554   7.583   3.982  0.0105  0.0155 -0.0262
19844SOL    HW160110   8.616   7.579   3.910  1.5094  1.1732  1.1346
19844SOL    HW260111   8.605   7.559   4.059 -1.3018 -0.2427  0.7975
19845SOL     OW60112   6.632   0.200   1.887 -0.1995 -0.4545  0.1558
19845SOL    HW160113   6.705   0.214   1.948  0.6345  0.4235 -0.9964
19845SOL    HW260114   6.669   0.146   1.817 -1.1421 -1.4487  0.4010
19846SOL     OW60115   5.685   7.857   9.921  0.5196  0.4326  0.2171
19846SOL    HW160116   5.737   7.931   9.954 -1.5674  1.0104  2.5102
19846SOL    HW260117   5.689   7.792   9.991  0.5436 -0.7494 -0.8512
19847SOL     OW60118   4.938   7.707   6.297  0.0232  0.4255 -0.1795
19847SOL    HW160119   4.917   7.643   6.366 -1.2156  0.9630 -0.0468
19847SOL    HW260120   4.981   7.655   6.229 -1.1843 -0.6074 -0.1815
19848SOL     OW60121   1.907   6.376   5.845 -0.0197 -0.4062  0.2614
19848SOL    HW160122   1.862   6.329   5.775  1.9811 -0.7962 -0.8509
19848SOL    HW260123   1.879   6.467   5.836 -0.0310 -0.5134 -0.8432
19849SOL     OW60124   0.666   8.198   9.594 -0.5918  0.1279  0.4377
19849SOL    HW160125   0.676   8.286   9.631  1.5736  0.7487 -1.4258
19849SOL    HW260126   0.717   8.142   9.653 -1.1846  0.2556  1.0871
19850SOL     OW60127   4.174   3.638   8.019  0.0157 -0.2503 -0.1348
19850SOL    HW160128   4.252   3.621   7.965  0.3683  0.8010  0.0296
19850SOL    HW260129   4.193   3.720   8.065 -1.9268  1.1085 -1.5399
19851SOL     OW60130   9.858   9.446   5.989 -1.0709  0.0248 -0.3559
19851SOL    HW160131   9.945   9.408   5.995 -0.7466  0.9247  1.1577
19851SOL    HW260132   9.819   9.405   5.911  0.8175 -0.1038 -1.2932
19852SOL     OW60133   8.194   2.055   5.794  0.2422 -0.3194  0.0651
19852SOL    HW160134   8.242   2.021   5.869 -0.8047 -1.8865  0.0654
19852SOL    HW260135   8.261   2.090   5.735  1.2826 -1.5176  0.5148
19853SOL     OW60136   3.063   6.153   5.585  0.3291  0.4951 -0.0256
19853SOL    HW160137   3.005   6.138   5.659 -2.8199 -1.9598 -2.7082
19853SOL    HW260138   3.129   6.083   5.592  1.8030  1.9464  1.7975
19854SOL     OW60139   8.883   9.192   2.950  0.4162  0.1163  0.6745
19854SOL    HW160140   8.820   9.120   2.950  0.8816 -0.2995  0.6357
19854SOL    HW260141   8.854   9.250   3.020  0.9246 -0.9163  1.7902
19855SOL     OW60142   9.470   5.106   6.709 -0.4283  0.2406  0.3649
19855SOL    HW160143   9.517   5.188   6.696  0.1938 -0.0976  0.4238
19855SOL    HW260144   9.379   5.127   6.689 -0.0506  0.5817 -1.1113
19856SOL     OW60145   4.688   7.357   6.879  0.0942  0.6079 -0.1882
19856SOL    HW160146   4.736   7.338   6.960  0.9112  0.9461 -0.5752
19856SOL    HW260147   4.598   7.332   6.898  0.7568 -2.1134 -0.1193
19857SOL     OW60148   8.859   6.765   8.720 -0.0538  0.2387 -0.4259
19857SOL    HW160149   8.861   6.861   8.712  0.0728  0.6131  2.8100
19857SOL    HW260150   8.943   6.742   8.759 -0.4986 -1.0616 -0.1886
19858SOL     OW60151   3.083   9.803   6.401  0.0563  0.5516  0.0244
19858SOL    HW160152   3.096   9.855   6.322 -2.6361  0.8031 -0.3477
19858SOL    HW260153   3.076   9.713   6.371  1.2320  0.3761  0.2538
19859SOL     OW60154   1.500   8.459   1.889  0.0362 -0.0038  0.4666
19859SOL    HW160155   1.535   8.371   1.904 -0.7123 -0.8217 -2.0309
19859SOL    HW260156   1.434   8.471   1.957 -1.7320 -2.5353 -0.6111
19860SOL     OW60157   6.008   5.766   1.670  0.5424  0.2653 -0.9074
19860SOL    HW160158   5.983   5.707   1.599  0.1756  0.2918 -0.8021
19860SOL    HW260159   5.950   5.742   1.743 -0.6757  1.7449 -1.3179
19861SOL     OW60160   9.973   8.305   4.364  0.6759 -0.0887 -0.9332
19861SOL    HW160161  10.022   8.366   4.418 -1.5678  0.4946  0.6115
19861SOL    HW260162   9.890   8.294   4.411 -0.1168 -2.0849 -2.6638
19862SOL     OW60163   5.745   4.291   3.200  0.1022  1.0830  0.8291
19862SOL    HW160164   5.800   4.298   3.122 -0.5145  0.4527  0.3322
19862SOL    HW260165   5.748   4.379   3.238  0.2008  1.4736 -0.0421
19863SOL     OW60166   4.887   0.975   3.277 -0.0253 -0.4343 -0.2916
19863SOL    HW160167   4.853   0.934   3.197  1.7785 -0.9320 -0.8737
19863SOL    HW260168   4.982   0.971   3.266  0.2382  0.8442  1.2263
19864SOL     OW60169   7.139   0.760   8.518 -0.5858  0.2435 -0.2857
19864SOL    HW160170   7.159   0.738   8.427 -0.8608  1.5960 -0.7080
19864SOL    HW260171   7.182   0.845   8.531 -0.2378 -0.1085  0.9722
19865SOL     OW60172   5.993   2.297   5.127  0.0426  0.5078 -0.4900
19865SOL    HW160173   6.014   2.372   5.183 -1.5904 -0.9126  2.2591
19865SOL    HW260174   5.915   2.324   5.078  0.7673  1.3526 -1.1941
19866SOL     OW60175   7.023  10.008   1.893 -0.4187  0.1478  0.2777
19866SOL    HW160176   6.933   9.989   1.921  0.3005  0.3018  2.9192
19866SOL    HW260177   7.067   9.923   1.896 -0.1060  0.3160  0.5320
19867SOL     OW60178   9.903   8.899   4.365 -0.2227  0.2074 -0.1692
19867SOL    HW160179   9.952   8.827   4.325 -1.5982 -1.4510  0.9720
19867SOL    HW260180   9.875   8.954   4.291  1.3886 -0.0471 -1.0045
19868SOL     OW60181   1.221   4.158   5.763 -0.6581 -0.0161  0.3345
19868SOL    HW160182   1.179   4.197   5.840  0.4175  0.5971  0.6322
19868SOL    HW260183   1.313   4.152   5.787 -0.4097 -0.4081 -0.6761
19869SOL     OW60184   6.589   0.686   9.577  0.2995  0.2342 -0.4426
19869SOL    HW160185   6.597   0.779   9.598 -2.9040  1.2588 -3.0143
19869SOL    HW260186   6.634   0.677   9.493 -1.1329 -0.0265 -1.2076
19870SOL     OW60187   8.020   4.775   2.264 -0.3891 -0.3437 -0.6435
19870SOL    HW160188   8.025   4.730   2.179 -2.2305  2.0196 -2.1348
19870SOL    HW260189   7.931   4.812   2.266  0.1375  0.9751  1.6460
19871SOL     OW60190   5.153   7.454   7.581  0.3802 -0.2355 -0.0185
19871SOL    HW160191   5.187   7.438   7.493 -0.3555  0.8534 -0.5209
19871SOL    HW260192   5.060   7.473   7.568  0.7563  2.5011  0.6698
19872SOL     OW60193   4.581   6.859   8.124  0.2558  0.3781  0.5039
19872SOL    HW160194   4.608   6.790   8.063  0.5988 -0.2641  1.3690
19872SOL    HW260195   4.513   6.907   8.077  0.9891  0.3296 -0.6619
19873SOL     OW60196   0.868   9.668   5.927  0.2286 -0.2570 -0.0972
19873SOL    HW160197   0.835   9.757   5.932  0.6944 -0.0314 -0.8835
19873SOL    HW260198   0.823   9.630   5.852  0.0698 -0.6751  0.2035
19874SOL     OW60199   9.356   5.306   1.899 -0.1797  0.1686 -0.0129
19874SOL    HW160200   9.393   5.393   1.883  2.4978 -0.8173  0.2704
19874SOL    HW260201   9.321   5.279   1.814  1.3823  0.4980 -0.7974
19875SOL     OW60202   4.826   6.730   6.478  0.4153  0.1632 -0.2663
19875SOL    HW160203   4.882   6.750   6.403 -0.2876 -0.9042 -1.1181
19875SOL    HW260204   4.738   6.726   6.441  0.0817 -0.5637  0.5801
19876SOL     OW60205   0.459   0.624   8.448  0.0451 -0.1296 -0.2087
19876SOL    HW160206   0.511   0.546   8.428  0.7861  0.2154  0.3217
19876SOL    HW260207   0.450   0.623   8.543 -0.3924  0.1502 -0.2458
19877SOL     OW60208   7.047   4.699   2.858  0.2779 -1.0353  0.5503
19877SOL    HW160209   7.028   4.613   2.822 -0.0190 -0.5061 -0.5926
19877SOL    HW260210   7.012   4.697   2.947 -1.2176 -1.5403 -0.0312
19878SOL     OW60211   3.089   0.154   7.409  0.0617  0.4819 -0.5201
19878SOL    HW160212   2.995   0.134   7.410  0.1963 -0.3064  2.3960
19878SOL    HW260213   3.110   0.159   7.315 -2.7708  0.2749 -1.2808
19879SOL     OW60214   1.030   6.915   4.864 -0.5168  1.0543 -0.6723
19879SOL    HW160215   0.976   6.892   4.788  0.0204  1.1165 -1.0818
19879SOL    HW260216   1.118   6.928   4.828  0.0727 -0.3964  0.1770
19880SOL     OW60217   1.038   3.693   3.821  0.2361 -0.0866  0.3291
19880SOL    HW160218   1.030   3.780   3.783  0.4469  0.0492  0.5888
19880SOL    HW260219   1.105   3.649   3.769 -0.9459 -0.6472 -0.7962
19881SOL     OW60220   7.923   8.900   1.149  0.3210 -0.5091  0.1304
19881SOL    HW160221   7.921   8.955   1.227  0.8679  1.4198 -1.1344
19881SOL    HW260222   8.016   8.880   1.136  0.4155  0.3661 -0.7440
19882SOL     OW60223   5.421   7.039   8.834 -0.3255 -0.3925  0.1311
19882SOL    HW160224   5.489   7.079   8.888 -0.2264 -0.0009 -0.2778
19882SOL    HW260225   5.416   7.094   8.756 -1.1797 -0.3617  0.1931
19883SOL     OW60226   8.416   6.142   8.967 -0.6917 -0.1479  0.7428
19883SOL    HW160227   8.332   6.098   8.971 -0.5107 -0.5586  0.1773
19883SOL    HW260228   8.437   6.145   8.874 -1.2397  2.1774  0.6235
19884SOL     OW60229   6.127   6.096   8.360  0.3430  0.1141 -0.6089
19884SOL    HW160230   6.079   6.017   8.338 -2.0983  1.3081  0.1618
19884SOL    HW260231   6.157   6.083   8.450 -1.5090  0.6957  0.1213
19885SOL     OW60232   4.055   3.168   6.886 -0.3434  0.2628 -0.3915
19885SOL    HW160233   4.044   3.085   6.838  1.1605 -0.0804 -0.1876
19885SOL    HW260234   3.969   3.210   6.880 -1.3183 -1.5547 -0.0198
19886SOL     OW60235   0.263   0.487   1.936 -0.7268  0.3005  0.4102
19886SOL    HW160236   0.202   0.440   1.879 -1.1545 -1.1238  1.9902
19886SOL    HW260237   0.206   0.535   1.997 -0.2642  1.3360  0.0520
19887SOL     OW60238   6.534   9.056   9.235 -0.1104 -0.0724  0.2412
19887SOL    HW160239   6.487   9.036   9.316  0.7767  1.8963  1.3167
19887SOL    HW260240   6.497   9.138   9.205 -0.8230 -1.0559 -1.7341
19888SOL     OW60241   4.151   2.923   4.666  0.3178 -0.5473 -0.0117
19888SOL    HW160242   4.195   2.862   4.607  1.7717  1.8478 -1.6053
19888SOL    HW260243   4.060   2.922   4.637  0.1541 -2.3557  0.4302
19889SOL     OW60244   2.404   4.799   4.452  0.4423 -0.1473 -0.1627
19889SOL    HW160245   2.336   4.732   4.459  1.1647 -0.8360  0.3335
19889SOL    HW260246   2.460   4.770   4.381 -1.1111  1.6683 -2.2840
19890SOL     OW60247   9.702   4.357   3.867  0.3630 -0.1809 -0.1705
19890SOL    HW160248   9.745   4.293   3.925  1.0978  0.2022 -0.2876
19890SOL    HW260249   9.670   4.424   3.927  0.5547 -0.1084 -0.1484
19891SOL     OW60250   3.209   8.769   6.160 -0.0703 -0.2955  0.1579
19891SOL    HW160251   3.126   8.724   6.145 -1.6620  2.7845 -1.2986
19891SOL    HW260252   3.235   8.802   6.074  1.7734  0.2522  0.8673
19892SOL     OW60253   7.336   4.402   9.225 -0.1422 -0.6915  0.1915
19892SOL    HW160254   7.331   4.478   9.167  0.3058 -0.3042  0.6457
19892SOL    HW260255   7.332   4.326   9.166  1.0566 -0.3047 -0.4283
19893SOL     OW60256   2.714   3.247   8.939  0.4199  0.1686  0.0282
19893SOL    HW160257   2.665   3.329   8.952  1.5231  0.6950  1.1683
19893SOL    HW260258   2.671   3.204   8.866 -0.4142  1.6091 -0.3675
19894SOL     OW60259   5.849   4.943   7.105  0.1906 -0.3686  0.4668
19894SOL    HW160260   5.762   4.961   7.142  1.2762  2.5753  1.9161
19894SOL    HW260261   5.866   5.016   7.046  2.8618  0.9398  2.6196
19895SOL     OW60262   0.966   0.205   3.360 -0.2768 -0.1335  0.6046
19895SOL    HW160263   1.008   0.254   3.430  0.8302 -1.2504  0.7585
19895SOL    HW260264   1.017   0.124   3.352 -0.3447 -0.0380 -1.4958
19896SOL     OW60265   7.401   6.968   2.421  0.2007  0.4670  0.2059
19896SOL    HW160266   7.405   6.908   2.495 -0.1157  0.2824  0.0738
19896SOL    HW260267   7.343   6.925   2.358 -0.3941  1.1114  0.2956
19897SOL     OW60268   0.919   2.547   4.561  0.2237  0.7578  0.4209
19897SOL    HW160269   0.853   2.616   4.555 -1.0120 -0.3013  1.3499
19897SOL    HW260270   0.926   2.528   4.654  1.5695  0.5656  0.2990
19898SOL     OW60271   5.078   6.336   6.969  0.0472  0.0011  0.5895
19898SOL    HW160272   4.987   6.345   6.938  0.2165  0.0138  0.0870
19898SOL    HW260273   5.111   6.425   6.972  0.5450 -0.1154 -0.7833
19899SOL     OW60274   5.997   9.841   0.989  0.0341 -0.1572 -0.4126
19899SOL    HW160275   5.996   9.749   1.014  3.6979 -0.1823  0.2404
19899SOL    HW260276   6.079   9.851   0.939  0.3386  2.9105  0.5013
19900SOL     OW60277   5.884   0.548   5.708  0.3600 -0.2103 -0.2176
19900SOL    HW160278   5.872   0.481   5.641  0.0797 -1.1113  0.7187
19900SOL    HW260279   5.795   0.576   5.730  0.4723  0.4532 -0.5706
19901SOL     OW60280   7.014   1.662   8.977 -0.2315 -0.0084  0.1235
19901SOL    HW160281   6.989   1.603   9.048 -0.3154 -0.1566 -0.0272
19901SOL    HW260282   7.053   1.605   8.911  1.8007  0.3863  0.9275
19902SOL     OW60283   4.852   4.250   3.866  0.2848 -0.0046 -0.6072
19902SOL    HW160284   4.841   4.274   3.958 -0.3256 -2.3040 -0.0272
19902SOL    HW260285   4.764   4.234   3.834  0.6470 -1.9793 -0.7472
19903SOL     OW60286   0.632   9.019   9.202  0.2160 -0.2567 -0.0567
19903SOL    HW160287   0.621   9.086   9.269  1.2169 -0.7226  0.6146
19903SOL    HW260288   0.724   8.991   9.212 -0.2439 -1.9119 -0.1020
19904SOL     OW60289   2.706   7.237   8.576  0.0236 -0.0610 -0.3880
19904SOL    HW160290   2.654   7.219   8.655  1.1120  0.6563  0.5210
19904SOL    HW260291   2.761   7.160   8.566  1.3174  0.6650  0.7602
19905SOL     OW60292   0.120   1.684   7.050  0.1529  0.3490  0.3003
19905SOL    HW160293   0.146   1.732   7.128  1.4374 -0.9383  0.7007
19905SOL    HW260294   0.185   1.708   6.984 -0.9659  1.4866 -0.4345
19906SOL     OW60295   6.113   7.690   0.368 -0.0074 -0.0860 -0.1016
19906SOL    HW160296   6.064   7.745   0.307  0.4798  0.9296  0.3891
19906SOL    HW260297   6.076   7.603   0.357 -1.1675  0.4383 -0.5201
19907SOL     OW60298   5.564   4.686   2.518 -0.0423 -0.1213  0.1425
19907SOL    HW160299   5.583   4.640   2.436 -0.2411  1.7850 -1.0197
19907SOL    HW260300   5.471   4.706   2.514 -0.3204 -0.9919  1.4042
19908SOL     OW60301   4.260   4.046   0.587  0.7259 -0.2870  0.2526
19908SOL    HW160302   4.265   4.002   0.672  0.7449 -0.8848 -0.0546
19908SOL    HW260303   4.300   4.132   0.602 -0.2763  0.0441  1.1266
19909SOL     OW60304   6.694   8.831   7.260  0.0239 -0.1550  0.0618
19909SOL    HW160305   6.727   8.861   7.176 -0.0342  0.1442  0.1456
19909SOL    HW260306   6.624   8.892   7.282 -2.6408 -2.4161 -1.4989
19910SOL     OW60307   6.138   0.939   1.552 -0.0899  0.6437  0.3555
19910SOL    HW160308   6.079   0.976   1.486  0.8552  1.1022 -0.2635
19910SOL    HW260309   6.196   0.880   1.502 -1.9771 -2.3230  1.3983
19911SOL     OW60310   7.734   3.622   3.454 -0.6590  0.2553 -0.2585
19911SOL    HW160311   7.708   3.687   3.519  1.0672 -1.2132  2.0313
19911SOL    HW260312   7.827   3.640   3.437 -0.0416 -1.7517  0.7026
19912SOL     OW60313   1.734   7.044   0.494  0.2136 -0.0476  0.0366
19912SOL    HW160314   1.659   6.985   0.488  0.0243 -0.0090  1.5080
19912SOL    HW260315   1.803   6.990   0.533  1.1007 -0.1957 -1.6849
19913SOL     OW60316   7.525   1.771   6.769  0.0449  0.2432  0.5741
19913SOL    HW160317   7.494   1.718   6.843 -0.2652 -0.8805 -0.3385
19913SOL    HW260318   7.574   1.710   6.715 -2.4898  0.1832 -1.8695
19914SOL     OW60319   0.733   5.815   2.965  0.1738 -0.5158  0.2844
19914SOL    HW160320   0.829   5.820   2.965  0.1442  0.5704 -0.5981
19914SOL    HW260321   0.705   5.905   2.951 -0.9363 -1.0799 -1.4641
19915SOL     OW60322   9.915   4.846   6.296  0.2407 -0.0564  0.2000
19915SOL    HW160323   9.912   4.750   6.306  0.5449  0.0458  1.3696
19915SOL    HW260324   9.896   4.880   6.383 -2.2773  1.0272 -0.6810
19916SOL     OW60325   7.279   1.948   9.531  0.9002  0.1609  0.8915
19916SOL    HW160326   7.293   2.034   9.492 -0.0052  0.2365  0.7241
19916SOL    HW260327   7.368   1.917   9.552  1.5533 -0.3969 -2.2570
19917SOL     OW60328   5.854   5.401   7.967 -0.6925 -0.0872 -0.1719
19917SOL    HW160329   5.829   5.309   7.971 -0.7831 -0.0455  0.2469
19917SOL    HW260330   5.939   5.401   7.924 -1.0271 -0.3012 -0.8498
19918SOL     OW60331   9.330   2.066   6.528 -0.5122  0.0565 -0.6632
19918SOL    HW160332   9.414   2.062   6.483  0.3767 -0.7644  0.9727
19918SOL    HW260333   9.347   2.120   6.606 -0.9089 -1.8109  0.7784
19919SOL     OW60334   0.649   4.308   9.034 -0.2951 -0.4703 -0.0636
19919SOL    HW160335   0.723   4.251   9.054 -1.6105 -1.9453  0.8624
19919SOL    HW260336   0.669   4.390   9.080  0.8838 -0.7336 -0.0743
19920SOL     OW60337   9.798   5.134   4.355 -0.0935 -0.4060  0.4954
19920SOL    HW160338   9.865   5.200   4.374 -0.0568 -0.9221  2.3072
19920SOL    HW260339   9.828   5.093   4.273  0.8745  0.5311  0.3518
19921SOL     OW60340   2.042   9.363   6.290 -0.4563 -0.4197 -0.5163
19921SOL    HW160341   2.079   9.443   6.253  0.3929 -1.1924 -1.3846
19921SOL    HW260342   2.001   9.391   6.372  1.3899  0.6086  0.1009
19922SOL     OW60343   9.843   3.293   6.664  0.0390 -0.0295  0.1982
19922SOL    HW160344   9.840   3.385   6.638 -0.6378  0.3540  1.5197
19922SOL    HW260345   9.932   3.265   6.644  0.0856  0.7508 -0.7462
19923SOL     OW60346   1.621   0.119   5.110  0.3506  0.0062  0.2325
19923SOL    HW160347   1.613   0.129   5.016 -1.2030 -1.0996  0.2165
19923SOL    HW260348   1.696   0.174   5.134 -0.1039  1.4260 -1.4239
19924SOL     OW60349   1.583   0.106   9.377  0.5732  0.1214 -0.4707
19924SOL    HW160350   1.540   0.068   9.453  2.6606 -1.0794  0.1613
19924SOL    HW260351   1.529   0.078   9.303  0.4749 -1.7347  0.2476
19925SOL     OW60352   7.137   8.376   2.491 -0.6557  0.3095 -0.2923
19925SOL    HW160353   7.190   8.403   2.416 -1.0369  1.9491 -0.0238
19925SOL    HW260354   7.183   8.411   2.567  0.6545 -2.7997  0.4972
19926SOL     OW60355   1.612   9.134   7.140 -0.1422  0.3938  0.1686
19926SOL    HW160356   1.586   9.197   7.208 -0.8493 -1.3527  1.6241
19926SOL    HW260357   1.621   9.051   7.188  1.3836 -0.4854 -1.5539
19927SOL     OW60358   5.937   1.534   6.251 -0.4551 -0.4814  0.2323
19927SOL    HW160359   5.987   1.606   6.213  0.2142 -2.0854 -2.0912
19927SOL    HW260360   5.988   1.509   6.328  0.0885  0.5544  0.2322
19928SOL     OW60361   2.714   7.546   0.896  0.3176  0.3083 -0.8076
19928SOL    HW160362   2.675   7.458   0.898  2.1658 -0.5382  0.3240
19928SOL    HW260363   2.734   7.565   0.987  0.5474  1.6335 -1.1245
19929SOL     OW60364   5.178   2.082   4.755  0.0334  0.3283  0.1410
19929SOL    HW160365   5.173   2.113   4.665  0.1442 -2.8433 -1.1000
19929SOL    HW260366   5.092   2.045   4.772  1.2361 -3.0670 -0.4011
19930SOL     OW60367   6.296   0.412   8.156  0.3753 -0.5213  0.1992
19930SOL    HW160368   6.342   0.496   8.153  1.0211 -0.9063 -1.6132
19930SOL    HW260369   6.354   0.354   8.204  0.4332 -0.2277  0.4843
19931SOL     OW60370   5.117   5.082   9.963 -0.1356 -0.1115 -0.7333
19931SOL    HW160371   5.089   5.051   9.877  0.6075  1.4479 -1.5585
19931SOL    HW260372   5.085   5.172   9.969  2.3923  0.8747 -0.6705
19932SOL     OW60373   7.193   0.915   3.485  0.1650 -0.4598  0.1782
19932SOL    HW160374   7.216   0.829   3.521 -0.5548 -0.3481  0.9524
19932SOL    HW260375   7.098   0.922   3.500 -0.0497 -0.1477 -1.2173
19933SOL     OW60376   1.492   7.048   1.612 -0.0396  0.2244  0.3163
19933SOL    HW160377   1.401   7.070   1.593  0.4760  0.8481 -1.6994
19933SOL    HW260378   1.499   6.955   1.590  0.1940  0.5911 -1.2655
19934SOL     OW60379   4.675   1.739   6.874 -0.0307  0.3689  0.1951
19934SOL    HW160380   4.605   1.705   6.818  0.5645  2.0305 -1.6510
19934SOL    HW260381   4.755   1.728   6.823  0.6545  1.1487  1.0607
19935SOL     OW60382   0.805   1.884   5.531  0.7115 -0.2221  0.1044
19935SOL    HW160383   0.798   1.943   5.456  1.5107 -2.1609 -1.6128
19935SOL    HW260384   0.832   1.800   5.492  1.1888 -1.2980  2.5916
19936SOL     OW60385   9.736   3.518   2.810 -0.1644  0.3005  0.2835
19936SOL    HW160386   9.791   3.596   2.815  0.1357  0.0747  0.5123
19936SOL    HW260387   9.647   3.553   2.804  0.0540  0.6991 -1.2306
19937SOL     OW60388   9.064   0.443   6.358  0.2710 -0.1706  0.1539
19937SOL    HW160389   9.011   0.388   6.416  0.2456 -0.3152 -0.0048
19937SOL    HW260390   9.043   0.412   6.270 -0.3212  0.6012  0.0109
19938SOL     OW60391   8.374   0.625   8.711 -0.0063 -0.2633  0.2415
19938SOL    HW160392   8.444   0.608   8.774 -0.5725 -0.7659  0.7413
19938SOL    HW260393   8.415   0.611   8.625  0.5160 -0.5162  0.5290
19939SOL     OW60394   4.745   8.742   2.236 -0.2453  0.1351 -0.5097
19939SOL    HW160395   4.701   8.663   2.206  0.7449 -0.5720 -0.1772
19939SOL    HW260396   4.783   8.717   2.321  1.0846  0.5869 -0.9469
19940SOL     OW60397   2.809   4.129   6.367  0.1112 -0.0958 -0.0926
19940SOL    HW160398   2.750   4.181   6.314 -0.6414 -0.1008  0.7156
19940SOL    HW260399   2.870   4.192   6.405 -0.3581  0.1118  0.3205
19941SOL     OW60400   8.807   1.711   2.393  0.1344 -0.7478 -0.0489
19941SOL    HW160401   8.748   1.781   2.365 -0.4711 -1.6641 -1.1625
19941SOL    HW260402   8.817   1.656   2.315 -0.5684 -2.6970  1.1733
19942SOL     OW60403   7.820   8.550   6.819 -0.2703 -0.6228  0.3828
19942SOL    HW160404   7.754   8.481   6.819  0.4322 -1.3211 -0.1669
19942SOL    HW260405   7.894   8.512   6.771  1.4158 -0.7384  2.8382
19943SOL     OW60406   2.077   9.377   3.474 -0.1709 -0.7028  0.1512
19943SOL    HW160407   2.072   9.418   3.560  0.6789 -0.0426 -0.0998
19943SOL    HW260408   2.093   9.284   3.493  2.4399 -0.2165  0.7501
19944SOL     OW60409   5.083   4.581   5.427  0.2313 -0.3728 -0.0591
19944SOL    HW160410   5.090   4.645   5.357 -0.1949  0.0402  0.2705
19944SOL    HW260411   5.142   4.510   5.400  0.5568  0.0611 -0.5218
19945SOL     OW60412   8.537   1.252   5.495  0.7172 -0.4823  0.0766
19945SOL    HW160413   8.609   1.284   5.441  0.7688 -1.9710 -0.7938
19945SOL    HW260414   8.497   1.331   5.530  1.1680  0.5186 -1.5257
19946SOL     OW60415   1.007   3.844   9.609 -0.0311 -0.5186  0.0097
19946SOL    HW160416   0.960   3.839   9.692  0.2017 -1.6442  0.0941
19946SOL    HW260417   0.983   3.764   9.563 -0.4241  0.2483 -1.1707
19947SOL     OW60418   8.671   0.724   5.068 -0.1701  0.6225 -0.2059
19947SOL    HW160419   8.670   0.652   5.005  0.5580 -0.5177  1.0557
19947SOL    HW260420   8.731   0.788   5.030 -2.6889  1.7945 -2.5698
19948SOL     OW60421   0.898   2.890   1.927 -0.2439 -0.4571  0.4321
19948SOL    HW160422   0.923   2.964   1.871 -0.9033  0.9346  1.8878
19948SOL    HW260423   0.818   2.856   1.887 -0.6539  0.4615  0.4305
19949SOL     OW60424   5.240   8.988   4.705 -0.0630 -0.3554  0.2807
19949SOL    HW160425   5.159   8.938   4.713  0.5264 -1.3288  0.3028
19949SOL    HW260426   5.299   8.931   4.655  0.3151  0.7016 -0.5208
19950SOL     OW60427   0.692   4.990   5.524  0.6310 -0.2626  0.3046
19950SOL    HW160428   0.715   5.083   5.520  1.0987 -0.2612  2.1108
19950SOL    HW260429   0.679   4.972   5.617 -1.5918 -1.5200 -0.1818
19951SOL     OW60430   8.565   8.932   2.483  0.4078  0.1144 -0.3562
19951SOL    HW160431   8.515   8.855   2.456  0.5309 -0.3728  0.7555
19951SOL    HW260432   8.564   8.929   2.578 -0.2335  1.9169 -0.2587
19952SOL     OW60433   9.203   7.990   6.157 -0.2424 -0.2756 -0.2986
19952SOL    HW160434   9.202   8.041   6.237 -0.4212 -0.8656  0.0836
19952SOL    HW260435   9.130   8.026   6.105  0.2333  0.4874 -0.4534
19953SOL     OW60436   0.787   3.160   8.215  0.3199 -0.5075  0.2570
19953SOL    HW160437   0.765   3.225   8.148  1.9787  0.0436  0.2247
19953SOL    HW260438   0.725   3.088   8.198 -1.1897  0.8015 -0.0379
19954SOL     OW60439   1.074   2.346   4.465  0.1282 -0.4396  0.1656
19954SOL    HW160440   1.022   2.416   4.505  0.0690 -0.2647 -0.2071
19954SOL    HW260441   1.023   2.319   4.389  0.3403 -0.6157  0.0853
19955SOL     OW60442   3.936   3.589   5.149 -0.1270  0.0772  0.0075
19955SOL    HW160443   4.023   3.614   5.177  0.6009 -1.3996 -0.7964
19955SOL    HW260444   3.920   3.640   5.069  0.9719 -1.2313 -1.1121
19956SOL     OW60445   6.800   3.249   4.838 -0.2375  0.5477 -0.0815
19956SOL    HW160446   6.752   3.220   4.915 -0.1639 -0.2225 -0.3250
19956SOL    HW260447   6.733   3.271   4.774 -0.3291 -2.2469 -1.0787
19957SOL     OW60448   4.290   7.446   2.296 -0.2546  0.6385 -0.8307
19957SOL    HW160449   4.349   7.372   2.310 -1.3908 -0.4146 -1.4493
19957SOL    HW260450   4.276   7.482   2.383 -0.7499 -0.7176 -0.3249
19958SOL     OW60451   2.848   3.155   4.520  0.2949 -0.3382 -0.0163
19958SOL    HW160452   2.775   3.093   4.526  0.1140 -0.2233 -0.9129
19958SOL    HW260453   2.809   3.239   4.543 -0.0990 -0.1087 -1.4807
19959SOL     OW60454   1.594   6.268   0.710  0.1532  0.6660  0.3550
19959SOL    HW160455   1.589   6.211   0.787  2.1192 -0.7272 -0.4617
19959SOL    HW260456   1.651   6.340   0.736  1.0905  0.0199  0.1279
19960SOL     OW60457   5.440   4.380   1.614  0.0842 -0.4043 -0.2242
19960SOL    HW160458   5.524   4.412   1.646  0.7583 -1.6742 -0.7012
19960SOL    HW260459   5.422   4.433   1.537  0.0028  0.4647  0.3717
19961SOL     OW60460   7.818   1.128   3.156  0.4490 -0.2513 -0.3296
19961SOL    HW160461   7.742   1.187   3.161 -0.3794 -1.3574  0.8977
19961SOL    HW260462   7.890   1.185   3.129 -0.8066  0.8275 -1.5954
19962SOL     OW60463   3.190   2.939   5.185  0.3585  0.1602 -0.6226
19962SOL    HW160464   3.227   2.899   5.263  1.4188  1.5111 -0.3863
19962SOL    HW260465   3.175   3.030   5.210  1.2668  0.7741 -2.1427
19963SOL     OW60466   2.520   1.972   2.792 -0.4148  0.2733  0.1698
19963SOL    HW160467   2.439   1.927   2.818 -1.0070  1.2117 -0.0183
19963SOL    HW260468   2.526   1.957   2.698 -2.0702  2.7841 -0.4305
19964SOL     OW60469   8.483   2.982   4.686 -0.0747 -0.4178  0.0597
19964SOL    HW160470   8.505   2.932   4.607  0.5800  0.2537 -0.1952
19964SOL    HW260471   8.408   3.035   4.661 -0.6053 -1.0661  0.2510
19965SOL     OW60472   6.441   8.904   4.175 -0.3074 -0.5562  0.4265
19965SOL    HW160473   6.529   8.869   4.169 -0.4556 -0.8836  0.1570
19965SOL    HW260474   6.453   8.996   4.197  0.1678 -0.1038 -1.5599
19966SOL     OW60475   9.469   7.091   1.395 -0.0512  0.0092  0.2399
19966SOL    HW160476   9.447   7.010   1.349  2.3022 -1.3046  1.2387
19966SOL    HW260477   9.404   7.154   1.365 -1.4904 -2.0205 -1.1966
19967SOL     OW60478   3.713   9.780   6.701 -0.5165  0.1997 -0.2240
19967SOL    HW160479   3.799   9.792   6.742 -0.6089  1.9736 -0.4817
19967SOL    HW260480   3.719   9.694   6.660  1.6702  0.8596 -1.4702
19968SOL     OW60481   5.041   2.459   2.623  0.3685  0.3355  0.1631
19968SOL    HW160482   5.021   2.510   2.702  3.5632 -1.3262  2.2842
19968SOL    HW260483   4.980   2.385   2.627 -1.4848  1.7412 -0.6605
19969SOL     OW60484   3.708   9.730   4.261  0.4640  0.1561 -0.0237
19969SOL    HW160485   3.655   9.775   4.196  0.6198 -0.8558 -0.8776
19969SOL    HW260486   3.765   9.799   4.298 -2.2607  1.5731  1.8941
19970SOL     OW60487   4.459   3.975   7.477  0.3058  0.0009  0.5642
19970SOL    HW160488   4.423   3.943   7.395 -0.6018 -0.2177  1.0392
19970SOL    HW260489   4.406   4.051   7.499  0.7558  0.2559  0.7933
19971SOL     OW60490   7.009   4.349   1.915  0.2455 -0.5293 -0.3857
19971SOL    HW160491   6.923   4.375   1.883  0.0912 -0.9132 -0.2830
19971SOL    HW260492   7.027   4.266   1.871  0.6365 -0.3653 -0.5369
19972SOL     OW60493   6.671   1.674   6.132  0.0102  0.2073 -0.3210
19972SOL    HW160494   6.732   1.681   6.205 -0.9100 -0.2515  0.5224
19972SOL    HW260495   6.707   1.605   6.076 -0.2972 -0.8753  0.7652
19973SOL     OW60496   5.933   5.394   6.983  0.0360  0.0176 -0.0669
19973SOL    HW160497   5.907   5.306   6.956 -1.5647 -0.0332  1.3961
19973SOL    HW260498   5.907   5.450   6.910 -2.3559 -0.3412  0.3935
19974SOL     OW60499   5.750   8.592   2.862  0.1189  0.8445 -0.2727
19974SOL    HW160500   5.661   8.564   2.839 -0.4800  0.7656  1.8932
19974SOL    HW260501   5.745   8.687   2.868 -0.5617  0.7378  2.2575
19975SOL     OW60502   0.205   8.441   4.475 -0.3677 -0.4405  0.0820
19975SOL    HW160503   0.201   8.413   4.567 -1.8478  1.7606  0.7793
19975SOL    HW260504   0.298   8.448   4.456 -0.0067  0.5093  1.9493
19976SOL     OW60505   2.274   8.573   6.364  0.0212  0.3512 -0.1547
19976SOL    HW160506   2.210   8.625   6.414 -1.7846 -0.1263 -1.8390
19976SOL    HW260507   2.295   8.628   6.288  1.2295  0.2491  0.0817
19977SOL     OW60508   0.493   5.450   2.079  0.4435 -0.2531 -0.0902
19977SOL    HW160509   0.446   5.483   2.003 -0.6831 -1.8201 -0.1040
19977SOL    HW260510   0.449   5.369   2.102  1.5810 -0.4831  1.4522
19978SOL     OW60511   2.613   5.522   8.829  0.1185  0.0235 -0.1477
19978SOL    HW160512   2.529   5.543   8.869 -0.3173 -0.1023 -0.9655
19978SOL    HW260513   2.661   5.605   8.830  0.8463 -0.3568  2.2421
19979SOL     OW60514   0.706   3.994   9.698  0.1484 -0.6332  0.0342
19979SOL    HW160515   0.777   3.959   9.752  0.8782  0.0202 -0.4895
19979SOL    HW260516   0.700   4.086   9.722  0.4586 -0.3448 -0.9760
19980SOL     OW60517   1.468   2.047   1.458 -0.7594 -0.1212 -0.3240
19980SOL    HW160518   1.523   2.105   1.404 -1.6341  0.3506 -0.7213
19980SOL    HW260519   1.496   1.959   1.433  0.1536  0.1075 -0.1625
19981SOL     OW60520   7.394   8.443   9.669  0.0182  0.0091 -0.3218
19981SOL    HW160521   7.355   8.523   9.633  0.2436  0.1031 -0.3569
19981SOL    HW260522   7.472   8.473   9.716 -1.1988  0.1254  1.7705
19982SOL     OW60523   7.105   6.341   5.898  0.2880  0.8507  0.0449
19982SOL    HW160524   7.106   6.262   5.845 -2.5883  0.5010  0.3397
19982SOL    HW260525   7.044   6.400   5.852  1.7861  2.6397  0.2179
19983SOL     OW60526   1.032   0.997   2.094  0.2371 -0.1503  0.0275
19983SOL    HW160527   0.980   0.987   2.015  0.3985 -1.2333  0.0438
19983SOL    HW260528   1.001   1.079   2.133  1.5769  1.5297 -2.1897
19984SOL     OW60529   5.026   3.149   6.085 -0.0691 -0.0088  0.8343
19984SOL    HW160530   4.935   3.144   6.056  0.3634 -1.4558 -0.3895
19984SOL    HW260531   5.022   3.136   6.180 -0.9589 -3.0471  0.4959
19985SOL     OW60532   4.757   7.832   4.206 -0.1913  0.0679 -0.3628
19985SOL    HW160533   4.695   7.781   4.257  0.3803  0.3741  0.6765
19985SOL    HW260534   4.702   7.886   4.149 -0.8062 -1.2370 -1.0341
19986SOL     OW60535   4.742   2.460   7.283 -0.5333  0.3536  0.1371
19986SOL    HW160536   4.696   2.401   7.342 -0.8040  0.5491  0.1256
19986SOL    HW260537   4.676   2.524   7.256  0.0052  1.3151  1.0162
19987SOL     OW60538   0.679   9.923   5.012  0.4175  0.5312 -0.0881
19987SOL    HW160539   0.692   9.909   4.918 -1.3177 -0.2288 -0.2581
19987SOL    HW260540   0.764   9.954   5.043  1.4359 -0.4976 -1.6526
19988SOL     OW60541   7.418   5.272   5.386 -0.0471 -0.7812  0.7309
19988SOL    HW160542   7.368   5.193   5.364 -0.7488 -0.5129  1.3059
19988SOL    HW260543   7.463   5.250   5.468 -0.9233 -0.3089  1.3526
19989SOL     OW60544   5.914   7.754   4.934  0.6760  0.2189 -0.1290
19989SOL    HW160545   5.826   7.770   4.900  0.6049 -0.3563 -0.2334
19989SOL    HW260546   5.902   7.684   4.998  0.9830  0.4978  0.2349
19990SOL     OW60547   0.818   7.825   5.259  0.4013  0.0055  0.3058
19990SOL    HW160548   0.869   7.905   5.269  0.3293 -0.0814  1.6792
19990SOL    HW260549   0.835   7.777   5.341  0.0765 -1.1592 -0.2929
19991SOL     OW60550   8.187   2.043   8.149 -0.5757  0.2982  0.0198
19991SOL    HW160551   8.171   2.135   8.171 -0.9950  0.8276 -2.1944
19991SOL    HW260552   8.222   2.046   8.060 -0.0294 -1.6739  0.1198
19992SOL     OW60553   3.545   2.594   6.471 -0.1566  0.2082 -0.0361
19992SOL    HW160554   3.612   2.613   6.405  1.3044 -0.8518  1.0696
19992SOL    HW260555   3.538   2.675   6.521  1.0167  0.0579  0.4092
19993SOL     OW60556   1.854   7.602   3.978  0.3165 -0.6757  0.6941
19993SOL    HW160557   1.913   7.634   3.910  0.1347 -1.7468 -0.0104
19993SOL    HW260558   1.858   7.667   4.047  1.7254 -0.3429  0.3307
19994SOL     OW60559   3.055   9.325   2.719 -0.1142  0.0031  0.1674
19994SOL    HW160560   3.064   9.420   2.723 -0.6901  0.1240 -0.9789
19994SOL    HW260561   3.142   9.291   2.742  1.0373  0.9057 -2.5086
19995SOL     OW60562   6.421   0.579   1.952  0.2424 -0.3340  0.0449
19995SOL    HW160563   6.460   0.497   1.924  1.2295  0.6169 -1.5064
19995SOL    HW260564   6.449   0.590   2.043  2.0986 -0.5693 -0.4677
19996SOL     OW60565   5.093   2.151   0.769  0.5628  0.1368 -0.3869
19996SOL    HW160566   5.030   2.079   0.771 -1.1692  1.5645  1.5444
19996SOL    HW260567   5.159   2.127   0.834 -1.0778  1.0240  1.7679
19997SOL     OW60568   0.685   7.744   1.247  0.2843 -0.3733 -0.2914
19997SOL    HW160569   0.741   7.676   1.209  0.5294 -0.5536  0.3921
19997SOL    HW260570   0.741   7.791   1.308 -0.2020 -0.2945  0.1007
19998SOL     OW60571   7.931   5.705   3.128  0.0282 -0.5117  0.2131
19998SOL    HW160572   7.988   5.745   3.194 -0.4893 -0.4129  0.6071
19998SOL    HW260573   7.846   5.700   3.171 -0.9439  1.7915 -1.2488
19999SOL     OW60574   9.077   0.057   1.514  0.0667 -0.0070  0.4910
19999SOL    HW160575   9.008   0.027   1.573 -0.6153 -0.1158 -0.3484
19999SOL    HW260576   9.103  -0.021   1.465  1.9766 -0.3423  1.9482
20000SOL     OW60577   9.468   3.000   3.521  0.8799  0.0639  0.1775
20000SOL    HW160578   9.414   2.962   3.453  1.7190 -1.2262  0.1920
20000SOL    HW260579   9.430   3.086   3.538  0.0165 -0.0420 -1.1442
20001SOL     OW60580   4.261   1.069   0.939 -0.3932 -0.5407 -0.3499
20001SOL    HW160581   4.348   1.041   0.967  0.0006  2.3674  1.8668
20001SOL    HW260582   4.201   1.018   0.994 -0.1833 -2.5743 -1.9065
20002SOL     OW60583   3.046   7.130   0.477  0.5672  0.2903  0.1217
20002SOL    HW160584   3.035   7.221   0.506  0.6532  0.6947 -1.0538
20002SOL    HW260585   2.973   7.116   0.417  1.4998  0.1362 -0.9983
20003SOL     OW60586   3.385   4.523   7.633  0.4015 -0.7045  0.3411
20003SOL    HW160587   3.316   4.586   7.613  1.0916 -0.1570 -0.3581
20003SOL    HW260588   3.346   4.464   7.697 -1.1298 -1.1162 -0.8967
20004SOL     OW60589   4.166   4.783   4.820  0.2267  0.0618 -0.0805
20004SOL    HW160590   4.146   4.690   4.818 -1.5876  0.3968  0.3661
20004SOL    HW260591   4.121   4.816   4.898  0.9175  1.2864 -0.1685
20005SOL     OW60592   9.841   3.401   3.716 -0.3476 -0.5885 -0.2918
20005SOL    HW160593   9.907   3.452   3.762 -0.0462  0.4605 -1.8140
20005SOL    HW260594   9.760   3.451   3.726  0.3008  1.3023 -3.3249
20006SOL     OW60595   7.372   6.544   0.679  0.1643 -0.3920 -0.4643
20006SOL    HW160596   7.339   6.496   0.603  1.1102  1.5236 -2.1760
20006SOL    HW260597   7.467   6.538   0.672  0.2978  1.2715 -0.4623
20007SOL     OW60598   6.566   8.216   5.619 -0.5638  0.5522 -0.1031
20007SOL    HW160599   6.548   8.122   5.620 -1.1145  0.6499 -0.3817
20007SOL    HW260600   6.535   8.245   5.534 -1.6068  1.2172  0.4855
20008SOL     OW60601   9.379   0.433   7.354 -0.1734 -0.0227 -0.1596
20008SOL    HW160602   9.291   0.418   7.387  0.1988  0.4149  1.1349
20008SOL    HW260603   9.421   0.348   7.359 -0.2202 -0.0270  0.2454
20009SOL     OW60604   7.632   0.523   6.251 -0.5311  0.1254  0.7963
20009SOL    HW160605   7.582   0.478   6.319 -1.7913 -0.5996 -0.5598
20009SOL    HW260606   7.656   0.607   6.291 -0.8845 -0.4283  2.2615
20010SOL     OW60607   8.343   0.399   3.925  0.1170 -0.2608  0.3959
20010SOL    HW160608   8.283   0.334   3.889  1.0945  0.7312 -3.5562
20010SOL    HW260609   8.409   0.348   3.972 -1.4695 -1.6893  1.1638
20011SOL     OW60610   8.129   0.713   5.872  0.0699  0.2578  0.3165
20011SOL    HW160611   8.137   0.621   5.848 -0.5906  0.2747 -0.0024
20011SOL    HW260612   8.210   0.753   5.843  0.8090 -0.4064  1.3692
20012SOL     OW60613   7.228   5.865   9.935  0.2227 -0.4586  0.0763
20012SOL    HW160614   7.226   5.926  10.010 -0.6774 -0.4264  0.0428
20012SOL    HW260615   7.317   5.870   9.902  0.1426  0.9541  0.0036
20013SOL     OW60616   9.294   4.418   7.421  0.6646  0.1085 -0.4129
20013SOL    HW160617   9.238   4.341   7.417  0.1545  0.3795  0.9467
20013SOL    HW260618   9.354   4.401   7.494  1.2923  0.5215 -0.8185
20014SOL     OW60619   4.213   5.235   7.580 -0.1026  0.0444 -0.2230
20014SOL    HW160620   4.175   5.311   7.624 -0.0207 -1.1597  2.1157
20014SOL    HW260621   4.297   5.221   7.624  0.6350 -0.4776 -1.7094
20015SOL     OW60622   8.795   1.992   8.603 -0.5066 -0.0367  0.5896
20015SOL    HW160623   8.705   2.016   8.581 -0.6419 -1.0324 -0.0305
20015SOL    HW260624   8.848   2.033   8.534 -0.7530 -1.5904 -0.5754
20016SOL     OW60625   8.432   6.905   7.566  0.2043 -0.1391 -0.4485
20016SOL    HW160626   8.459   6.841   7.500  0.2483 -0.5187 -0.0662
20016SOL    HW260627   8.356   6.948   7.527 -0.0857 -0.7172 -0.5352
20017SOL     OW60628   6.456   9.465   7.138 -0.0670  0.5356  0.1701
20017SOL    HW160629   6.499   9.501   7.216  1.1196 -0.5671  0.0542
20017SOL    HW260630   6.398   9.396   7.172  1.6412 -1.0558  0.0087
20018SOL     OW60631   8.893   2.169   3.400  0.0512  0.2523 -0.1980
20018SOL    HW160632   8.808   2.178   3.357  0.1088 -1.9402 -0.8563
20018SOL    HW260633   8.872   2.148   3.491 -0.1205 -0.5843 -0.4282
20019SOL     OW60634   1.855   5.138   5.834 -0.3322  0.1044 -0.1315
20019SOL    HW160635   1.843   5.212   5.775 -0.7117 -0.4194 -0.7371
20019SOL    HW260636   1.910   5.171   5.905  0.2889  0.6983 -0.8787
20020SOL     OW60637   4.394   2.207   9.397 -0.3081 -0.0228 -0.0138
20020SOL    HW160638   4.319   2.259   9.425 -0.8187 -0.3480 -0.7736
20020SOL    HW260639   4.470   2.256   9.429 -0.8516 -0.2121  1.6708
20021SOL     OW60640   6.148   2.002   2.794 -0.4065 -0.0657  0.0608
20021SOL    HW160641   6.129   1.910   2.773  0.5371 -0.4870  0.9813
20021SOL    HW260642   6.062   2.043   2.797 -0.9868 -1.2795  1.1964
20022SOL     OW60643   2.236   7.342   7.376  0.0115 -0.2824 -0.1062
20022SOL    HW160644   2.169   7.275   7.388  0.7420 -1.0845 -0.4231
20022SOL    HW260645   2.315   7.304   7.415  0.8228 -0.2646 -1.6481
20023SOL     OW60646   4.301   3.506   9.344  0.0387  0.3927  0.4963
20023SOL    HW160647   4.290   3.511   9.439 -2.0501 -1.2882  0.4228
20023SOL    HW260648   4.349   3.423   9.331  0.7332  0.8494  0.0838
20024SOL     OW60649   0.443   3.558   4.153  0.5138 -0.3252 -0.0387
20024SOL    HW160650   0.482   3.645   4.161  2.7247 -1.3032  0.7398
20024SOL    HW260651   0.366   3.561   4.209  1.2481  0.7732  0.9636
20025SOL     OW60652   2.582   2.447   0.449 -0.6113 -0.1343 -0.3064
20025SOL    HW160653   2.525   2.524   0.443  0.3105  0.4697 -1.8750
20025SOL    HW260654   2.627   2.444   0.365  1.4143 -0.7898  0.7418
20026SOL     OW60655   2.976   6.080   5.036  0.2771  0.2599 -0.1438
20026SOL    HW160656   3.063   6.091   4.995  0.5188  0.7091  0.4741
20026SOL    HW260657   2.915   6.112   4.970  0.7710  2.5351  0.4103
20027SOL     OW60658   1.030   1.718   5.856 -0.1387  0.1818  0.1520
20027SOL    HW160659   1.104   1.677   5.901 -0.3957 -0.3785  0.0691
20027SOL    HW260660   1.051   1.709   5.763 -0.4877 -0.3129  0.1194
20028SOL     OW60661   4.968   2.619   0.759 -0.1403 -0.0854 -0.3333
20028SOL    HW160662   5.063   2.621   0.752 -0.2431 -0.0542 -2.1445
20028SOL    HW260663   4.947   2.527   0.775  0.2323  0.0885  1.2964
20029SOL     OW60664   9.597   2.081   6.443 -0.1977  0.0759 -0.2565
20029SOL    HW160665   9.614   2.003   6.389 -0.2546 -0.1481  0.0416
20029SOL    HW260666   9.670   2.082   6.505 -0.1425  0.3210 -0.3271
20030SOL     OW60667   4.740   5.328   7.176  0.7914 -0.4113 -0.2946
20030SOL    HW160668   4.814   5.311   7.234 -0.1977 -0.1222  1.1036
20030SOL    HW260669   4.699   5.243   7.163 -0.5323 -0.1482  1.6623
20031SOL     OW60670   1.952   2.137   6.964  0.2310  0.4280  0.5900
20031SOL    HW160671   2.002   2.102   7.038  2.3533  2.0123  0.0070
20031SOL    HW260672   1.916   2.219   6.996 -0.2077  0.3301  0.3536
20032SOL     OW60673   3.672   1.508   4.325 -0.5194 -0.1137 -0.5983
20032SOL    HW160674   3.588   1.464   4.309 -0.8512  0.5086 -0.6042
20032SOL    HW260675   3.696   1.544   4.239  0.0991 -0.8638 -0.7543
20033SOL     OW60676   2.821   3.614   2.320 -0.1161 -0.0713 -0.2893
20033SOL    HW160677   2.728   3.628   2.302 -0.0866  0.8960  0.2359
20033SOL    HW260678   2.827   3.523   2.347 -0.8836 -0.1895 -0.4933
20034SOL     OW60679   7.494   3.803   0.522 -0.0123  0.0737  0.4584
20034SOL    HW160680   7.539   3.766   0.446  0.4770 -0.2952  0.9207
20034SOL    HW260681   7.445   3.729   0.560  1.5394 -0.3150  1.8037
20035SOL     OW60682   4.813   2.313   6.351 -0.4265  0.2531 -0.3906
20035SOL    HW160683   4.807   2.373   6.425 -2.3041  1.6269 -1.5767
20035SOL    HW260684   4.722   2.289   6.332  0.2056 -2.5898 -0.3144
20036SOL     OW60685   0.995   9.302   9.754 -0.0628  0.6642  0.3974
20036SOL    HW160686   0.997   9.332   9.663 -1.0798 -0.7721 -0.1261
20036SOL    HW260687   0.934   9.361   9.798  1.5472  2.3011  0.5415
20037SOL     OW60688   8.650   9.045   1.799  0.2650 -0.2462 -0.0534
20037SOL    HW160689   8.744   9.044   1.780  0.2753 -0.3774  0.0026
20037SOL    HW260690   8.641   8.995   1.880 -0.0055 -1.3867 -0.7736
20038SOL     OW60691   0.147   3.989   0.864  0.3309 -0.5043  0.1532
20038SOL    HW160692   0.101   3.905   0.866 -2.0048  0.6061 -1.8258
20038SOL    HW260693   0.220   3.974   0.803 -0.8442 -0.8121 -1.2402
20039SOL     OW60694   1.759   1.993   6.833 -0.3302  0.5023  0.3065
20039SOL    HW160695   1.708   1.942   6.897 -1.1503  1.0058  0.0649
20039SOL    HW260696   1.825   2.039   6.886  2.1481 -2.6967  0.3287
20040SOL     OW60697   7.439   1.254   5.562  0.2527 -0.3100  0.3584
20040SOL    HW160698   7.487   1.336   5.547 -0.3644 -0.3259 -1.9946
20040SOL    HW260699   7.506   1.186   5.558  0.3207 -0.1775 -1.0733
20041SOL     OW60700   0.173   1.623   5.900  0.5628 -0.0604 -0.6671
20041SOL    HW160701   0.102   1.687   5.889  2.1418  1.5005 -2.5525
20041SOL    HW260702   0.181   1.582   5.814  2.2333  0.1581 -0.6408
20042SOL     OW60703   5.947   7.524   8.753  0.4603 -0.1297  0.0359
20042SOL    HW160704   5.899   7.454   8.796 -0.1259  1.3650  1.9741
20042SOL    HW260705   6.038   7.495   8.752  0.4247 -0.4243  1.9639
20043SOL     OW60706   1.773   1.441   7.143  0.1928  0.3771 -0.0822
20043SOL    HW160707   1.698   1.489   7.177 -0.5982 -1.2515  0.5868
20043SOL    HW260708   1.846   1.470   7.197 -0.7368 -0.9244  2.0138
20044SOL     OW60709   9.040   2.728   5.247  0.0165  0.4791  0.0442
20044SOL    HW160710   9.103   2.670   5.290 -0.3218  0.1430  0.0846
20044SOL    HW260711   8.995   2.672   5.184 -1.1063  0.4103  0.8752
20045SOL     OW60712   2.290   0.215   6.281  0.4412 -0.6928 -0.1806
20045SOL    HW160713   2.197   0.222   6.305  0.4494 -0.3817 -0.2437
20045SOL    HW260714   2.290   0.165   6.199  0.1000  1.9098 -1.8550
20046SOL     OW60715   1.299   7.355   0.202 -0.0034 -0.5621  0.0548
20046SOL    HW160716   1.263   7.298   0.269 -1.0364  0.8207  0.7264
20046SOL    HW260717   1.391   7.329   0.194  0.0168 -1.0625  1.6645
20047SOL     OW60718   8.192   8.072   2.840  0.2169  0.1553 -0.1269
20047SOL    HW160719   8.199   8.152   2.893  1.2351  0.8132 -1.2140
20047SOL    HW260720   8.281   8.056   2.810 -0.2738 -0.4474 -1.2847
20048SOL     OW60721   8.162   5.616   8.545  0.0603  0.1654 -0.1990
20048SOL    HW160722   8.071   5.586   8.541  0.3582 -0.7019 -0.7661
20048SOL    HW260723   8.168   5.685   8.479 -0.2321  0.3569 -0.0268
20049SOL     OW60724   6.416   1.732   2.617 -0.1151 -0.1984  0.2603
20049SOL    HW160725   6.434   1.642   2.589  1.6994  0.0374  0.5245
20049SOL    HW260726   6.461   1.740   2.701 -1.9240  0.3869  1.2042
20050SOL     OW60727   4.876   6.489   9.992  0.4533 -0.4103 -0.4995
20050SOL    HW160728   4.860   6.453   9.905  0.6032  0.5364 -0.9310
20050SOL    HW260729   4.967   6.517   9.990 -0.4415  2.8855 -1.3117
20051SOL     OW60730   9.193   2.464   0.180  0.3169  0.0833 -0.1939
20051SOL    HW160731   9.229   2.383   0.215 -0.6680 -0.5562 -0.6209
20051SOL    HW260732   9.213   2.530   0.247  0.7370 -0.5930  0.3562
20052SOL     OW60733   1.444   1.292   6.779 -0.3268 -0.0591  0.5116
20052SOL    HW160734   1.521   1.275   6.833 -0.3659 -0.2911  0.4944
20052SOL    HW260735   1.374   1.311   6.842 -0.2836  0.0375  0.5307
20053SOL     OW60736   8.743   8.285   5.681 -0.6343 -0.7727  0.1028
20053SOL    HW160737   8.773   8.216   5.622 -1.1605  0.2723 -1.4861
20053SOL    HW260738   8.657   8.255   5.711  0.0083 -1.7096  1.0630
20054SOL     OW60739   8.232   0.021   3.147 -0.3866  0.6862  0.6379
20054SOL    HW160740   8.145   0.045   3.116 -1.3173 -2.8658  0.0608
20054SOL    HW260741   8.289   0.039   3.073 -1.2618 -0.2213 -0.2937
20055SOL     OW60742   1.290   5.748   5.401  0.6277 -0.1436 -0.1237
20055SOL    HW160743   1.286   5.836   5.438  1.8028 -0.0585 -0.1592
20055SOL    HW260744   1.204   5.710   5.420  0.4518  0.6562  0.7645
20056SOL     OW60745   5.161   8.347   6.854 -0.1066 -0.3161 -0.1863
20056SOL    HW160746   5.205   8.399   6.921 -0.7257 -1.5628  1.2228
20056SOL    HW260747   5.132   8.268   6.899  1.1172 -2.1081 -2.3345
20057SOL     OW60748   7.572   9.778   0.328 -0.2933 -0.0740 -0.5531
20057SOL    HW160749   7.568   9.726   0.409 -0.5438  0.1583 -0.4140
20057SOL    HW260750   7.657   9.756   0.290 -0.0645  0.0056 -0.0938
20058SOL     OW60751   4.384   0.571   3.066 -0.4772  0.4931  0.3137
20058SOL    HW160752   4.471   0.534   3.052 -0.6861 -0.4227  1.3421
20058SOL    HW260753   4.401   0.658   3.101  0.0575 -0.2240  1.9250
20059SOL     OW60754   8.946   3.439   7.411  0.6088 -0.0941  0.3870
20059SOL    HW160755   8.992   3.357   7.390 -3.2119 -1.8529 -2.5254
20059SOL    HW260756   8.882   3.414   7.478  0.9374  1.1246  1.1778
20060SOL     OW60757   8.203   3.640   6.792 -0.6058  0.1182  0.1845
20060SOL    HW160758   8.152   3.580   6.846 -1.2222 -1.1450 -1.7259
20060SOL    HW260759   8.240   3.586   6.723  1.0513  1.5044 -0.0884
20061SOL     OW60760   2.716   8.547   1.101 -0.0798 -0.2848 -0.5208
20061SOL    HW160761   2.705   8.499   1.018 -0.5962  1.0023 -1.2198
20061SOL    HW260762   2.646   8.514   1.157 -0.0549 -0.7846 -0.7768
20062SOL     OW60763   6.536   4.540   2.518 -0.5334  0.4792 -0.1212
20062SOL    HW160764   6.610   4.574   2.468  0.5087 -1.6600 -0.1270
20062SOL    HW260765   6.461   4.552   2.461 -0.0477  1.7210 -0.5456
20063SOL     OW60766   3.259   5.383   8.653 -0.0039  0.4100 -0.5915
20063SOL    HW160767   3.351   5.366   8.631 -0.3141  0.4925 -2.0466
20063SOL    HW260768   3.254   5.367   8.748  0.9077 -2.2986 -0.9171
20064SOL     OW60769   7.062   7.212   3.138  0.1276 -0.2722  0.3140
20064SOL    HW160770   7.066   7.290   3.083 -0.9175 -0.5910 -0.2266
20064SOL    HW260771   6.996   7.157   3.097  0.7647 -1.4002  0.7561
20065SOL     OW60772   7.774   6.434   8.715 -0.1438  0.1120 -0.5329
20065SOL    HW160773   7.704   6.382   8.755  0.9902  1.1649  3.2105
20065SOL    HW260774   7.733   6.519   8.699 -0.0102  0.4341  0.7551
20066SOL     OW60775   4.006   3.333   6.090  0.4512 -0.1411  0.1228
20066SOL    HW160776   4.011   3.332   5.994  0.8196  0.7460  0.1208
20066SOL    HW260777   4.028   3.423   6.114 -0.4799 -0.1314  1.0065
20067SOL     OW60778   6.632   0.222   7.155  0.2212  0.1780  0.1034
20067SOL    HW160779   6.560   0.233   7.217  0.6983 -1.3165  0.9594
20067SOL    HW260780   6.711   0.234   7.207  0.6164  0.1025 -0.4652
20068SOL     OW60781   8.860   4.330   0.851 -0.1072 -0.0682  0.2230
20068SOL    HW160782   8.934   4.310   0.793 -0.1926  0.2828 -0.0115
20068SOL    HW260783   8.837   4.246   0.891 -0.0805 -0.3262 -0.2927
20069SOL     OW60784   3.235   3.065   3.685  0.5290  0.4616  0.4252
20069SOL    HW160785   3.327   3.089   3.692  0.2349  1.5334  0.9168
20069SOL    HW260786   3.212   3.033   3.772  0.8499 -1.4672 -0.1585
20070SOL     OW60787   8.288   2.249   9.951  0.1721 -0.1945  0.1050
20070SOL    HW160788   8.315   2.341   9.942 -1.2117  0.4779  2.0407
20070SOL    HW260789   8.214   2.252  10.012  1.2275 -2.7917  1.6732
20071SOL     OW60790   9.949   5.280   2.275  0.1916  0.4566  0.3546
20071SOL    HW160791   9.895   5.312   2.202 -2.7802  1.9797  3.0065
20071SOL    HW260792   9.899   5.208   2.312  1.6434 -0.2643  0.9906
20072SOL     OW60793   6.372   1.896   5.579 -0.0007 -0.3672 -0.8791
20072SOL    HW160794   6.296   1.953   5.565  0.1807 -0.1215 -0.8832
20072SOL    HW260795   6.341   1.809   5.556 -0.0587 -0.1527 -1.6321
20073SOL     OW60796   5.445   4.803   9.028  0.3931  0.7765 -0.3891
20073SOL    HW160797   5.541   4.804   9.034  0.4555 -2.0825  0.6026
20073SOL    HW260798   5.416   4.858   9.101  1.2571  1.1330 -0.2966
20074SOL     OW60799   6.189   4.017   3.379 -0.0657 -0.0252 -0.1848
20074SOL    HW160800   6.270   4.068   3.383 -0.3509  0.4011  0.1354
20074SOL    HW260801   6.208   3.949   3.313 -0.3327  1.6357 -2.0756
20075SOL     OW60802   0.159   1.499   5.675 -0.6578 -0.8199 -0.6884
20075SOL    HW160803   0.154   1.412   5.637  0.3241 -0.9919 -0.4345
20075SOL    HW260804   0.213   1.549   5.614  0.8450 -1.0676  0.3846
20076SOL     OW60805   8.804   9.282   7.625 -0.3092 -0.6213 -0.0194
20076SOL    HW160806   8.775   9.371   7.608 -0.7366 -0.6751  0.4044
20076SOL    HW260807   8.899   9.289   7.637 -0.5366  0.0536  1.7140
20077SOL     OW60808   5.795   7.508   6.794  0.4061 -0.1405 -0.2167
20077SOL    HW160809   5.777   7.421   6.828 -1.3891  0.2765 -0.0445
20077SOL    HW260810   5.761   7.507   6.704 -0.5581  0.6721  0.1221
20078SOL     OW60811   9.892   5.309   5.023  0.2454  0.1013 -0.5904
20078SOL    HW160812   9.846   5.366   4.961  0.6832  1.4765  0.2859
20078SOL    HW260813   9.902   5.363   5.102  0.1533 -1.4180  0.5023
20079SOL     OW60814   3.422   9.609   6.422 -0.2522 -0.7679 -0.2925
20079SOL    HW160815   3.428   9.631   6.515 -1.2270  1.7246 -0.7341
20079SOL    HW260816   3.334   9.574   6.412  0.0810 -1.6447 -0.1758
20080SOL     OW60817   1.245   7.865   2.305  0.4479  0.4813 -0.3202
20080SOL    HW160818   1.261   7.909   2.388  2.3438  2.3393 -1.5734
20080SOL    HW260819   1.214   7.935   2.246  0.3638 -0.5163 -1.5035
20081SOL     OW60820   3.636   7.075   3.846 -0.5102 -0.6456 -0.1328
20081SOL    HW160821   3.621   7.021   3.768  0.5732 -1.8819  0.4780
20081SOL    HW260822   3.682   7.017   3.907  0.3453  0.8512  0.7055
20082SOL     OW60823   4.589   6.336   8.677 -0.5937 -0.2078  0.2915
20082SOL    HW160824   4.612   6.420   8.638  0.3378 -0.1937  0.8458
20082SOL    HW260825   4.628   6.271   8.618 -1.5802 -0.2815 -0.3110
20083SOL     OW60826   5.703   6.437   5.587  0.0822 -0.6205 -0.5016
20083SOL    HW160827   5.682   6.513   5.641 -0.6746 -1.5099  0.5057
20083SOL    HW260828   5.796   6.447   5.566  0.0385  0.4656 -0.2184
20084SOL     OW60829   1.024   4.040   7.107 -0.2498 -0.3264 -0.5851
20084SOL    HW160830   0.932   4.043   7.133 -0.6423 -0.4608 -1.8967
20084SOL    HW260831   1.028   4.091   7.026  0.1936 -2.9123 -2.2953
20085SOL     OW60832   2.878   3.881   9.465 -0.2707  0.2342  0.3533
20085SOL    HW160833   2.808   3.940   9.437  1.2901  1.3321 -1.5322
20085SOL    HW260834   2.881   3.813   9.397 -1.5276 -1.6699  2.0915
20086SOL     OW60835   2.197   3.818   4.079 -0.3910  0.4468 -0.1241
20086SOL    HW160836   2.194   3.728   4.045  0.6129 -0.0258  0.9574
20086SOL    HW260837   2.267   3.860   4.029 -0.0803  0.2742  0.1636
20087SOL     OW60838   4.671   0.346   2.133  0.2197  0.0432 -0.2297
20087SOL    HW160839   4.688   0.260   2.095  0.9287 -0.8765  1.9959
20087SOL    HW260840   4.664   0.404   2.058  2.7395 -1.4148 -1.7400
20088SOL     OW60841   5.016   8.092   1.707 -0.0368 -0.1084 -0.3583
20088SOL    HW160842   4.922   8.076   1.713  0.0882 -0.3708  1.9974
20088SOL    HW260843   5.049   8.074   1.795  1.9216  1.8540 -0.5936
20089SOL     OW60844   2.921   3.900   8.141 -0.6129  0.0112 -0.0698
20089SOL    HW160845   2.838   3.921   8.099 -0.3358  1.5188  0.0772
20089SOL    HW260846   2.978   3.974   8.121  1.2042 -1.6531 -1.4097
20090SOL     OW60847   3.457   5.001   4.218  0.3327 -0.2737 -0.4409
20090SOL    HW160848   3.399   4.942   4.171  2.0347 -1.3169 -1.3687
20090SOL    HW260849   3.399   5.059   4.266 -1.5616  0.8810 -3.7860
20091SOL     OW60850   2.458   3.363   6.581 -0.0499 -0.0209 -0.3582
20091SOL    HW160851   2.514   3.321   6.646 -0.8637 -0.3549  0.1442
20091SOL    HW260852   2.519   3.411   6.524  0.7333 -0.3390  0.1930
20092SOL     OW60853   0.968   8.297   6.161  0.1755  0.4762 -0.1375
20092SOL    HW160854   1.028   8.297   6.087 -0.0229  0.1850 -0.3045
20092SOL    HW260855   0.883   8.320   6.123 -0.1430 -0.7043 -0.1988
20093SOL     OW60856   4.059   4.991   8.367 -0.1411  0.3276 -0.5435
20093SOL    HW160857   4.058   5.055   8.295  2.2217 -0.2178 -1.1556
20093SOL    HW260858   4.091   4.910   8.327  1.2223  0.0045  1.0795
20094SOL     OW60859   3.645   4.582   0.269 -0.4473  0.7190  0.3162
20094SOL    HW160860   3.711   4.623   0.213  0.9034 -3.6322 -1.6886
20094SOL    HW260861   3.690   4.571   0.354 -0.4486  2.1995  0.5349
20095SOL     OW60862   0.967   3.571   7.696 -0.3056 -0.0397  0.0845
20095SOL    HW160863   0.880   3.540   7.720 -0.9032  1.7150  0.3023
20095SOL    HW260864   0.972   3.558   7.601 -1.2625  0.9190 -0.1055
20096SOL     OW60865   8.325   9.760   4.826  0.2706 -0.0265 -0.7771
20096SOL    HW160866   8.349   9.714   4.745  0.0598 -0.6587 -0.4853
20096SOL    HW260867   8.322   9.691   4.893 -1.1958  0.2211 -0.5614
20097SOL     OW60868   8.918   3.293   8.889  0.4248  0.4038 -0.0158
20097SOL    HW160869   8.870   3.265   8.967 -1.0671 -0.8468 -1.3197
20097SOL    HW260870   9.006   3.313   8.922 -0.4019  0.8531  2.1203
20098SOL     OW60871   5.447   2.396   3.276  0.1592  0.0972 -0.4540
20098SOL    HW160872   5.392   2.348   3.338 -0.1311  0.1804 -0.6494
20098SOL    HW260873   5.505   2.329   3.238 -0.4687 -0.1590 -0.9731
20099SOL     OW60874   8.010   6.052   2.217 -0.1190 -0.0118 -0.4289
20099SOL    HW160875   8.027   6.146   2.218 -0.6994  0.1113  1.2713
20099SOL    HW260876   8.095   6.012   2.233  0.0769  0.2201 -0.8682
20100SOL     OW60877   4.102   2.640   4.467  0.3819 -0.3893 -0.2942
20100SOL    HW160878   4.126   2.706   4.402 -1.2938  0.8935  0.2992
20100SOL    HW260879   4.054   2.574   4.417 -2.8353  1.6549 -0.2200
20101SOL     OW60880   6.604   3.588   1.706 -0.0424 -0.1420  0.2709
20101SOL    HW160881   6.542   3.648   1.748 -1.1489 -1.3263  0.4268
20101SOL    HW260882   6.549   3.515   1.676  1.2536 -1.1042  0.1514
20102SOL     OW60883   8.170   8.481   2.455  0.6649 -0.0489 -0.8166
20102SOL    HW160884   8.083   8.499   2.418 -0.1597  0.3305  1.1992
20102SOL    HW260885   8.174   8.386   2.461 -1.0387 -0.0329  2.1239
20103SOL     OW60886   4.780   1.478   2.606 -0.2574 -0.0158  0.0266
20103SOL    HW160887   4.713   1.421   2.643  0.5474 -0.4238  0.9109
20103SOL    HW260888   4.790   1.548   2.671  1.7253 -1.1562  1.0850
20104SOL     OW60889   6.941   8.504   1.216 -0.0254  1.1224  0.3261
20104SOL    HW160890   6.946   8.551   1.133 -0.5887  0.9273  0.1779
20104SOL    HW260891   6.907   8.569   1.278  0.7058  1.3645  0.4871
20105SOL     OW60892   9.858   0.920   7.500  0.1908 -0.1071 -0.2178
20105SOL    HW160893   9.834   0.936   7.408 -1.9757  0.9178  0.4327
20105SOL    HW260894   9.791   0.859   7.531  0.2995  0.3465  0.9285
20106SOL     OW60895   7.338   8.236   1.847  0.2411 -0.0224  0.1216
20106SOL    HW160896   7.311   8.319   1.886 -0.7820 -0.6324  0.7708
20106SOL    HW260897   7.378   8.260   1.763  0.7658  1.1795  0.6918
20107SOL     OW60898   9.822   2.514   7.756  0.1795  0.3515  0.1633
20107SOL    HW160899   9.747   2.469   7.716  0.3081 -2.2024  2.4390
20107SOL    HW260900   9.789   2.542   7.842  1.4410  0.3690  0.6613
20108SOL     OW60901   7.239   5.847   4.690  0.2806  0.5325  0.5417
20108SOL    HW160902   7.187   5.768   4.704  0.4750  0.6746  2.2303
20108SOL    HW260903   7.204   5.910   4.753 -0.0332  1.8991 -0.9510
20109SOL     OW60904   5.221   8.794   2.018 -0.2146  0.7858 -0.3156
20109SOL    HW160905   5.154   8.859   2.038 -0.6203  0.4732 -0.6292
20109SOL    HW260906   5.177   8.731   1.960 -0.9808 -1.8229  2.7955
20110SOL     OW60907   2.265   1.759   7.317  0.0174 -0.0242 -0.2336
20110SOL    HW160908   2.321   1.837   7.317 -0.2149  0.1519 -1.2131
20110SOL    HW260909   2.196   1.779   7.381 -1.1349  1.4018 -1.8377
20111SOL     OW60910   2.331   3.191   8.030 -0.5754 -0.7124 -0.0606
20111SOL    HW160911   2.298   3.169   8.117 -1.1886  0.9406  0.1581
20111SOL    HW260912   2.286   3.130   7.971 -0.1644 -1.8364  0.7563
20112SOL     OW60913   5.843   5.950   9.368 -0.0698  0.5104  0.5887
20112SOL    HW160914   5.883   6.035   9.382 -0.6753  0.7854  0.6562
20112SOL    HW260915   5.749   5.964   9.382 -0.0897 -0.3282  1.3556
20113SOL     OW60916   3.782   0.692   8.720  0.1595 -0.1266 -0.1354
20113SOL    HW160917   3.755   0.633   8.790  0.6659  0.1570  0.3141
20113SOL    HW260918   3.817   0.635   8.652 -2.8005 -0.6348 -1.3862
20114SOL     OW60919   4.921   0.830   9.181 -0.3515  0.1829  0.2451
20114SOL    HW160920   4.964   0.750   9.210  0.5258 -0.1024 -1.7507
20114SOL    HW260921   4.832   0.802   9.157  0.7029 -0.7888 -2.9035
20115SOL     OW60922   6.255   3.952   4.965 -0.1119 -0.0822  0.0296
20115SOL    HW160923   6.201   3.874   4.975  0.3211 -0.3876  0.0262
20115SOL    HW260924   6.333   3.921   4.919 -0.0634  0.4096 -0.2219
20116SOL     OW60925   2.835   8.923   2.868 -0.2401 -0.3788 -0.0374
20116SOL    HW160926   2.880   8.932   2.785  0.7805  0.1751  0.5574
20116SOL    HW260927   2.744   8.905   2.844  0.4575 -2.7840 -1.2856
20117SOL     OW60928   6.912   2.919   7.249  0.2092  0.1399 -0.2905
20117SOL    HW160929   6.961   2.955   7.323 -1.5118  0.2872  0.8220
20117SOL    HW260930   6.964   2.944   7.172  1.2823  1.2671  0.7463
20118SOL     OW60931   2.669   0.296   6.233 -0.0044  0.1312 -0.0412
20118SOL    HW160932   2.646   0.281   6.142  0.1936 -1.5249  0.1542
20118SOL    HW260933   2.665   0.392   6.243  0.2290  0.3681 -1.8307
20119SOL     OW60934   5.526   3.281   9.862  0.1486  0.2331 -0.0999
20119SOL    HW160935   5.484   3.316   9.941 -0.0787 -1.7124  0.6902
20119SOL    HW260936   5.615   3.261   9.890 -0.0419 -0.8098 -0.2251
20120SOL     OW60937   0.809   6.083   2.799  0.2279 -0.5540 -0.5137
20120SOL    HW160938   0.809   6.121   2.711  0.7521  1.2879  0.2234
20120SOL    HW260939   0.716   6.072   2.820  0.0348 -3.8569 -2.3516
20121SOL     OW60940   8.299   9.310   2.569 -0.0167  0.4206  0.0393
20121SOL    HW160941   8.390   9.295   2.544 -0.1308  1.1396 -0.8318
20121SOL    HW260942   8.266   9.374   2.506 -0.1913  2.6791  2.2611
20122SOL     OW60943   1.733   7.873   2.136 -0.0291  0.1856  0.3007
20122SOL    HW160944   1.656   7.825   2.168  0.1811 -0.7520 -0.5377
20122SOL    HW260945   1.720   7.879   2.042  0.7680  0.3150  0.1928
20123SOL     OW60946   3.936   2.674   8.650  0.4161 -0.1910  0.7382
20123SOL    HW160947   3.912   2.736   8.719  0.7866  1.7315 -0.7779
20123SOL    HW260948   3.985   2.726   8.587  1.9086 -2.3391  0.0021
20124SOL     OW60949   5.697   9.079   1.791  0.4961  0.0809 -0.1140
20124SOL    HW160950   5.788   9.079   1.820  0.9536 -1.6074 -1.3797
20124SOL    HW260951   5.655   9.147   1.843  2.6145  1.3583  0.0393
20125SOL     OW60952   0.840   1.017   9.547 -0.4478  0.1636 -0.1630
20125SOL    HW160953   0.790   1.097   9.563 -1.4533 -0.0662 -1.8700
20125SOL    HW260954   0.924   1.047   9.513 -0.8187  0.4991 -0.7848
20126SOL     OW60955   7.234   8.182   2.851 -0.5028 -0.0305  0.5643
20126SOL    HW160956   7.271   8.198   2.937 -0.3637  0.5448  0.3975
20126SOL    HW260957   7.290   8.230   2.791 -1.4753  0.8233  0.3066
20127SOL     OW60958   6.068   3.235   5.782 -0.2618  0.4508  0.0968
20127SOL    HW160959   5.983   3.251   5.740 -0.0313  0.9987 -0.1755
20127SOL    HW260960   6.108   3.165   5.731 -0.1995  0.7657 -0.2927
20128SOL     OW60961   4.402   4.657   3.807  0.1638 -0.3015 -0.1107
20128SOL    HW160962   4.403   4.688   3.897 -1.3174 -0.4537 -0.0092
20128SOL    HW260963   4.310   4.665   3.780  0.1979 -2.1628 -0.9279
20129SOL     OW60964   4.976   1.814   8.749  0.3913 -0.6048  0.5058
20129SOL    HW160965   5.055   1.821   8.802  0.8211 -0.4207 -0.1569
20129SOL    HW260966   4.947   1.724   8.761  2.0068 -1.3819 -1.0722
20130SOL     OW60967   3.806   2.160   7.047 -0.0442 -0.2648  0.5112
20130SOL    HW160968   3.757   2.226   6.998 -0.0865 -1.5609 -1.2727
20130SOL    HW260969   3.893   2.159   7.007  0.5619 -0.0279  1.7522
20131SOL     OW60970   9.791   7.598   1.064 -0.3587  0.1992 -0.3829
20131SOL    HW160971   9.821   7.625   1.150 -0.2920 -1.7045  0.2408
20131SOL    HW260972   9.717   7.656   1.045 -0.1727  0.8533  0.8144
20132SOL     OW60973   8.568   1.013   0.428 -0.4527 -0.0836  0.0129
20132SOL    HW160974   8.561   1.013   0.524 -0.6118  2.4096  0.0546
20132SOL    HW260975   8.479   1.029   0.397 -0.2368  0.0531 -0.5397
20133SOL     OW60976   1.773   2.599   8.743 -0.2652  0.8168 -0.0675
20133SOL    HW160977   1.809   2.685   8.724  0.3324  0.6162  0.1242
20133SOL    HW260978   1.691   2.595   8.694 -1.2228  2.1745  1.3499
20134SOL     OW60979   5.323   3.598   7.187  0.5786  0.2076  0.2136
20134SOL    HW160980   5.314   3.551   7.104  0.9502  1.3122 -0.4774
20134SOL    HW260981   5.256   3.666   7.183 -1.6157 -1.7108  2.2762
20135SOL     OW60982   2.181   1.704   2.581  0.1522 -0.0891  0.0050
20135SOL    HW160983   2.276   1.704   2.568  0.2914  4.0377 -0.2241
20135SOL    HW260984   2.145   1.696   2.492  0.2511 -1.1098  0.0432
20136SOL     OW60985   1.508   5.066   1.845 -0.5370 -0.0983 -0.3491
20136SOL    HW160986   1.522   5.159   1.863 -1.5685 -0.1447  0.9050
20136SOL    HW260987   1.579   5.022   1.892  0.5295  0.0687 -1.7419
20137SOL     OW60988   1.772   7.193   8.382 -0.5170  0.1194 -0.6830
20137SOL    HW160989   1.696   7.252   8.381 -0.2497  0.4910 -2.2716
20137SOL    HW260990   1.736   7.107   8.404 -1.1201  0.6009  0.2898
20138SOL     OW60991   5.887   7.117   5.494  0.0579 -0.3298 -0.3805
20138SOL    HW160992   5.852   7.028   5.498  0.2611 -0.4259 -0.7323
20138SOL    HW260993   5.905   7.140   5.585  2.7015 -1.7235 -0.4521
20139SOL     OW60994   3.374   5.988   4.220 -0.1752  0.6736 -0.2208
20139SOL    HW160995   3.439   6.049   4.184  0.5413 -0.0920 -0.2347
20139SOL    HW260996   3.425   5.915   4.254 -0.9616  0.5555  0.7567
20140SOL     OW60997   3.526   0.104   0.354 -0.1071 -0.6921  0.1494
20140SOL    HW160998   3.468   0.162   0.405 -0.1894  1.6499 -2.3913
20140SOL    HW260999   3.614   0.127   0.383 -0.1955 -0.0049 -0.1009
20141SOL     OW61000   7.473   0.927   8.391 -0.1585 -0.1054 -0.6537
20141SOL    HW161001   7.419   0.959   8.319 -1.8334  0.0273  0.6116
20141SOL    HW261002   7.477   0.832   8.378 -1.6258 -0.2498 -0.1802
20142SOL     OW61003   3.592   1.095   7.433 -0.3065  0.0046 -0.2747
20142SOL    HW161004   3.608   1.020   7.376 -1.0822  0.7713 -1.5439
20142SOL    HW261005   3.500   1.086   7.460 -0.6106  0.8259 -0.9777
20143SOL     OW61006   7.418   0.457   6.727 -0.3147  0.2211 -0.4787
20143SOL    HW161007   7.417   0.384   6.788 -1.4815  0.0219 -0.7140
20143SOL    HW261008   7.335   0.503   6.741  0.1389  1.1638 -0.7396
20144SOL     OW61009   0.930   2.382   5.949  0.0922  0.5096 -0.6975
20144SOL    HW161010   0.870   2.311   5.974  1.3969 -1.0978 -1.9282
20144SOL    HW261011   0.873   2.458   5.939 -1.4587 -0.4836  0.0464
20145SOL     OW61012   7.962   2.008   5.952  0.1682  0.0068 -0.1084
20145SOL    HW161013   8.023   1.965   5.892  0.3782 -2.0836  1.4855
20145SOL    HW261014   7.876   1.975   5.926  0.0978  0.2209 -0.1506
20146SOL     OW61015   1.564   6.312   3.503  0.2868  0.3004  0.0729
20146SOL    HW161016   1.640   6.271   3.546  0.2774  1.5211  1.3039
20146SOL    HW261017   1.527   6.242   3.449  1.9366 -0.4931 -0.0954
20147SOL     OW61018   9.274   9.308   6.875  0.1490 -0.4298 -0.0683
20147SOL    HW161019   9.299   9.232   6.822 -0.4053  0.3446 -1.4840
20147SOL    HW261020   9.189   9.284   6.913 -0.2946 -0.3141 -0.9662
20148SOL     OW61021   8.623   1.475   7.987  0.6259 -0.2091 -0.1159
20148SOL    HW161022   8.677   1.511   7.918  0.5388  0.0888 -0.0281
20148SOL    HW261023   8.548   1.534   7.994  2.0398  1.4917  2.2222
20149SOL     OW61024   7.882   5.196   5.938 -0.1057 -0.0861 -0.0528
20149SOL    HW161025   7.951   5.168   5.877  0.4214 -1.5110  1.1274
20149SOL    HW261026   7.837   5.266   5.892  0.2353 -1.1328 -2.1141
20150SOL     OW61027   8.784   0.991   2.823  0.0394  0.0562 -0.1325
20150SOL    HW161028   8.806   0.998   2.730  0.6547  1.3286  0.0878
20150SOL    HW261029   8.868   0.973   2.866 -0.4864 -2.4268  0.0410
20151SOL     OW61030   7.055   8.313   9.146 -0.7508 -0.2381 -0.0272
20151SOL    HW161031   7.006   8.384   9.188  0.1591 -0.5279  1.6100
20151SOL    HW261032   7.006   8.294   9.066 -1.2357  1.9461 -0.3134
20152SOL     OW61033   3.813   2.788   8.275  0.1454  0.3162  0.1478
20152SOL    HW161034   3.727   2.765   8.311  0.3234 -2.6748 -0.9901
20152SOL    HW261035   3.806   2.766   8.182  1.4076  2.5051 -0.5272
20153SOL     OW61036   0.682   9.510   5.739  0.3077  0.0965 -0.1821
20153SOL    HW161037   0.622   9.495   5.666 -0.5228 -2.0981  0.8843
20153SOL    HW261038   0.631   9.491   5.817  1.6582  0.7702  0.9142
20154SOL     OW61039   4.942   6.394   3.093 -0.0422 -0.3625 -0.8042
20154SOL    HW161040   4.985   6.459   3.038  0.0829 -0.6720 -1.0709
20154SOL    HW261041   4.873   6.443   3.138  0.2505  0.0188 -0.7736
20155SOL     OW61042   6.536   0.365   7.379 -0.0983  0.7478 -0.3949
20155SOL    HW161043   6.629   0.385   7.373 -0.3383  1.6803 -1.2936
20155SOL    HW261044   6.498   0.442   7.422 -0.4255  0.2638  0.1962
20156SOL     OW61045   9.852   6.647   7.592 -0.2865 -0.0819 -0.7507
20156SOL    HW161046   9.900   6.571   7.626 -0.5424  0.7762  1.6663
20156SOL    HW261047   9.894   6.722   7.633 -0.3666  1.1044 -2.7208
20157SOL     OW61048   6.540   0.929   8.635  0.8179 -0.3954 -0.1292
20157SOL    HW161049   6.491   0.914   8.715  2.6297 -0.2113  1.0616
20157SOL    HW261050   6.474   0.925   8.565 -0.4812 -2.8793  1.1111
20158SOL     OW61051   9.103   4.832   8.745  0.4503  0.1104 -0.5092
20158SOL    HW161052   9.019   4.812   8.704  0.9986 -1.2029 -1.0266
20158SOL    HW261053   9.166   4.774   8.702  2.0066  2.4014 -1.5126
20159SOL     OW61054   0.408   5.683   6.084 -0.3869  0.3154  0.3156
20159SOL    HW161055   0.477   5.702   6.021  1.1670 -2.2824  1.0667
20159SOL    HW261056   0.370   5.768   6.105  1.6377  1.6890 -1.2114
20160SOL     OW61057   4.467   2.389   5.299  0.3733 -0.0279  0.3380
20160SOL    HW161058   4.416   2.402   5.379 -0.7030 -0.5938 -0.2374
20160SOL    HW261059   4.519   2.468   5.291 -1.2081  1.0630  0.3866
20161SOL     OW61060   9.821   0.670   7.837  0.2509  0.4915 -1.1049
20161SOL    HW161061   9.916   0.669   7.840  0.2881 -0.3088 -2.0066
20161SOL    HW261062   9.794   0.636   7.922  0.7674  0.9934 -0.7380
20162SOL     OW61063   8.457   9.759   7.192 -0.8377  0.3245  0.6611
20162SOL    HW161064   8.381   9.787   7.141  0.8581  2.6063 -0.8683
20162SOL    HW261065   8.465   9.825   7.261  0.3661  0.8570  0.0586
20163SOL     OW61066   2.520   3.106   7.790 -0.0105  0.4486 -0.7141
20163SOL    HW161067   2.600   3.054   7.793  0.1044  0.6165 -0.8441
20163SOL    HW261068   2.530   3.161   7.712 -0.1799  0.5853 -0.6403
20164SOL     OW61069   4.980   1.901   7.405  0.0925  0.0712  0.3559
20164SOL    HW161070   4.955   1.848   7.481  0.4286  1.0368  1.1775
20164SOL    HW261071   4.941   1.987   7.422  0.3818  0.3688 -0.4445
20165SOL     OW61072   4.222   4.529   0.442  0.2232  0.4081  0.2377
20165SOL    HW161073   4.279   4.526   0.519 -0.3191  1.0429  0.6690
20165SOL    HW261074   4.138   4.496   0.472  0.7193 -2.0213 -0.7691
20166SOL     OW61075   8.292   7.151   2.444  0.0390  0.2741  0.6349
20166SOL    HW161076   8.365   7.106   2.402  0.1584  1.3605 -0.3896
20166SOL    HW261077   8.222   7.086   2.447  0.1639  0.0213 -0.9231
20167SOL     OW61078   8.696   7.783   1.681  0.3306 -0.2942  0.0979
20167SOL    HW161079   8.684   7.822   1.768 -0.0760  0.2000 -0.1750
20167SOL    HW261080   8.777   7.733   1.688 -0.1934 -1.0359  1.0413
20168SOL     OW61081   0.428   7.230   6.188  0.1420 -0.1097  0.0101
20168SOL    HW161082   0.491   7.289   6.148  2.5968 -0.6546  2.7077
20168SOL    HW261083   0.390   7.281   6.260 -1.5952 -0.2156 -0.7933
20169SOL     OW61084  -0.023   8.238   4.713  0.2346 -0.3948 -0.3247
20169SOL    HW161085  -0.043   8.204   4.800  1.6441  0.6320  0.4312
20169SOL    HW261086   0.071   8.251   4.713  0.0827  0.9842 -1.5069
20170SOL     OW61087   0.786   1.183   1.877 -0.0644  0.5387 -0.7109
20170SOL    HW161088   0.793   1.257   1.818 -1.0550  1.6269  0.4723
20170SOL    HW261089   0.810   1.219   1.963  1.4134 -1.0051 -0.4304
20171SOL     OW61090   9.017   5.137   7.898 -0.1659 -0.0897 -0.5038
20171SOL    HW161091   9.050   5.142   7.808  0.8221  3.9451 -0.1160
20171SOL    HW261092   8.936   5.188   7.896 -1.3609 -1.8640  0.5243
20172SOL     OW61093   8.189   3.851   8.085  0.3240  0.0243  0.3618
20172SOL    HW161094   8.168   3.872   8.176 -1.2558  1.3181 -0.2526
20172SOL    HW261095   8.186   3.935   8.039 -1.8822 -0.9229 -1.4234
20173SOL     OW61096   0.541   9.880   6.243  0.1542 -1.0093 -1.0860
20173SOL    HW161097   0.449   9.859   6.231  0.0615 -0.6693 -0.9699
20173SOL    HW261098   0.543   9.944   6.314  0.5305 -1.4620 -0.6750
20174SOL     OW61099   1.419   3.491   5.892  0.1671 -0.3279 -0.1472
20174SOL    HW161100   1.480   3.460   5.824  0.2775 -0.0837 -0.1607
20174SOL    HW261101   1.435   3.433   5.966  1.6629  0.8031  0.4673
20175SOL     OW61102   1.558   5.075   7.657  0.1377  0.2408 -0.0570
20175SOL    HW161103   1.499   5.006   7.624 -0.6355 -0.8277  3.2181
20175SOL    HW261104   1.641   5.030   7.671 -0.2203  0.0262  1.5842
20176SOL     OW61105   9.110   5.176   2.893 -0.3517 -0.4987 -0.0078
20176SOL    HW161106   9.203   5.190   2.877 -0.3611 -1.0113 -0.5745
20176SOL    HW261107   9.070   5.262   2.879 -0.0498 -0.4239 -0.4401
20177SOL     OW61108   1.433   8.732   5.438  0.5548 -0.8696  0.0459
20177SOL    HW161109   1.502   8.696   5.494  0.4607  1.2536  1.6524
20177SOL    HW261110   1.430   8.825   5.461 -2.4574 -0.7782 -0.3806
20178SOL     OW61111   8.406   6.010   2.051  0.7142 -0.6186 -0.0375
20178SOL    HW161112   8.475   6.053   2.000  1.2383 -1.4170 -0.0068
20178SOL    HW261113   8.345   5.977   1.985 -0.2894  1.1148 -0.0371
20179SOL     OW61114   6.394   2.105   7.830  0.5491 -0.1838  0.0616
20179SOL    HW161115   6.416   2.013   7.840 -2.0729 -0.9075  0.0477
20179SOL    HW261116   6.333   2.122   7.902 -0.9272  0.8287 -1.3580
20180SOL     OW61117   6.564   4.376   3.247  0.1095  0.2599  0.2142
20180SOL    HW161118   6.503   4.450   3.244 -0.4060 -0.1351  0.6679
20180SOL    HW261119   6.523   4.309   3.192 -1.4121 -1.1199  2.8174
20181SOL     OW61120   4.258   0.301   8.228  0.5458 -0.2395  0.0236
20181SOL    HW161121   4.238   0.226   8.172 -0.2220  0.9436 -1.3462
20181SOL    HW261122   4.244   0.377   8.172  0.8782  0.9539  1.5068
20182SOL     OW61123   1.207   5.113   6.959  0.5535  0.2415  0.0894
20182SOL    HW161124   1.129   5.148   6.915 -0.8821  0.4117  2.5996
20182SOL    HW261125   1.218   5.025   6.922 -1.4845 -0.1909  0.4190
20183SOL     OW61126   4.018   8.507   9.708  0.6799 -0.0745 -0.5496
20183SOL    HW161127   4.079   8.536   9.641  1.3695 -1.5877 -0.6165
20183SOL    HW261128   4.059   8.533   9.791  0.3293  0.8603 -0.6550
20184SOL     OW61129   9.564   1.437   0.671  0.1484 -0.5140  0.4357
20184SOL    HW161130   9.617   1.451   0.593 -0.3478 -1.3855 -0.0698
20184SOL    HW261131   9.623   1.397   0.734  0.3300 -0.5957  0.2114
20185SOL     OW61132   2.953   6.728   5.941  0.2481  0.4129 -0.5779
20185SOL    HW161133   2.888   6.796   5.952  1.0610  0.9155  1.4579
20185SOL    HW261134   2.916   6.669   5.875 -2.2996  0.6261  0.5696
20186SOL     OW61135   2.590   8.415   9.038  0.1135 -0.3882 -0.3125
20186SOL    HW161136   2.609   8.339   9.094 -1.2627 -0.7645 -0.3293
20186SOL    HW261137   2.517   8.459   9.080  0.6183  0.7155 -0.5396
20187SOL     OW61138   1.426   7.295   3.599 -0.5341  0.9087 -0.3928
20187SOL    HW161139   1.405   7.202   3.610 -1.4324  0.9864 -1.2484
20187SOL    HW261140   1.521   7.300   3.612 -0.6035  0.0351  0.6225
20188SOL     OW61141   3.001   2.761   5.071  0.0072  1.2346 -0.0862
20188SOL    HW161142   3.066   2.828   5.094  1.7930 -0.3328 -0.3126
20188SOL    HW261143   2.950   2.748   5.151  1.6483  0.7258  0.9196
20189SOL     OW61144   2.068   1.497   3.396  0.5155  0.2162  0.3450
20189SOL    HW161145   2.000   1.505   3.462 -0.4900 -3.0305 -0.0778
20189SOL    HW261146   2.021   1.497   3.312  1.2025 -0.3081 -0.0635
20190SOL     OW61147   2.697   9.137   0.717 -0.5167  0.3532  0.4040
20190SOL    HW161148   2.763   9.200   0.747  2.6884 -2.6951  0.3746
20190SOL    HW261149   2.660   9.102   0.798  0.1657 -0.0792  0.5390
20191SOL     OW61150   8.442   8.231   4.705 -0.0873 -0.0109  0.2668
20191SOL    HW161151   8.417   8.259   4.793  1.1965  0.7535  0.4045
20191SOL    HW261152   8.385   8.282   4.647 -0.0961  0.3835  0.6165
20192SOL     OW61153   0.112   9.394   9.541 -0.0637  0.3756 -0.0945
20192SOL    HW161154   0.074   9.362   9.459  0.0071  1.3427 -0.5294
20192SOL    HW261155   0.182   9.454   9.512 -0.0034  0.6834  0.6722
20193SOL     OW61156   7.391   6.844   6.744  0.0504  0.4877 -0.4767
20193SOL    HW161157   7.414   6.918   6.801 -1.3227 -0.9254  2.0877
20193SOL    HW261158   7.313   6.806   6.784 -1.4823 -0.2349 -3.7772
20194SOL     OW61159   2.008   0.510   0.770 -0.1642 -0.1714  0.5051
20194SOL    HW161160   1.965   0.480   0.851 -1.5333 -1.0558 -0.4908
20194SOL    HW261161   1.937   0.514   0.706  1.1138 -0.8925 -1.0311
20195SOL     OW61162   1.669   8.897   0.572 -0.3926 -0.0119 -0.1556
20195SOL    HW161163   1.713   8.982   0.578  1.5247 -0.9221 -0.5740
20195SOL    HW261164   1.735   8.839   0.534 -1.7444 -1.6394 -0.1045
20196SOL     OW61165   6.947   1.452   6.212  0.5499 -0.5803 -0.0843
20196SOL    HW161166   6.926   1.471   6.121  0.4835 -0.0388  0.0377
20196SOL    HW261167   6.898   1.517   6.262  2.4311  0.6951  0.2116
20197SOL     OW61168   3.608   8.666   3.366  0.4111  0.2832 -0.0503
20197SOL    HW161169   3.624   8.739   3.426 -3.1640  1.4239 -0.2861
20197SOL    HW261170   3.542   8.698   3.305  0.8126 -2.2618 -2.0055
20198SOL     OW61171   2.435   0.073   8.637  0.9449 -0.0195 -0.2466
20198SOL    HW161172   2.468   0.058   8.548 -1.9172 -0.3970 -1.3458
20198SOL    HW261173   2.448   0.166   8.652  1.7348 -0.0042 -0.9394
20199SOL     OW61174   1.347   4.690   0.735  0.2318 -0.2999 -0.2132
20199SOL    HW161175   1.325   4.637   0.812 -0.9121 -1.9997 -1.6320
20199SOL    HW261176   1.295   4.770   0.746  0.9318 -0.0060  1.2843
20200SOL     OW61177   4.883   2.664   0.054  0.8977  0.8130 -0.0228
20200SOL    HW161178   4.953   2.644  -0.008 -0.3755  1.5841 -1.7702
20200SOL    HW261179   4.928   2.705   0.128  2.2529  1.8845 -1.3685
20201SOL     OW61180   8.684   9.817   1.665  0.3709  0.5472 -0.0199
20201SOL    HW161181   8.778   9.823   1.645  0.3214  1.8874  0.0671
20201SOL    HW261182   8.657   9.734   1.627  1.5576  0.2380 -0.2282
20202SOL     OW61183   1.721   8.845   5.197 -0.5522 -0.0639 -0.5919
20202SOL    HW161184   1.699   8.901   5.123 -0.1738  0.5507 -0.2455
20202SOL    HW261185   1.774   8.775   5.159  0.5394  0.8272 -0.7523
20203SOL     OW61186   4.945   0.783   4.742 -0.0161 -0.1559  0.0498
20203SOL    HW161187   4.992   0.707   4.779  0.7853 -0.0905 -0.8160
20203SOL    HW261188   4.950   0.771   4.648 -1.6584 -0.0751 -0.0771
20204SOL     OW61189   3.243   5.691   9.760 -0.2920  0.3038 -0.3613
20204SOL    HW161190   3.256   5.664   9.851  1.6615 -0.3962 -0.7891
20204SOL    HW261191   3.232   5.786   9.765 -1.4191  0.1495  0.6780
20205SOL     OW61192   9.908   0.678   4.241  0.2508  0.4491  0.6564
20205SOL    HW161193   9.974   0.666   4.173 -0.5355 -2.8792  0.2983
20205SOL    HW261194   9.826   0.688   4.194 -0.2386 -1.4174  1.0348
20206SOL     OW61195   4.189   9.505   3.661  1.0065  0.1293  0.1589
20206SOL    HW161196   4.166   9.586   3.707 -2.0978 -1.0654  0.9066
20206SOL    HW261197   4.106   9.468   3.633  2.2592 -3.0465  0.2095
20207SOL     OW61198   4.273   6.431   1.531 -0.1064 -0.4666  0.6538
20207SOL    HW161199   4.314   6.490   1.468 -1.9561 -0.9206 -1.0926
20207SOL    HW261200   4.231   6.490   1.594 -2.1430  0.2277 -1.2023
20208SOL     OW61201   1.059   5.719   7.864 -0.1286  0.1143 -0.5834
20208SOL    HW161202   0.989   5.750   7.808 -1.7294  1.5472  2.0100
20208SOL    HW261203   1.118   5.794   7.872 -0.4516  0.2714  0.4141
20209SOL     OW61204   6.460   5.669   5.037 -0.2399  0.6445 -0.0381
20209SOL    HW161205   6.391   5.602   5.038 -1.6636  2.0505  0.1087
20209SOL    HW261206   6.428   5.737   5.097  0.5112  2.0617 -1.1773
20210SOL     OW61207   3.387   1.881   3.623 -0.3847 -0.4926 -0.6762
20210SOL    HW161208   3.433   1.844   3.698 -1.1380 -1.0987 -0.5026
20210SOL    HW261209   3.300   1.904   3.657 -1.2812 -2.1658 -1.6740
20211SOL     OW61210   8.605   5.055   5.336  0.0759 -0.0188  0.2440
20211SOL    HW161211   8.527   5.017   5.297  0.1608 -1.3894  1.3479
20211SOL    HW261212   8.574   5.098   5.416  0.2183  0.9153 -0.1851
20212SOL     OW61213   1.823   4.036   1.535 -0.2349 -0.2867  0.2012
20212SOL    HW161214   1.838   4.130   1.521  1.2817 -0.3356  1.3093
20212SOL    HW261215   1.772   4.009   1.458  0.8379  1.0684 -1.0498
20213SOL     OW61216   2.030   3.772   5.969  0.1940  0.2821  0.1483
20213SOL    HW161217   2.092   3.827   6.017  1.2423 -0.1256 -0.7053
20213SOL    HW261218   1.961   3.833   5.941  0.4992  0.8496  0.6133
20214SOL     OW61219   5.169   8.707   1.382  0.2198  0.2688  0.2161
20214SOL    HW161220   5.191   8.799   1.377 -0.4029  0.4055 -0.2083
20214SOL    HW261221   5.253   8.662   1.385  0.5457  0.8127 -0.3875
20215SOL     OW61222   1.370   7.586   1.566 -0.0865 -0.2916  0.0369
20215SOL    HW161223   1.283   7.577   1.606  0.0990  0.4577  0.6189
20215SOL    HW261224   1.426   7.527   1.616  0.0722  0.3918  0.6726
20216SOL     OW61225   9.192   4.482   3.739  0.7339 -0.4980 -0.1289
20216SOL    HW161226   9.199   4.574   3.767  0.2082 -0.0694 -1.3458
20216SOL    HW261227   9.260   4.437   3.789  1.9145  0.8008 -0.5032
20217SOL     OW61228   3.454   7.408   3.477  0.5049  0.4890  0.8237
20217SOL    HW161229   3.371   7.441   3.512  0.5098 -0.2699  1.6098
20217SOL    HW261230   3.482   7.343   3.542  0.9471 -0.3663 -0.2004
20218SOL     OW61231   4.185   0.816   8.217 -0.0365 -0.8009 -0.0019
20218SOL    HW161232   4.176   0.779   8.305  0.3696 -0.6124  0.1243
20218SOL    HW261233   4.095   0.830   8.187 -0.1971 -1.7994 -0.0146
20219SOL     OW61234   3.892   3.688   6.485  0.0429  0.1088  0.5018
20219SOL    HW161235   3.929   3.741   6.414 -1.4883 -0.0582 -0.4663
20219SOL    HW261236   3.912   3.737   6.564  4.7491 -1.2722  0.4692
20220SOL     OW61237   2.029   2.100   8.838 -0.2055  0.0617 -0.6810
20220SOL    HW161238   1.952   2.101   8.895 -0.9000 -1.3616 -1.5246
20220SOL    HW261239   2.039   2.191   8.810  0.9543  1.0850  2.6677
20221SOL     OW61240   1.229   9.185   7.165 -0.2706 -0.0927  0.2500
20221SOL    HW161241   1.309   9.232   7.191 -2.1508  1.8473  3.1093
20221SOL    HW261242   1.197   9.232   7.089  0.1632  0.5038  0.4235
20222SOL     OW61243   7.589   0.701   8.713 -0.1054  0.0732  0.1920
20222SOL    HW161244   7.510   0.652   8.734  0.4502 -0.2391  1.6986
20222SOL    HW261245   7.572   0.790   8.746 -0.1692  0.2529 -0.3128
20223SOL     OW61246   1.259   6.030   4.953 -0.9700  0.2684  0.4238
20223SOL    HW161247   1.286   6.109   4.908 -3.0370  0.0513 -1.3604
20223SOL    HW261248   1.300   6.036   5.040  0.0349  2.5763 -0.1532
20224SOL     OW61249   8.219   9.703   9.863 -0.2115  0.3649 -0.3039
20224SOL    HW161250   8.205   9.785   9.816 -0.7367  0.6283  0.3001
20224SOL    HW261251   8.314   9.697   9.873 -0.2295  1.5677  0.8117
20225SOL     OW61252   3.815   9.129   4.386 -0.2326  0.6131 -0.0895
20225SOL    HW161253   3.877   9.158   4.453 -0.1282 -1.5391  0.8252
20225SOL    HW261254   3.747   9.196   4.385  0.8554  1.7680  0.6327
20226SOL     OW61255   9.086   1.411   1.574  0.0132  0.0729  0.2213
20226SOL    HW161256   9.168   1.411   1.623  0.4562 -2.4143 -0.3908
20226SOL    HW261257   9.112   1.387   1.485 -1.2597  0.3919 -0.2563
20227SOL     OW61258   8.153   6.894   2.962 -0.3175 -0.0367  0.0719
20227SOL    HW161259   8.091   6.846   2.907 -2.0841 -1.7278  3.1882
20227SOL    HW261260   8.108   6.976   2.983 -1.1605 -0.8203  1.5074
20228SOL     OW61261   9.837   1.253   7.439 -0.4099  0.2040 -0.1318
20228SOL    HW161262   9.810   1.256   7.347 -0.5721 -1.4011 -0.1648
20228SOL    HW261263   9.928   1.221   7.436  0.6371  2.8714  0.1448
20229SOL     OW61264   4.231   1.437   2.147 -0.1205 -0.9308 -0.8582
20229SOL    HW161265   4.272   1.404   2.227  0.6036 -1.0248 -1.2559
20229SOL    HW261266   4.156   1.487   2.177  0.2275 -0.8488 -0.1093
20230SOL     OW61267   1.901   7.225   9.078  0.1639 -0.3867  0.6675
20230SOL    HW161268   1.966   7.294   9.069  1.9932 -2.2272 -1.7609
20230SOL    HW261269   1.821   7.270   9.105  2.0676  2.1553  2.4900
20231SOL     OW61270   1.471   2.432   8.080 -0.3043 -0.0759  0.2006
20231SOL    HW161271   1.519   2.352   8.105 -2.6274 -1.2037  1.4394
20231SOL    HW261272   1.534   2.503   8.093  1.0133 -1.4409  1.7848
20232SOL     OW61273   8.195   6.671   0.111 -0.2435  0.0826  0.3505
20232SOL    HW161274   8.110   6.627   0.104 -1.1217  1.6834  0.5015
20232SOL    HW261275   8.249   6.630   0.044 -0.8040 -1.6365  0.8944
20233SOL     OW61276   1.366   5.390   2.425 -0.0495  0.5437 -0.5335
20233SOL    HW161277   1.356   5.444   2.347  2.5468  0.0809 -1.3126
20233SOL    HW261278   1.394   5.452   2.493 -1.8609  0.8731 -0.0398
20234SOL     OW61279   7.995   4.887   9.609  0.4501  0.3194 -0.2738
20234SOL    HW161280   7.911   4.871   9.653  0.2369 -1.9059 -1.3159
20234SOL    HW261281   8.059   4.839   9.662  0.8958  1.0545 -0.1312
20235SOL     OW61282   1.890   7.549   8.402 -0.3297 -0.0533 -0.1158
20235SOL    HW161283   1.958   7.607   8.437  0.2036  0.6299 -2.1459
20235SOL    HW261284   1.896   7.470   8.456 -0.3831  1.3431  2.0555
20236SOL     OW61285   9.715   7.019   5.954 -0.3540 -0.0416  0.3678
20236SOL    HW161286   9.719   7.085   5.884  0.3576 -0.6754 -0.2067
20236SOL    HW261287   9.803   6.983   5.958 -0.4891 -0.2865  1.3438
20237SOL     OW61288   6.627   4.504   9.056  0.0268 -0.1884  0.1304
20237SOL    HW161289   6.717   4.500   9.089 -0.3822 -2.1913  1.1707
20237SOL    HW261290   6.619   4.592   9.019  2.2703  0.1888  0.3753
20238SOL     OW61291   0.686   9.387   9.155 -0.0254 -0.1982  0.0968
20238SOL    HW161292   0.669   9.436   9.074 -0.3146  1.4427  1.1216
20238SOL    HW261293   0.606   9.397   9.207  1.0203  0.7996  1.5754
20239SOL     OW61294   3.580   2.937   4.307  0.2658 -0.1803  0.9329
20239SOL    HW161295   3.493   2.928   4.346 -0.7134 -1.5094 -1.3685
20239SOL    HW261296   3.587   2.863   4.247  2.5282  0.5721  0.1757
20240SOL     OW61297   4.791   8.961   6.258  0.1114 -0.2790  0.2662
20240SOL    HW161298   4.743   9.041   6.278 -0.2640 -0.3508 -0.3371
20240SOL    HW261299   4.727   8.904   6.216  0.5111 -0.7017  0.2193
20241SOL     OW61300   3.466   1.145   1.335  0.2481 -0.3759  0.4165
20241SOL    HW161301   3.443   1.165   1.426  1.2069 -2.3339  1.1470
20241SOL    HW261302   3.501   1.227   1.300 -1.3009  0.7652  1.3914
20242SOL     OW61303   5.099   5.071   6.256 -0.5551  0.1780 -0.4642
20242SOL    HW161304   5.158   5.061   6.331  0.7846  0.1995 -1.4837
20242SOL    HW261305   5.046   4.991   6.256 -1.1860  0.5627  0.9903
20243SOL     OW61306   0.692   8.246   4.255  0.1937 -0.1150 -0.4132
20243SOL    HW161307   0.613   8.193   4.258  0.5237 -0.6442 -0.7816
20243SOL    HW261308   0.661   8.336   4.261 -0.3544 -0.3575  0.4814
20244SOL     OW61309   4.538   7.238   2.730  0.8048  0.3840 -0.1186
20244SOL    HW161310   4.461   7.206   2.683  0.5565  2.5459 -1.3064
20244SOL    HW261311   4.553   7.172   2.798 -1.0132 -0.9979 -0.9545
20245SOL     OW61312   6.748   3.129   4.496  0.3762  0.4265 -0.2461
20245SOL    HW161313   6.784   3.048   4.460 -0.0256  0.4944 -0.8246
20245SOL    HW261314   6.677   3.152   4.435 -0.6129  0.3145  0.8288
20246SOL     OW61315   1.244   9.166   6.648 -0.5209 -0.1839 -0.2921
20246SOL    HW161316   1.280   9.252   6.628 -1.3616  0.3557  0.4292
20246SOL    HW261317   1.274   9.110   6.576  0.3788  0.6045 -0.5535
20247SOL     OW61318   9.522   0.639   5.720 -0.4357 -0.8177  0.7227
20247SOL    HW161319   9.468   0.590   5.782 -0.5790 -1.2764  0.2477
20247SOL    HW261320   9.473   0.720   5.703 -0.9294 -1.1804  0.3817
20248SOL     OW61321   3.094   7.726   2.682  0.7982  0.1162  0.2952
20248SOL    HW161322   3.030   7.783   2.638 -0.6392 -0.9277  0.9533
20248SOL    HW261323   3.133   7.782   2.749  1.0110  0.9344 -0.4887
20249SOL     OW61324   8.830   3.398   0.290 -0.2856  0.3734  0.5368
20249SOL    HW161325   8.822   3.375   0.383  1.9432 -1.1445  0.4259
20249SOL    HW261326   8.755   3.356   0.248 -0.7542  0.2313  1.4901
20250SOL     OW61327   6.949   1.085   3.113  0.5910  0.5111 -0.1142
20250SOL    HW161328   6.909   0.999   3.123  1.6608  0.0747  0.5609
20250SOL    HW261329   6.928   1.111   3.023  1.2525 -0.9863 -0.7282
20251SOL     OW61330   9.766   0.048   1.685  0.7663  0.5030 -0.0574
20251SOL    HW161331   9.787   0.064   1.777  1.8771  0.5725 -0.3111
20251SOL    HW261332   9.840  -0.002   1.651 -0.4217 -1.0595 -0.4970
20252SOL     OW61333   0.044   7.056   7.574 -0.8673  0.2538 -0.8043
20252SOL    HW161334  -0.025   7.049   7.507 -1.2032 -0.6640 -0.3817
20252SOL    HW261335   0.116   7.100   7.530 -0.8550 -0.8862 -1.9591
20253SOL     OW61336   6.404   2.474   4.991 -0.0461  0.1304  0.3355
20253SOL    HW161337   6.309   2.474   4.980  0.0679 -0.5991 -0.7818
20253SOL    HW261338   6.418   2.418   5.068 -0.4662 -0.6205 -0.1232
20254SOL     OW61339   2.149   6.544   8.994  0.0022 -0.0180  0.0866
20254SOL    HW161340   2.192   6.460   9.010 -0.4056 -0.8958 -2.8626
20254SOL    HW261341   2.219   6.608   8.993  0.4976 -0.5325  0.9440
20255SOL     OW61342   7.601   6.294   1.475 -0.8136 -0.4855  0.3403
20255SOL    HW161343   7.516   6.334   1.457  0.2821  2.4235  1.0294
20255SOL    HW261344   7.597   6.268   1.567 -0.5907  0.7805  0.7246
20256SOL     OW61345   2.006   5.272   3.450 -0.5868 -0.1143 -0.0876
20256SOL    HW161346   1.986   5.333   3.520  0.4131 -2.1424  2.0909
20256SOL    HW261347   2.097   5.291   3.426 -0.8293  0.3690 -0.6644
20257SOL     OW61348   0.681   3.944   8.793  0.1992 -0.3946  0.0075
20257SOL    HW161349   0.659   3.879   8.727 -1.2376  0.1597 -0.1066
20257SOL    HW261350   0.697   3.893   8.873  0.2274 -0.9560 -0.3533
20258SOL     OW61351   8.829   8.929   7.826 -0.4860  0.0729 -0.1662
20258SOL    HW161352   8.917   8.943   7.793 -0.3902  2.6710  0.8937
20258SOL    HW261353   8.834   8.848   7.876  1.3574  0.2872  0.0463
20259SOL     OW61354   9.818   1.730   5.437 -0.0582  0.6010 -0.4287
20259SOL    HW161355   9.859   1.656   5.482  0.3438  0.0953 -1.5883
20259SOL    HW261356   9.742   1.692   5.393 -0.2201  1.0110 -0.5080
20260SOL     OW61357   8.039   4.646   0.626 -0.1597  0.3033 -0.4566
20260SOL    HW161358   8.063   4.729   0.667 -0.8414 -0.2103  1.0660
20260SOL    HW261359   7.954   4.623   0.665  0.7183 -1.8494  0.3524
20261SOL     OW61360   3.807   2.953   3.696  0.3907  0.1117 -0.2628
20261SOL    HW161361   3.739   2.889   3.679 -4.0703  3.7204  1.7617
20261SOL    HW261362   3.839   2.932   3.784  0.2808 -0.3350 -0.3315
20262SOL     OW61363   5.720   9.160   6.880 -0.1312 -0.3321 -0.0954
20262SOL    HW161364   5.651   9.226   6.877  0.8447  0.6813 -1.2850
20262SOL    HW261365   5.801   9.210   6.890  0.5328 -1.4369  0.2773
20263SOL     OW61366   7.875   2.302   4.745 -0.5111 -0.2383 -0.0092
20263SOL    HW161367   7.933   2.347   4.807 -0.1715 -0.1705 -0.3722
20263SOL    HW261368   7.791   2.297   4.790 -0.4216  0.3302  0.2252
20264SOL     OW61369   5.397   4.313   3.934  0.5225  0.5300  0.0499
20264SOL    HW161370   5.328   4.372   3.901  1.1673  1.2318 -0.0718
20264SOL    HW261371   5.405   4.246   3.866 -0.9662 -0.3251  0.6848
20265SOL     OW61372   6.420   7.983   3.579  0.3472  0.2636  0.7892
20265SOL    HW161373   6.400   8.076   3.573  1.6239  0.4506 -2.6832
20265SOL    HW261374   6.338   7.942   3.606 -0.0295  2.3798  3.2227
20266SOL     OW61375   0.550   4.963   2.623 -0.1892  0.3534  0.2692
20266SOL    HW161376   0.473   5.017   2.605  0.8530  2.1967  1.0248
20266SOL    HW261377   0.547   4.948   2.717  0.2610  0.2847  0.2740
20267SOL     OW61378   6.784   2.626   4.968  0.4297 -0.1731  0.3212
20267SOL    HW161379   6.863   2.662   4.927 -0.2620 -0.6568 -1.4817
20267SOL    HW261380   6.762   2.549   4.916 -1.6486  0.3663  0.3145
20268SOL     OW61381   5.716   0.948   4.486 -0.4886  0.4544 -0.0589
20268SOL    HW161382   5.648   1.002   4.527 -0.2570  0.5917  0.1528
20268SOL    HW261383   5.738   0.883   4.553 -2.2116 -1.2306 -1.0304
20269SOL     OW61384   3.354   4.381   4.773  0.1394  0.3695  0.3712
20269SOL    HW161385   3.317   4.302   4.811  0.7636  0.0233  0.2704
20269SOL    HW261386   3.278   4.434   4.748 -0.2852 -0.3816  0.0494
20270SOL     OW61387   6.880   2.458   9.628  0.2377  0.2509 -0.2215
20270SOL    HW161388   6.851   2.489   9.542  1.8027  0.6768 -0.6208
20270SOL    HW261389   6.821   2.502   9.690  0.3080  1.4602 -0.9798
20271SOL     OW61390   8.242   9.040   2.604  0.8693 -0.1680 -0.0850
20271SOL    HW161391   8.246   9.136   2.605  3.0506 -0.1936 -0.5138
20271SOL    HW261392   8.161   9.020   2.558 -0.7289  1.4263  1.8289
20272SOL     OW61393   8.835   9.159   4.894  0.0949  1.3036  0.4488
20272SOL    HW161394   8.771   9.147   4.824 -0.3835 -2.8847  1.3635
20272SOL    HW261395   8.920   9.143   4.853 -0.0098  0.8853  0.3900
20273SOL     OW61396   8.407   3.817   6.743  0.1961 -0.3737 -0.5263
20273SOL    HW161397   8.453   3.808   6.827  0.5959  0.0144 -0.6965
20273SOL    HW261398   8.333   3.758   6.750  0.1976 -0.3116  0.1254
20274SOL     OW61399   2.164   0.893   0.468 -0.0805 -0.0385  0.1392
20274SOL    HW161400   2.216   0.973   0.473  1.0207 -0.7925  1.2813
20274SOL    HW261401   2.086   0.912   0.521  1.6603 -0.7264  3.1807
20275SOL     OW61402   4.624   5.640   9.047  0.6520  0.0614  0.5833
20275SOL    HW161403   4.538   5.679   9.065  1.4656  2.3136 -0.0548
20275SOL    HW261404   4.606   5.570   8.985 -0.7187  0.6233  0.3091
20276SOL     OW61405   6.511   1.437   8.719 -0.6442 -0.5879 -0.7207
20276SOL    HW161406   6.482   1.348   8.739  0.1718 -0.1345  3.0848
20276SOL    HW261407   6.435   1.492   8.739 -0.3386 -0.2089 -0.6007
20277SOL     OW61408   1.655   7.582   9.663  0.0219  0.2448 -0.4754
20277SOL    HW161409   1.642   7.519   9.734  0.9236  0.8433  0.2375
20277SOL    HW261410   1.748   7.602   9.666 -0.3322  2.0536 -0.3138
20278SOL     OW61411   2.805   8.801   9.402  0.2288 -0.0352 -0.1212
20278SOL    HW161412   2.815   8.895   9.415 -0.8991  0.1918 -0.7557
20278SOL    HW261413   2.813   8.763   9.489 -2.7357  1.0141  0.7250
20279SOL     OW61414   2.876   4.817   0.343 -0.3448 -0.0932  0.4830
20279SOL    HW161415   2.803   4.808   0.404 -0.2541  1.1044  0.7787
20279SOL    HW261416   2.890   4.911   0.334  0.1986 -0.2620 -0.7348
20280SOL     OW61417   8.859   3.356   3.177 -0.3511  0.1085 -0.3049
20280SOL    HW161418   8.777   3.359   3.128 -0.1892  0.8567 -0.5424
20280SOL    HW261419   8.864   3.266   3.210 -0.9486 -0.1240 -0.8262
20281SOL     OW61420   6.018   1.938   0.057  0.2731  0.2693 -0.6150
20281SOL    HW161421   6.023   2.023   0.101 -0.7460 -0.1856  0.4440
20281SOL    HW261422   5.928   1.934   0.024 -0.5170 -1.3354  1.4598
20282SOL     OW61423   4.492   3.434   6.860  0.0723 -0.0604  0.4995
20282SOL    HW161424   4.456   3.474   6.940  0.5365  0.7956  0.2885
20282SOL    HW261425   4.441   3.353   6.849 -0.3474  0.0705  1.3735
20283SOL     OW61426   1.909   4.280   6.872  0.2038 -1.0326 -0.0469
20283SOL    HW161427   1.916   4.210   6.807  2.0829  0.2145 -1.2925
20283SOL    HW261428   1.990   4.273   6.922  1.2099  1.1834 -1.2497
20284SOL     OW61429   7.151   3.338   0.561 -0.8506 -0.0675 -0.3403
20284SOL    HW161430   7.061   3.346   0.529 -0.6896  0.4745 -0.6701
20284SOL    HW261431   7.203   3.325   0.482 -0.3650  1.9464 -0.4225
20285SOL     OW61432   8.504   8.161   1.991  0.0932 -0.7986  0.2918
20285SOL    HW161433   8.445   8.127   2.059  1.2139 -1.9687  0.7394
20285SOL    HW261434   8.480   8.112   1.913 -0.1385 -0.6118  0.2460
20286SOL     OW61435   9.141   8.085   5.524 -0.2935 -0.1563 -0.7853
20286SOL    HW161436   9.231   8.064   5.498 -0.5207  0.3073 -1.9823
20286SOL    HW261437   9.121   8.021   5.592  1.3866  0.5335  0.4584
20287SOL     OW61438   6.429   4.982   0.746 -0.3669 -0.6858 -0.0571
20287SOL    HW161439   6.496   4.985   0.677 -1.2109 -0.7670 -0.9063
20287SOL    HW261440   6.447   5.059   0.800 -1.2800  0.9444 -1.9281
20288SOL     OW61441   8.699   2.438   8.077 -0.0233  0.5688 -0.3853
20288SOL    HW161442   8.622   2.492   8.059 -1.5886 -1.0495  1.0872
20288SOL    HW261443   8.715   2.450   8.171 -0.4734 -1.5561  0.0082
20289SOL     OW61444   7.614   7.127   4.767 -0.9047  0.0913  0.2202
20289SOL    HW161445   7.636   7.127   4.860  0.9069  0.1109 -0.1683
20289SOL    HW261446   7.644   7.213   4.736  0.3701 -0.6690 -0.7553
20290SOL     OW61447   0.812   0.329   9.118  0.2498 -0.3904 -0.6502
20290SOL    HW161448   0.807   0.309   9.211  1.1437 -0.2604 -0.5654
20290SOL    HW261449   0.767   0.256   9.075 -1.9128  0.5018 -0.0473
20291SOL     OW61450   3.133   4.490   8.443 -0.1666 -0.4948 -0.0597
20291SOL    HW161451   3.192   4.417   8.463  1.2505  0.2780 -1.1590
20291SOL    HW261452   3.162   4.561   8.501 -1.8128 -0.8802  1.3101
20292SOL     OW61453   3.514   6.939   4.351 -0.7853 -0.3126  0.3469
20292SOL    HW161454   3.456   6.979   4.286  0.2017  0.8883  0.1658
20292SOL    HW261455   3.543   6.858   4.311 -0.2175  0.3972 -0.7382
20293SOL     OW61456   8.583   2.999   0.233  0.1520 -0.3355 -0.1303
20293SOL    HW161457   8.502   2.971   0.190  0.4265 -1.7341  0.2034
20293SOL    HW261458   8.555   3.031   0.319 -0.2312  1.0075 -0.7343
20294SOL     OW61459   9.867   5.052   4.976 -0.2075  0.1307  0.6369
20294SOL    HW161460   9.856   5.143   5.001  0.2060  1.0487 -2.1750
20294SOL    HW261461   9.915   5.055   4.893  0.6856 -2.6938  0.9358
20295SOL     OW61462   9.814   6.470   6.209 -0.5515 -0.5909  0.2703
20295SOL    HW161463   9.857   6.545   6.249 -2.2287 -0.0973  1.2435
20295SOL    HW261464   9.885   6.410   6.189  0.5378 -0.1713  2.5292
20296SOL     OW61465   4.389   5.551   2.776  0.1811  0.0935  0.4323
20296SOL    HW161466   4.405   5.457   2.777  0.3508  0.1226  0.5773
20296SOL    HW261467   4.319   5.564   2.840  0.4638  0.1162  0.7441
20297SOL     OW61468   8.323   4.540   9.061  0.2978  0.4059  0.3060
20297SOL    HW161469   8.412   4.509   9.077  0.5290  1.4708  1.2600
20297SOL    HW261470   8.329   4.636   9.068 -0.7995  0.5336 -0.2415
20298SOL     OW61471   5.392   7.823   5.351  0.1600  0.9549  0.1252
20298SOL    HW161472   5.342   7.901   5.371 -0.9542  0.2418  0.1805
20298SOL    HW261473   5.382   7.767   5.428  0.4166  0.4857 -0.1766
20299SOL     OW61474   3.240   3.095   2.611 -0.0152 -0.3394  0.2431
20299SOL    HW161475   3.198   3.010   2.622 -0.0517 -0.1972  1.2546
20299SOL    HW261476   3.189   3.155   2.665  0.4596  0.1780  0.1295
20300SOL     OW61477   6.229   2.242   8.170 -0.3392  0.5207  0.1221
20300SOL    HW161478   6.260   2.152   8.179 -0.7334  0.4068  0.3416
20300SOL    HW261479   6.196   2.247   8.080  0.7443  0.7815 -0.2817
20301SOL     OW61480   8.579   5.373   4.502 -0.0043 -0.3698 -0.5736
20301SOL    HW161481   8.613   5.363   4.591  0.2166 -2.2253 -0.8292
20301SOL    HW261482   8.655   5.399   4.449 -0.1502  0.8018 -0.2456
20302SOL     OW61483   6.302   2.401   5.921  0.5178 -0.0040 -0.0570
20302SOL    HW161484   6.310   2.334   5.854 -1.3753 -0.9826  0.6102
20302SOL    HW261485   6.218   2.444   5.902 -0.1428 -0.4096  1.7289
20303SOL     OW61486   5.790   5.868   4.942  0.3106  0.3878  0.3499
20303SOL    HW161487   5.860   5.894   5.003  0.6765 -0.7615  0.4497
20303SOL    HW261488   5.740   5.802   4.991 -0.2148  0.4436 -0.1094
20304SOL     OW61489   0.948   6.630   4.993 -0.1646 -0.1581 -0.2161
20304SOL    HW161490   0.948   6.614   5.087  0.5028  0.4671 -0.1035
20304SOL    HW261491   0.911   6.718   4.983  0.4430  0.0745 -0.4746
20305SOL     OW61492   0.028   6.824   8.426 -0.0638 -0.4611  0.6461
20305SOL    HW161493   0.072   6.885   8.485 -2.5085  0.2660  1.8201
20305SOL    HW261494   0.092   6.754   8.413  2.0394  1.2799  0.9209
20306SOL     OW61495   1.045   2.294   0.718 -0.7276 -0.1903  0.6535
20306SOL    HW161496   1.132   2.255   0.718 -1.2840 -1.6202 -1.5024
20306SOL    HW261497   1.060   2.385   0.692  0.1022 -0.5915 -0.3398
20307SOL     OW61498   5.378   9.906   6.813 -0.0341  0.3181 -0.5685
20307SOL    HW161499   5.308   9.890   6.876 -0.3620  0.4985 -0.8806
20307SOL    HW261500   5.342   9.972   6.754  0.1042 -0.1589 -1.2005
20308SOL     OW61501   9.022   6.763   5.061 -0.1022 -0.4255  0.1417
20308SOL    HW161502   9.019   6.851   5.022 -2.9806 -0.4913 -0.0106
20308SOL    HW261503   9.029   6.705   4.985  1.2327 -0.3913  0.2116
20309SOL     OW61504   8.823   7.730   1.256  0.0275  0.4868  0.8246
20309SOL    HW161505   8.859   7.671   1.322 -1.3444  0.3024  1.4365
20309SOL    HW261506   8.729   7.732   1.273 -0.0934  2.0787  0.1936
20310SOL     OW61507   2.332   2.485   2.965  0.0129 -0.5242  0.0338
20310SOL    HW161508   2.390   2.557   2.989 -0.9668  0.3471 -0.1314
20310SOL    HW261509   2.367   2.409   3.012  1.5257 -0.1336 -0.4070
20311SOL     OW61510   0.693   7.561   5.597 -0.2264 -0.4086  0.0769
20311SOL    HW161511   0.650   7.599   5.521 -0.6363 -0.8368  0.0936
20311SOL    HW261512   0.653   7.476   5.608  0.5190 -0.7577  0.1849
20312SOL     OW61513   1.131   4.053   7.552 -0.7175  0.4821 -0.0187
20312SOL    HW161514   1.091   4.070   7.637  1.0218 -0.5178  1.0554
20312SOL    HW261515   1.060   4.018   7.498 -1.8808  1.2815  0.9471
20313SOL     OW61516   8.728   2.203   4.782  0.7934 -0.4709  0.1937
20313SOL    HW161517   8.801   2.241   4.733 -0.1067  0.0470 -0.7704
20313SOL    HW261518   8.739   2.236   4.871  1.3410  0.1683 -0.1026
20314SOL     OW61519   1.052   9.223   4.767  0.4769 -0.5636 -0.1004
20314SOL    HW161520   0.979   9.176   4.726  1.6121 -2.1401 -0.4007
20314SOL    HW261521   1.063   9.302   4.713 -0.5490 -0.6608 -0.4679
20315SOL     OW61522   4.409   1.580   1.977  0.3919 -0.1274 -0.3766
20315SOL    HW161523   4.382   1.537   1.896  2.0192  0.0449 -1.0577
20315SOL    HW261524   4.368   1.529   2.046  0.7764 -1.6535 -1.2320
20316SOL     OW61525   0.212   9.347   2.933 -0.5072  0.5873  0.3738
20316SOL    HW161526   0.264   9.316   3.007  1.3739  2.7169  0.0425
20316SOL    HW261527   0.276   9.367   2.865 -1.9317  1.5051 -0.7606
20317SOL     OW61528   9.095   5.872   8.756  0.5757 -0.5703  0.3448
20317SOL    HW161529   9.178   5.900   8.795 -0.4153 -0.6757  2.7306
20317SOL    HW261530   9.055   5.953   8.725  0.5539 -0.1664  1.3763
20318SOL     OW61531   2.005   1.327   1.373  0.6600 -0.8790  0.0983
20318SOL    HW161532   1.997   1.303   1.466 -3.1404 -0.7878 -0.0382
20318SOL    HW261533   2.012   1.243   1.327  2.3646 -0.9328  0.4206
20319SOL     OW61534   7.810   9.663   3.985  0.1740 -0.6588  0.1761
20319SOL    HW161535   7.715   9.679   3.980  0.3373 -0.0296 -1.6981
20319SOL    HW261536   7.849   9.744   3.951  1.3494 -1.2294  0.1440
20320SOL     OW61537   5.714   8.843   7.308 -0.4548  0.8200  0.2011
20320SOL    HW161538   5.644   8.906   7.323 -0.5911  0.7495 -0.1294
20320SOL    HW261539   5.731   8.848   7.213  1.2200  2.1635  0.5265
20321SOL     OW61540   2.671   8.057   9.350  0.0522 -0.6888  0.6464
20321SOL    HW161541   2.735   8.128   9.338  0.4957 -1.4310 -2.3462
20321SOL    HW261542   2.631   8.075   9.435  0.8186  2.5842  0.4761
20322SOL     OW61543   0.753   5.701   9.454 -0.2684  0.5547 -0.5128
20322SOL    HW161544   0.782   5.629   9.398  1.5068  0.5078  0.3716
20322SOL    HW261545   0.808   5.775   9.427 -1.0143  1.1585 -0.3937
20323SOL     OW61546   7.951   6.866   0.275 -0.1433 -0.0233  0.1371
20323SOL    HW161547   7.890   6.848   0.346  1.0367 -0.9688  0.9612
20323SOL    HW261548   7.941   6.792   0.215 -0.9329  0.6296 -0.5618
20324SOL     OW61549   0.833   4.760   1.237  0.1205  0.1968 -0.4480
20324SOL    HW161550   0.878   4.819   1.297  1.3451  0.0810 -1.2170
20324SOL    HW261551   0.888   4.682   1.233 -1.4749 -1.0530  0.5605
20325SOL     OW61552   0.656   1.747   4.614 -0.2313  0.3080 -0.2177
20325SOL    HW161553   0.610   1.830   4.600 -0.4512  0.2864  0.3193
20325SOL    HW261554   0.665   1.709   4.527 -1.0704  0.4061 -0.3561
20326SOL     OW61555   8.852   9.002   2.469 -0.1412 -0.3051 -0.2725
20326SOL    HW161556   8.779   8.990   2.530 -0.0386  1.9640  0.3712
20326SOL    HW261557   8.908   9.066   2.512  0.7343  0.1746 -2.0769
20327SOL     OW61558   9.052   1.752   0.821 -0.6221 -0.4636  0.3398
20327SOL    HW161559   9.026   1.777   0.732 -1.8967  0.5379  0.9576
20327SOL    HW261560   8.970   1.753   0.871  0.1960 -0.1315  1.7199
20328SOL     OW61561   9.905   6.157   5.564 -0.7845 -0.3465  0.2803
20328SOL    HW161562   9.881   6.091   5.630 -3.5443 -0.6733 -0.9101
20328SOL    HW261563   9.884   6.115   5.480  0.3737  0.9404 -0.6922
20329SOL     OW61564   6.781   5.609   4.681  0.3721  0.6090 -0.0664
20329SOL    HW161565   6.702   5.558   4.666  0.2215  1.0495 -0.8760
20329SOL    HW261566   6.750   5.699   4.691  0.8448  1.0249 -1.8981
20330SOL     OW61567   5.648   6.024   0.223  0.5939  0.2464 -0.0537
20330SOL    HW161568   5.626   5.976   0.303  0.3294 -2.4267 -1.6116
20330SOL    HW261569   5.743   6.016   0.215  0.6270  0.5635  0.0321
20331SOL     OW61570   7.418   7.676   7.032  0.3486  0.1465  0.7407
20331SOL    HW161571   7.511   7.657   7.042  0.4152 -0.4272 -0.7085
20331SOL    HW261572   7.413   7.771   7.020  0.7049  0.2264  1.2295
20332SOL     OW61573   0.309   3.242   2.135 -0.0956  0.3817 -0.3257
20332SOL    HW161574   0.251   3.259   2.061 -1.0629  0.4160  0.4121
20332SOL    HW261575   0.310   3.325   2.184  0.5650  0.3725 -0.3170
20333SOL     OW61576   7.494   2.849   2.325 -0.0411  0.0990 -0.5687
20333SOL    HW161577   7.586   2.866   2.307  0.5961 -0.9851  1.3580
20333SOL    HW261578   7.494   2.802   2.408 -2.3835  0.6092 -0.1988
20334SOL     OW61579   6.365   1.541   7.290 -0.1300 -0.2270 -0.2542
20334SOL    HW161580   6.440   1.579   7.335 -0.7945 -0.7570  1.3966
20334SOL    HW261581   6.396   1.455   7.259  0.6362  0.5668 -1.7889
20335SOL     OW61582   8.897   5.084   5.371 -0.0033  0.1160  0.2224
20335SOL    HW161583   8.820   5.083   5.314  0.2964  1.7795 -0.2857
20335SOL    HW261584   8.963   5.035   5.322 -0.1509  0.4005 -0.2752
20336SOL     OW61585   4.106   7.717   7.374 -0.1313  0.1219  0.3325
20336SOL    HW161586   4.037   7.776   7.342  0.7306  0.7117 -0.4819
20336SOL    HW261587   4.182   7.774   7.386  1.2701 -1.0640 -2.1838
20337SOL     OW61588   1.941   0.341   4.780 -0.1876 -0.0418  0.5111
20337SOL    HW161589   1.946   0.318   4.687  0.2946  2.9008 -0.2773
20337SOL    HW261590   2.008   0.287   4.822  2.0201  1.0364 -1.4342
20338SOL     OW61591   8.995   0.285   2.416 -0.4420  0.1471  0.2017
20338SOL    HW161592   9.086   0.314   2.407 -0.3953 -0.1262 -0.2183
20338SOL    HW261593   8.956   0.299   2.330 -1.2147  1.6365  0.7727
20339SOL     OW61594   0.677   8.969   2.166  0.4847 -0.4315  0.4889
20339SOL    HW161595   0.614   8.928   2.106  1.9987 -1.4161 -0.4913
20339SOL    HW261596   0.640   8.954   2.253 -1.6951  0.8969 -0.1233
20340SOL     OW61597   5.706   8.989   9.390  0.0507 -0.0787  0.3717
20340SOL    HW161598   5.711   9.008   9.296 -0.7041 -0.4747  0.2404
20340SOL    HW261599   5.734   9.070   9.433  2.2035 -0.4719 -0.1916
20341SOL     OW61600   2.028   5.277   4.537  0.2961 -0.3828 -0.1574
20341SOL    HW161601   1.985   5.362   4.553 -0.5848 -0.8424 -0.0021
20341SOL    HW261602   1.967   5.230   4.480  1.0144 -0.7288 -0.6570
20342SOL     OW61603   2.423   1.302   6.340  0.1903 -0.2613  0.1770
20342SOL    HW161604   2.468   1.284   6.423 -0.4271  1.0120  0.7981
20342SOL    HW261605   2.407   1.396   6.341 -1.1225 -0.4620 -0.7388
20343SOL     OW61606   0.211   0.117   2.708 -0.0731  0.0185  0.3610
20343SOL    HW161607   0.300   0.087   2.727  0.5110  1.3418 -0.1429
20343SOL    HW261608   0.167   0.042   2.669  0.5130 -0.9473  1.4854
20344SOL     OW61609   4.789   8.985   5.529 -0.1462  0.2916 -0.1310
20344SOL    HW161610   4.859   9.039   5.494 -1.0633  1.2334 -0.5505
20344SOL    HW261611   4.771   9.021   5.616 -0.8184  0.7456 -0.4463
20345SOL     OW61612   5.137   5.141   5.347  0.2284 -0.4324  0.0432
20345SOL    HW161613   5.206   5.085   5.385 -1.3128 -1.1745  1.9566
20345SOL    HW261614   5.142   5.222   5.397  1.0322  0.3268 -1.2373
20346SOL     OW61615   7.919   9.129   2.596  0.7346 -0.3948  0.3459
20346SOL    HW161616   7.878   9.210   2.564  1.8403  0.4309  0.9698
20346SOL    HW261617   7.927   9.075   2.518 -1.7622 -0.7138  0.2367
20347SOL     OW61618   4.386   6.249   8.849  0.2654  0.0489 -0.5190
20347SOL    HW161619   4.454   6.265   8.784  2.9520 -0.5958  1.9311
20347SOL    HW261620   4.355   6.336   8.873  1.2052  0.4444 -0.7120
20348SOL     OW61621   8.297   7.314   0.727 -0.1644  0.6874  0.3328
20348SOL    HW161622   8.355   7.360   0.667 -0.2931  0.4452  0.0162
20348SOL    HW261623   8.247   7.254   0.671  0.8012 -0.6658  0.8584
20349SOL     OW61624   3.831   6.650   5.193 -0.6905 -0.2103  0.3727
20349SOL    HW161625   3.854   6.742   5.210  0.8387 -0.5945  0.5461
20349SOL    HW261626   3.779   6.625   5.269  1.3672 -0.2835  1.8702
20350SOL     OW61627   7.463   9.102   2.279  0.2407  0.1032  0.7310
20350SOL    HW161628   7.517   9.147   2.344 -0.4628 -0.3856  1.6825
20350SOL    HW261629   7.498   9.013   2.275  2.1412  0.8655 -1.7343
20351SOL     OW61630   1.723   6.119   3.284 -0.3362 -0.3031  0.2784
20351SOL    HW161631   1.740   6.058   3.212 -0.5176 -0.3750  0.2968
20351SOL    HW261632   1.719   6.065   3.362  0.6071 -0.1359  0.4492
20352SOL     OW61633   4.871   3.410   7.535  0.3290 -0.2396  0.4759
20352SOL    HW161634   4.881   3.498   7.572  0.3000 -0.7969  1.8739
20352SOL    HW261635   4.931   3.407   7.461  1.0232  0.6536  0.9879
20353SOL     OW61636   3.176   0.917   7.757  0.4300 -0.2408 -0.1309
20353SOL    HW161637   3.266   0.924   7.724  0.1437  1.9233 -0.6500
20353SOL    HW261638   3.134   0.998   7.728 -0.9800 -0.0186  2.2782
20354SOL     OW61639   5.088   3.482   2.146 -0.0405 -0.4272 -0.1357
20354SOL    HW161640   5.041   3.535   2.082 -0.8355 -1.0242 -0.0605
20354SOL    HW261641   5.169   3.531   2.163 -1.0394  1.0994  0.4283
20355SOL     OW61642   8.781   6.243   8.480  0.0792 -0.0987  0.1303
20355SOL    HW161643   8.763   6.153   8.452 -0.7544  0.4251 -1.1333
20355SOL    HW261644   8.796   6.291   8.398 -3.1580  1.6487  0.3767
20356SOL     OW61645   5.095   7.235   5.607  0.3188 -0.4168 -0.6635
20356SOL    HW161646   5.184   7.258   5.580  0.5696  0.1137  0.5163
20356SOL    HW261647   5.094   7.140   5.606  2.1795 -0.6489  2.9361
20357SOL     OW61648   6.821   4.724   5.337 -0.8200  0.2255 -0.0982
20357SOL    HW161649   6.730   4.696   5.349 -0.4199 -0.3614  2.2040
20357SOL    HW261650   6.815   4.812   5.299 -2.3612  0.2000  0.0335
20358SOL     OW61651   5.237   6.315   7.679 -0.2531  0.4003 -0.4363
20358SOL    HW161652   5.281   6.267   7.749  0.4117 -0.6327 -1.5199
20358SOL    HW261653   5.148   6.281   7.679 -0.3718  0.7111  0.1830
20359SOL     OW61654   9.877   9.198   2.744  0.4283 -0.0208  0.2756
20359SOL    HW161655   9.925   9.174   2.823 -0.2728 -0.0372  0.7101
20359SOL    HW261656   9.815   9.126   2.731  1.5103 -0.7431 -1.1365
20360SOL     OW61657   5.840   7.623   5.172  0.2772  0.6976 -0.2550
20360SOL    HW161658   5.851   7.543   5.223 -1.4214  0.1375 -0.6969
20360SOL    HW261659   5.798   7.684   5.232  0.2532  0.7629 -0.3371
20361SOL     OW61660   3.613   9.486   6.850 -0.0583  0.0420 -0.0088
20361SOL    HW161661   3.647   9.575   6.855 -0.6001  0.2943 -0.5711
20361SOL    HW261662   3.539   9.486   6.911  0.3417 -0.2166  0.4796
20362SOL     OW61663   4.975   9.647   1.086 -0.4485  0.0082 -0.5259
20362SOL    HW161664   4.884   9.627   1.067 -1.3545  2.6637  0.4649
20362SOL    HW261665   4.988   9.618   1.177 -1.1929  1.9396  0.2605
20363SOL     OW61666   2.558   7.351   8.143  0.1032  0.8277 -0.1013
20363SOL    HW161667   2.601   7.309   8.069 -0.2350  1.0402 -0.4177
20363SOL    HW261668   2.503   7.283   8.181  0.6464  0.5750  0.2599
20364SOL     OW61669   3.952   9.261   4.585 -0.1679 -0.5237 -0.5315
20364SOL    HW161670   3.934   9.291   4.674 -1.3045 -0.4859 -0.7532
20364SOL    HW261671   3.965   9.342   4.535  0.8599 -0.5574 -0.3334
20365SOL     OW61672   4.369   9.981   4.070  0.0925 -0.1528 -0.1104
20365SOL    HW161673   4.382   9.904   4.015  1.5806 -1.0045  1.3430
20365SOL    HW261674   4.283   9.969   4.109  0.1108 -0.8524 -0.2792
20366SOL     OW61675   1.134   9.991   1.860  0.3935  0.0619 -0.0807
20366SOL    HW161676   1.210   9.936   1.841  0.4584  0.7433 -1.9287
20366SOL    HW261677   1.059   9.932   1.856  0.5334 -0.0438 -1.3210
20367SOL     OW61678   3.901   0.670   4.309  0.0329  0.0404 -0.3184
20367SOL    HW161679   3.986   0.682   4.353  0.5145  1.3098 -1.5086
20367SOL    HW261680   3.907   0.584   4.268  0.4208 -0.2328  0.2993
20368SOL     OW61681   2.057   8.193   5.043 -0.3891 -0.0070 -0.3370
20368SOL    HW161682   2.083   8.229   4.958 -1.8745  2.5050  0.1715
20368SOL    HW261683   2.058   8.099   5.031  0.5890  0.2577 -2.7806
20369SOL     OW61684   6.166   9.542   9.850  0.0570 -0.2653  0.1326
20369SOL    HW161685   6.215   9.460   9.836  0.0009 -0.4001  0.7119
20369SOL    HW261686   6.093   9.517   9.908  0.6657  0.4047  1.2214
20370SOL     OW61687   3.653   0.808   1.313 -0.0264 -0.0134 -0.2595
20370SOL    HW161688   3.694   0.875   1.368 -0.9181 -0.8913  1.5961
20370SOL    HW261689   3.712   0.797   1.239  2.1026  0.0957  1.3423
20371SOL     OW61690   9.971   5.532   5.694  0.1805  0.8030 -0.2301
20371SOL    HW161691   9.936   5.575   5.772 -0.5656 -1.0677  0.5312
20371SOL    HW261692   9.963   5.439   5.713 -0.0512  0.2875 -2.5582
20372SOL     OW61693   1.400   5.817   1.836 -0.0959 -0.4881  0.0584
20372SOL    HW161694   1.323   5.791   1.786  1.1695 -1.6504 -1.3682
20372SOL    HW261695   1.417   5.908   1.811 -1.3859  0.0251  0.9446
20373SOL     OW61696   0.281   5.933   3.312  0.1526 -0.2211 -0.0583
20373SOL    HW161697   0.308   6.011   3.264  2.1781  0.6617  2.3307
20373SOL    HW261698   0.235   5.967   3.389  0.6014 -1.4067  0.7514
20374SOL     OW61699   2.787   7.913   7.116 -0.5610 -0.3001 -0.3214
20374SOL    HW161700   2.841   7.987   7.090  0.7680 -1.1966 -0.1833
20374SOL    HW261701   2.771   7.926   7.210  0.9209 -0.9261  0.0421
20375SOL     OW61702   0.233   6.922   7.856 -0.0798 -0.0350 -0.3384
20375SOL    HW161703   0.247   6.839   7.900  0.3872  0.2732  0.0930
20375SOL    HW261704   0.198   6.981   7.923 -0.7427  0.0261 -0.7207
20376SOL     OW61705   1.741   8.885   4.361  0.1991  0.0675 -0.7997
20376SOL    HW161706   1.672   8.930   4.409  2.4670  0.5133  2.3832
20376SOL    HW261707   1.810   8.951   4.350  1.3718 -1.1472 -1.0314
20377SOL     OW61708   4.075   0.820   7.139  0.5156 -0.1821  0.3854
20377SOL    HW161709   4.123   0.753   7.189  1.3524  1.1104  1.3906
20377SOL    HW261710   3.989   0.823   7.180 -0.0436 -1.6321 -0.6097
20378SOL     OW61711   4.549   3.652   1.891  0.4151 -0.2033 -0.5234
20378SOL    HW161712   4.549   3.649   1.987  0.0953  2.5811 -0.3532
20378SOL    HW261713   4.639   3.674   1.868  0.2073  0.4492 -0.7478
20379SOL     OW61714   1.137   6.898   9.705  0.0097 -0.4847  0.5883
20379SOL    HW161715   1.088   6.897   9.623  0.3968 -1.4754  0.3527
20379SOL    HW261716   1.218   6.944   9.684  0.0487 -0.6168  0.4445
20380SOL     OW61717   6.175   2.273   4.827  0.2418 -0.0363 -0.1882
20380SOL    HW161718   6.191   2.197   4.884  0.5653 -0.8307 -1.3000
20380SOL    HW261719   6.133   2.337   4.884 -0.3156 -1.1587  0.7148
20381SOL     OW61720   8.161   4.993   8.476 -0.1380  0.1488  0.2844
20381SOL    HW161721   8.167   5.082   8.510  1.7362  0.6061 -1.0592
20381SOL    HW261722   8.097   4.998   8.405  1.8834  1.1438 -1.5953
20382SOL     OW61723   6.305   9.965   7.315  0.5372  0.2364  0.3366
20382SOL    HW161724   6.385   9.944   7.268 -0.3837 -0.9914 -0.7399
20382SOL    HW261725   6.270   9.880   7.343 -0.5541  0.7272  0.5097
20383SOL     OW61726   5.447   0.143   3.233  0.0016 -0.8117  0.1688
20383SOL    HW161727   5.503   0.065   3.234 -0.5153 -1.2094  1.7662
20383SOL    HW261728   5.426   0.158   3.325 -1.6239 -0.0316 -0.2897
20384SOL     OW61729   2.040   3.278   4.093  0.5695 -0.8381  0.4235
20384SOL    HW161730   2.081   3.204   4.136 -1.1356 -1.1332  1.6286
20384SOL    HW261731   1.951   3.280   4.127 -0.1533  0.3453 -1.3645
20385SOL     OW61732   9.349   6.354   7.159 -0.0509 -0.4145  0.1385
20385SOL    HW161733   9.371   6.439   7.197 -1.0767 -0.4563  0.8508
20385SOL    HW261734   9.410   6.292   7.200  1.5895  0.1337 -1.3424
20386SOL     OW61735   4.246   1.684   7.954  0.1120 -0.5844  0.0877
20386SOL    HW161736   4.170   1.626   7.959  1.0077 -1.6962  1.5785
20386SOL    HW261737   4.299   1.662   8.031  1.3977  0.9478 -0.2979
20387SOL     OW61738   7.583   2.064   0.005  0.0966 -0.3192  0.3325
20387SOL    HW161739   7.644   1.995  -0.021  0.0317 -0.7468  1.2684
20387SOL    HW261740   7.552   2.037   0.092  0.5339  1.1785  0.9890
20388SOL     OW61741   0.044   2.381   4.942  0.5386 -0.1060  0.0084
20388SOL    HW161742  -0.016   2.355   5.013  1.3338  0.3021  0.8438
20388SOL    HW261743   0.070   2.299   4.902  0.1529 -0.3493  0.2458
20389SOL     OW61744   3.175   3.908   2.888 -0.2495 -0.7792 -0.0311
20389SOL    HW161745   3.224   3.847   2.942 -0.3420 -1.0338 -0.2315
20389SOL    HW261746   3.099   3.931   2.941 -0.5732 -1.3759 -0.2227
20390SOL     OW61747   7.213   8.793   2.680  0.4103 -0.0331 -0.1868
20390SOL    HW161748   7.206   8.839   2.596  0.2087  2.5843  1.1651
20390SOL    HW261749   7.157   8.716   2.669 -0.9144  1.0894 -1.9289
20391SOL     OW61750   6.505   7.522   5.928 -0.5608  0.3073 -0.0105
20391SOL    HW161751   6.521   7.430   5.948 -1.2315 -0.0030 -0.8307
20391SOL    HW261752   6.582   7.549   5.878 -0.8826 -0.1371 -0.7614
20392SOL     OW61753   8.081   3.136   5.882  0.2358 -0.1299  0.1961
20392SOL    HW161754   8.015   3.088   5.832  0.6716 -1.0613  0.4819
20392SOL    HW261755   8.146   3.164   5.817 -0.7469  1.3671 -0.1836
20393SOL     OW61756   5.421   2.812   7.980  0.2741  0.3857 -0.5254
20393SOL    HW161757   5.473   2.777   8.053  1.4525  1.4795 -0.8172
20393SOL    HW261758   5.409   2.737   7.922  0.8522 -0.0747 -0.0723
20394SOL     OW61759   0.933   7.472   2.383  0.0407  0.5475  0.2126
20394SOL    HW161760   0.977   7.396   2.346 -1.0788  0.1288 -0.3104
20394SOL    HW261761   0.997   7.543   2.377  0.5358  0.0295 -0.7875
20395SOL     OW61762   9.093   4.850   1.173  0.0066 -0.0092  1.0346
20395SOL    HW161763   9.111   4.934   1.131 -0.7036  0.0612  0.8601
20395SOL    HW261764   9.057   4.795   1.103  1.0945 -0.6903  0.9815
20396SOL     OW61765   4.698   4.942   8.193 -0.3751  0.1291  0.2299
20396SOL    HW161766   4.614   4.914   8.229 -0.0112  1.0216  1.8462
20396SOL    HW261767   4.725   4.869   8.137 -2.1054 -0.2695 -0.1634
20397SOL     OW61768   7.738   1.342   2.417  0.3415  0.7169 -0.1308
20397SOL    HW161769   7.655   1.370   2.378 -0.7610 -1.9004  0.1292
20397SOL    HW261770   7.804   1.363   2.350 -1.2591 -2.0204 -2.8055
20398SOL     OW61771   6.974   3.637   8.120 -0.5617 -0.2464 -0.0220
20398SOL    HW161772   7.046   3.701   8.123 -0.5751 -0.2230 -0.2187
20398SOL    HW261773   6.895   3.691   8.110 -0.6562 -0.2394  0.6783
20399SOL     OW61774   3.230   1.359   6.768  0.5113  0.1565 -0.0191
20399SOL    HW161775   3.304   1.329   6.820 -1.8830 -1.0811  2.9621
20399SOL    HW261776   3.191   1.279   6.733  0.4789  0.7836 -1.5059
20400SOL     OW61777   5.864   4.807   2.054  0.1080 -0.0928  0.2801
20400SOL    HW161778   5.905   4.828   2.138  0.6905 -0.3013  0.0497
20400SOL    HW261779   5.924   4.745   2.013  0.1916  0.5640 -0.6108
20401SOL     OW61780   6.325   6.954   8.476 -0.4526 -0.4191  0.7588
20401SOL    HW161781   6.409   6.997   8.494  0.2938 -1.7825  0.6679
20401SOL    HW261782   6.267   7.025   8.450  0.4932  0.6426  1.4536
20402SOL     OW61783   7.107   1.724   4.279 -0.2246  0.4792 -0.7021
20402SOL    HW161784   7.194   1.760   4.265 -0.2056  1.1532  0.8775
20402SOL    HW261785   7.060   1.792   4.327 -0.9584 -0.6412  0.2564
20403SOL     OW61786   3.780   9.086   4.088 -0.2371 -0.0117 -0.2918
20403SOL    HW161787   3.807   9.177   4.077 -0.3171 -0.1314 -1.6080
20403SOL    HW261788   3.784   9.071   4.182  1.5614  0.7931 -0.2022
20404SOL     OW61789   3.362   3.548   3.013  0.1561  0.1216 -0.2508
20404SOL    HW161790   3.326   3.462   3.031  0.0962  0.2928  0.4767
20404SOL    HW261791   3.450   3.546   3.050  0.1028  0.4172 -0.1010
20405SOL     OW61792   9.115   0.714   2.090 -0.5425  0.7056  0.2405
20405SOL    HW161793   9.151   0.801   2.106  0.7159 -0.1936  2.7674
20405SOL    HW261794   9.180   0.670   2.035  0.2939  0.4012  1.4593
20406SOL     OW61795   7.472   6.001   1.047 -0.4803  0.3060 -0.3396
20406SOL    HW161796   7.459   6.058   1.123  0.9459  0.6596 -0.3327
20406SOL    HW261797   7.525   6.052   0.987  2.3411 -1.5099  0.3912
20407SOL     OW61798   4.359   3.930   2.989 -0.3858 -0.3847  0.3457
20407SOL    HW161799   4.450   3.954   2.971 -0.9843 -0.0097 -2.6790
20407SOL    HW261800   4.363   3.884   3.073  2.7646 -1.3377 -0.1940
20408SOL     OW61801   7.769   2.535   0.788  0.4466 -1.1614  0.1922
20408SOL    HW161802   7.679   2.554   0.761  0.8211  0.6923  0.0958
20408SOL    HW261803   7.775   2.569   0.878  1.7099  1.0852 -0.6784
20409SOL     OW61804   5.679   8.553   7.847 -0.1307  0.1167 -0.6070
20409SOL    HW161805   5.597   8.504   7.843 -1.3901  1.7873  2.0454
20409SOL    HW261806   5.687   8.580   7.938  2.6368  1.3047 -1.0802
20410SOL     OW61807   1.859   9.252   5.836  0.0311  0.8158 -0.0340
20410SOL    HW161808   1.853   9.163   5.801  0.1295  0.8499 -0.1383
20410SOL    HW261809   1.899   9.303   5.765 -1.2732  1.2295 -0.5141
20411SOL     OW61810   6.501   9.929   8.318 -0.0670  0.6091 -0.2523
20411SOL    HW161811   6.489   9.860   8.253  0.4125 -0.7572  1.0753
20411SOL    HW261812   6.586   9.967   8.295 -0.3700  0.8488 -1.0371
20412SOL     OW61813   0.837   2.601   9.733  0.1392  0.0962 -0.4782
20412SOL    HW161814   0.777   2.659   9.780  0.7256  0.3142  0.0133
20412SOL    HW261815   0.867   2.653   9.659 -0.3481 -0.0477 -0.7824
20413SOL     OW61816   4.848   4.664   4.561 -0.0048 -0.0092  0.1629
20413SOL    HW161817   4.781   4.697   4.502  0.6829  2.1102  0.4579
20413SOL    HW261818   4.832   4.710   4.644  1.0181 -0.4572  0.6317
20414SOL     OW61819   1.464   7.280   6.072  0.3335  0.3562  0.6874
20414SOL    HW161820   1.528   7.258   6.005  0.6118  1.4556  0.5683
20414SOL    HW261821   1.476   7.374   6.086  0.2022  0.1822  2.1852
20415SOL     OW61822   9.882   0.808   4.674  0.5336  0.4376  0.3579
20415SOL    HW161823   9.877   0.894   4.631 -0.4136  0.4549  0.5012
20415SOL    HW261824   9.840   0.821   4.759 -0.6959 -0.4655 -0.0967
20416SOL     OW61825   6.623   5.593   3.515  0.4339  0.1367  0.7396
20416SOL    HW161826   6.581   5.508   3.527  1.3669 -0.7183 -1.4308
20416SOL    HW261827   6.552   5.651   3.490 -0.2886  0.1551  2.6905
20417SOL     OW61828   3.054   7.021   6.963 -0.0325 -0.2809 -0.3163
20417SOL    HW161829   3.142   6.990   6.984 -0.5858 -0.6643  1.6065
20417SOL    HW261830   3.031   7.080   7.035 -2.1110 -1.7724  0.3552
20418SOL     OW61831   4.110   3.483   3.854 -0.2973 -0.3657 -0.2363
20418SOL    HW161832   4.061   3.538   3.914 -0.7139 -0.3633 -0.5725
20418SOL    HW261833   4.124   3.401   3.902  1.3633  0.4309  0.7199
20419SOL     OW61834   8.475   6.671   2.153 -0.1780  0.5791  0.3989
20419SOL    HW161835   8.381   6.691   2.147 -0.2591 -0.0846 -0.9127
20419SOL    HW261836   8.502   6.654   2.063  0.9805 -0.2603  0.8721
20420SOL     OW61837   1.265   4.368   7.380  0.4148  0.1672 -0.7201
20420SOL    HW161838   1.178   4.331   7.394  0.6761 -0.6369 -1.1451
20420SOL    HW261839   1.252   4.440   7.319 -0.1575  1.0559  0.4167
20421SOL     OW61840   8.028   4.163   2.630 -0.5544 -0.2708  0.9101
20421SOL    HW161841   7.980   4.106   2.570  0.1219 -1.8298  1.7876
20421SOL    HW261842   8.016   4.251   2.594 -0.3955 -1.1080 -1.3531
20422SOL     OW61843   6.855   6.430   9.334 -0.1874 -0.2761 -0.4387
20422SOL    HW161844   6.946   6.459   9.337 -0.5230  0.7266  0.6068
20422SOL    HW261845   6.804   6.510   9.337 -1.1880 -0.7981  4.2741
20423SOL     OW61846   4.652   9.736   2.653  0.3249  0.5805  0.0181
20423SOL    HW161847   4.614   9.801   2.712 -0.4992  0.4639 -0.3664
20423SOL    HW261848   4.728   9.702   2.701  1.2763  2.3836 -0.1047
20424SOL     OW61849   1.151   5.088   7.422  0.0873  0.5083 -0.1194
20424SOL    HW161850   1.165   5.071   7.329 -0.2706  0.0990 -0.0998
20424SOL    HW261851   1.064   5.053   7.440  0.3257  0.1991  0.4624
20425SOL     OW61852   1.428   6.925   5.890  0.2629  0.2744  0.1286
20425SOL    HW161853   1.349   6.884   5.857  1.2497 -3.7429  2.0936
20425SOL    HW261854   1.398   6.983   5.960 -1.0430 -0.1187 -0.0806
20426SOL     OW61855   3.814   8.308   3.688  0.5638 -0.6273 -0.2352
20426SOL    HW161856   3.815   8.346   3.775  1.3968 -0.1823 -0.4327
20426SOL    HW261857   3.873   8.363   3.637 -1.2501  0.2143 -1.5404
20427SOL     OW61858   3.531   1.589   8.005  0.0259 -0.1953 -0.0601
20427SOL    HW161859   3.571   1.663   7.959 -2.4690  0.2664 -1.6671
20427SOL    HW261860   3.554   1.512   7.953  2.0503 -0.5367  1.2370
20428SOL     OW61861   6.478   7.933   1.431  0.1825 -0.0811  0.5538
20428SOL    HW161862   6.459   7.848   1.391  1.9259 -0.6088  0.7525
20428SOL    HW261863   6.395   7.980   1.430 -0.4561 -1.1636 -1.0801
20429SOL     OW61864   3.016   6.001   6.389 -0.4089  0.4055 -0.5842
20429SOL    HW161865   3.043   5.938   6.455 -3.0146 -1.1857 -0.8910
20429SOL    HW261866   3.056   5.969   6.308 -0.7248 -0.1484 -0.5252
20430SOL     OW61867   4.237   1.106   3.349  0.3243 -0.6495 -1.0874
20430SOL    HW161868   4.204   1.065   3.268 -0.1950 -0.0669 -1.1759
20430SOL    HW261869   4.169   1.089   3.413 -0.3331  0.8617 -1.3565
20431SOL     OW61870   6.527   5.380   3.685 -0.5198  0.2920  0.3601
20431SOL    HW161871   6.600   5.400   3.744 -0.9321  1.3115  0.5506
20431SOL    HW261872   6.533   5.286   3.670  0.3077  0.2175  1.0744
20432SOL     OW61873   2.097   4.360   8.127  0.1586 -0.5684 -0.0035
20432SOL    HW161874   2.024   4.324   8.178 -0.6324 -0.0021 -0.6986
20432SOL    HW261875   2.075   4.340   8.036  0.9927 -0.5797 -0.2097
20433SOL     OW61876   3.723   2.719   9.746  0.0534  0.6363 -0.0335
20433SOL    HW161877   3.638   2.713   9.791 -0.3279 -0.9824 -0.9166
20433SOL    HW261878   3.783   2.751   9.813 -1.1852  1.5987  0.6751
20434SOL     OW61879   9.595   0.666   7.626 -0.1404 -0.2059  0.1461
20434SOL    HW161880   9.669   0.709   7.669  0.7624 -2.1719  0.6354
20434SOL    HW261881   9.539   0.638   7.699 -0.4060 -0.4170 -0.1379
20435SOL     OW61882   4.549   0.589   9.406 -0.6630 -0.3649 -0.0144
20435SOL    HW161883   4.559   0.497   9.431 -1.0166 -0.3066  0.3463
20435SOL    HW261884   4.459   0.612   9.431 -1.2070 -0.4354 -1.7621
20436SOL     OW61885   1.230   7.416   5.574  0.2597 -0.2161  0.8017
20436SOL    HW161886   1.306   7.473   5.589  0.7591 -0.7977  0.5400
20436SOL    HW261887   1.235   7.352   5.645  0.0504 -0.2964  0.7431
20437SOL     OW61888   9.887   8.302   7.367 -0.0249 -0.5653  0.4683
20437SOL    HW161889   9.804   8.345   7.350 -0.4908 -1.0453  1.4693
20437SOL    HW261890   9.911   8.262   7.283 -1.4017 -1.4313  0.4485
20438SOL     OW61891   9.683   4.490   2.906 -0.2176 -0.6456 -0.4496
20438SOL    HW161892   9.657   4.432   2.835 -1.6108  1.2202 -1.5309
20438SOL    HW261893   9.662   4.440   2.986 -1.0972 -1.7331 -1.3259
20439SOL     OW61894   4.839   7.215   7.811 -0.2047 -0.0436 -0.1262
20439SOL    HW161895   4.758   7.236   7.765 -0.0882  0.5848 -0.0536
20439SOL    HW261896   4.901   7.191   7.742 -0.5736 -0.9722 -0.1521
20440SOL     OW61897   0.338   4.184   4.617 -0.3403 -0.3451 -0.0070
20440SOL    HW161898   0.428   4.215   4.624 -0.6637  0.7183 -0.2183
20440SOL    HW261899   0.285   4.262   4.637 -1.2022 -0.7542 -0.6319
20441SOL     OW61900   1.404   0.084   7.156 -0.5421 -0.6778  0.1291
20441SOL    HW161901   1.428   0.123   7.240  1.9395 -0.3879 -0.6315
20441SOL    HW261902   1.447   0.140   7.090  0.4653 -2.8034 -1.1401
20442SOL     OW61903   3.788   9.299   6.934  0.3414  0.3440  0.0928
20442SOL    HW161904   3.823   9.296   6.845 -0.4893  0.7885 -0.2660
20442SOL    HW261905   3.713   9.358   6.928 -0.6748 -0.8146  0.7478
20443SOL     OW61906   5.951   2.469   2.050 -0.0650 -0.6189  0.1765
20443SOL    HW161907   6.006   2.507   2.119  0.2183 -0.7381  0.0178
20443SOL    HW261908   6.002   2.396   2.016 -0.1342 -0.4645 -0.2662
20444SOL     OW61909   1.642   7.786   4.480 -0.0188 -0.3851  0.1196
20444SOL    HW161910   1.715   7.725   4.493 -0.4613 -0.7559  0.9967
20444SOL    HW261911   1.585   7.743   4.417 -0.2021 -0.7803  0.5440
20445SOL     OW61912   7.062   4.874   4.659  0.4645 -0.2040 -0.2521
20445SOL    HW161913   7.131   4.887   4.593 -0.0361 -1.8920 -1.1805
20445SOL    HW261914   7.109   4.865   4.742  1.4230 -1.4180 -0.8836
20446SOL     OW61915   1.915   7.521   0.345 -0.5150  0.0526  0.0544
20446SOL    HW161916   1.820   7.518   0.356 -0.7559 -0.0176 -1.6918
20446SOL    HW261917   1.939   7.433   0.317  0.0164  0.1766  0.1128
20447SOL     OW61918   2.203   9.566   0.462  0.5085  0.5255 -0.0226
20447SOL    HW161919   2.285   9.522   0.441  0.6344  1.0994 -0.7737
20447SOL    HW261920   2.195   9.558   0.557  0.5469 -1.0504 -0.1312
20448SOL     OW61921   1.141   9.756   3.897 -1.3683  0.3495  0.1988
20448SOL    HW161922   1.087   9.727   3.970  1.2222 -0.6219  1.8945
20448SOL    HW261923   1.195   9.826   3.934  0.3216 -0.4832 -0.5803
20449SOL     OW61924   5.864   8.132   4.860 -0.1839 -0.0769 -0.2570
20449SOL    HW161925   5.889   8.212   4.906 -0.1133 -0.0574 -0.3294
20449SOL    HW261926   5.818   8.080   4.926  0.3586 -0.2666 -0.0174
20450SOL     OW61927   3.219   7.894   1.129 -0.4189 -0.8497 -0.6739
20450SOL    HW161928   3.146   7.956   1.136 -0.4605 -0.9602 -0.0846
20450SOL    HW261929   3.285   7.940   1.077 -1.4096 -1.2195 -2.3333
20451SOL     OW61930   8.060   8.610   7.959  0.5073 -0.3110  0.6128
20451SOL    HW161931   8.031   8.549   8.026  0.0123 -1.1957 -0.3778
20451SOL    HW261932   8.110   8.676   8.006  1.4583 -1.7331  1.6745
20452SOL     OW61933   5.375   0.427   6.146 -0.3044 -0.4743  0.3451
20452SOL    HW161934   5.343   0.431   6.055  0.8732 -0.1342 -0.0719
20452SOL    HW261935   5.329   0.352   6.184 -1.0671 -0.4193 -0.4275
20453SOL     OW61936   5.420   3.363   9.266  0.3317 -0.3077  0.1035
20453SOL    HW161937   5.435   3.436   9.326 -0.8932 -0.1357  0.2171
20453SOL    HW261938   5.423   3.285   9.321 -1.2879 -0.1183  0.5193
20454SOL     OW61939   1.044   1.105   2.668 -0.1798  0.2086 -0.0130
20454SOL    HW161940   1.119   1.127   2.612  0.3240 -2.1620 -0.4231
20454SOL    HW261941   1.084   1.085   2.753 -0.4343 -0.2290  0.0058
20455SOL     OW61942   3.887   6.909   5.251  0.1039  0.2049  0.8376
20455SOL    HW161943   3.958   6.903   5.188 -0.5319 -0.3985  0.1597
20455SOL    HW261944   3.863   7.001   5.253  0.2124  0.2440  0.2911
20456SOL     OW61945   1.549   0.498   6.278  0.0540 -0.1967 -0.2706
20456SOL    HW161946   1.582   0.555   6.348 -0.1530  0.6316 -0.8250
20456SOL    HW261947   1.463   0.535   6.256 -0.1355 -0.8006 -0.5546
20457SOL     OW61948   9.319   3.238   1.762 -0.3428 -0.4948 -0.1054
20457SOL    HW161949   9.259   3.312   1.747 -0.7350 -0.8003 -0.0533
20457SOL    HW261950   9.262   3.162   1.771  0.0025 -0.6618  0.7825
20458SOL     OW61951   9.798   2.476   3.623 -0.0292 -0.5064 -0.0171
20458SOL    HW161952   9.815   2.544   3.558 -0.0593 -1.2816 -0.8626
20458SOL    HW261953   9.760   2.523   3.697  3.0896  0.9143  0.8553
20459SOL     OW61954   0.788   3.773   8.958 -0.1348  0.3891  0.5351
20459SOL    HW161955   0.873   3.796   8.995  0.9630 -0.7037 -1.1462
20459SOL    HW261956   0.797   3.680   8.935  0.2114  1.3701 -4.4530
20460SOL     OW61957   1.339   9.619   7.791  0.0596  0.1204 -0.7979
20460SOL    HW161958   1.260   9.664   7.762 -1.2678 -2.6629 -1.9140
20460SOL    HW261959   1.340   9.632   7.886 -1.5274  0.5551 -0.7998
20461SOL     OW61960   8.601   3.980   9.962 -0.2239  0.2037  0.5548
20461SOL    HW161961   8.637   4.049  10.018  1.4109 -0.4531  0.3861
20461SOL    HW261962   8.534   4.024   9.910 -0.2233  1.3293  1.4724
20462SOL     OW61963   1.570   6.977   3.058  0.2255  0.7903 -0.2693
20462SOL    HW161964   1.521   7.006   2.981 -1.0646  1.3071  0.7250
20462SOL    HW261965   1.577   6.882   3.046  0.0902  0.8690 -1.0533
20463SOL     OW61966   4.885   1.440   3.546  0.2754 -0.5002  0.0945
20463SOL    HW161967   4.872   1.535   3.546  1.1520 -0.3655 -0.6192
20463SOL    HW261968   4.799   1.404   3.565 -0.3233  0.4081 -0.7958
20464SOL     OW61969   5.741   5.880   8.877 -0.1159 -0.1845 -0.2763
20464SOL    HW161970   5.654   5.914   8.895  0.1120  0.1102  0.3213
20464SOL    HW261971   5.777   5.861   8.964 -0.2328 -1.9660 -0.5873
20465SOL     OW61972   1.268   5.635   8.880  0.0024 -0.3224 -0.0386
20465SOL    HW161973   1.276   5.687   8.961  0.0032 -0.3800 -0.0018
20465SOL    HW261974   1.181   5.594   8.888  0.3059 -0.9164  0.2798
20466SOL     OW61975   4.159   0.076   7.381 -0.4865 -0.0063 -0.1829
20466SOL    HW161976   4.103   0.065   7.304 -0.2657 -0.7600 -0.2476
20466SOL    HW261977   4.128   0.009   7.442 -0.6526  0.5832  0.3853
20467SOL     OW61978   3.087   3.123   0.190 -0.0128 -0.3335  0.1271
20467SOL    HW161979   3.133   3.118   0.274  2.3638 -0.7977 -1.1121
20467SOL    HW261980   3.126   3.199   0.146  0.5683 -1.5078 -1.4810
20468SOL     OW61981   6.706   0.830   4.323  0.0764 -0.1027  0.0194
20468SOL    HW161982   6.761   0.753   4.310  1.9984  0.4529  3.6221
20468SOL    HW261983   6.643   0.804   4.390  0.1072  1.1516  0.5667
20469SOL     OW61984   2.404   4.702   1.436  0.3787  0.3447  0.1232
20469SOL    HW161985   2.425   4.779   1.489 -0.5351  1.2171 -0.7433
20469SOL    HW261986   2.477   4.694   1.375  1.7063 -0.9826  1.7930
20470SOL     OW61987   0.997   5.275   4.155 -0.6053 -0.3471  0.1194
20470SOL    HW161988   0.967   5.281   4.065  1.1287 -0.3541 -0.5005
20470SOL    HW261989   1.092   5.265   4.148 -0.2849  0.8224  1.9645
20471SOL     OW61990   2.017   7.285   4.844 -0.2948 -0.5234 -0.7301
20471SOL    HW161991   2.103   7.325   4.834 -0.4036 -0.3483 -0.9722
20471SOL    HW261992   2.035   7.197   4.878 -0.0129 -0.5236 -0.8807
20472SOL     OW61993   5.281   1.173   2.839 -0.9888 -0.2185 -0.2257
20472SOL    HW161994   5.198   1.129   2.856 -0.6688 -0.1303  1.8227
20472SOL    HW261995   5.262   1.266   2.853 -0.6791 -0.1316 -0.3682
20473SOL     OW61996   2.117   9.971   0.622 -0.2794 -0.5021  0.3144
20473SOL    HW161997   2.111  10.035   0.692 -0.4193  1.2737 -1.2257
20473SOL    HW261998   2.035   9.921   0.628  0.5415 -1.7177  2.5309
20474SOL     OW61999   3.130   5.756   9.190 -0.2930  0.1390  0.1721
20474SOL    HW162000   3.151   5.844   9.158 -0.7097  0.3633  0.5121
20474SOL    HW262001   3.216   5.716   9.207 -0.1053  0.6246  0.4070
20475SOL     OW62002   5.249   6.996   0.006  0.3387  0.2408  0.5493
20475SOL    HW162003   5.202   7.040   0.077  0.5048  2.0420 -0.4189
20475SOL    HW262004   5.218   7.038  -0.074  0.4644 -1.4711 -0.4479
20476SOL     OW62005   0.377   3.186   4.029 -0.0122 -0.1596 -0.9939
20476SOL    HW162006   0.453   3.133   4.052  0.0217  0.4531  0.4122
20476SOL    HW262007   0.380   3.260   4.090 -1.0829  0.4853 -1.6923
20477SOL     OW62008   7.524   0.971   1.301 -0.6390  0.4920  0.1645
20477SOL    HW162009   7.557   0.881   1.295  2.1368  1.4358 -0.1373
20477SOL    HW262010   7.566   1.006   1.379  1.2040  2.5401 -1.6170
20478SOL     OW62011   6.094   4.512   7.511 -0.3332 -0.0050  0.0564
20478SOL    HW162012   6.101   4.428   7.555  1.1979 -0.2366 -0.5743
20478SOL    HW262013   6.181   4.528   7.476 -0.6138  1.8112  0.0881
20479SOL     OW62014   3.936   1.478   9.069 -0.5826 -0.1940  0.2987
20479SOL    HW162015   3.990   1.403   9.095  0.6466  0.2844 -0.7861
20479SOL    HW262016   3.905   1.515   9.151  0.8140 -0.4292  0.9518
20480SOL     OW62017   9.376   0.728   5.003  0.1724  0.0492  0.0552
20480SOL    HW162018   9.311   0.733   4.932 -1.5314  0.0968  1.5397
20480SOL    HW262019   9.381   0.635   5.025 -0.4531  0.1935  0.8533
20481SOL     OW62020   6.925   7.743   6.346 -0.3467 -0.1841 -0.3834
20481SOL    HW162021   6.895   7.834   6.345  0.6347  0.1911  1.0926
20481SOL    HW262022   7.003   7.744   6.400 -0.7835 -2.0605  0.3701
20482SOL     OW62023   1.105   2.364   0.333  0.0173  0.4279  0.4874
20482SOL    HW162024   1.013   2.362   0.306  0.2881 -0.8591 -0.4265
20482SOL    HW262025   1.122   2.277   0.368  1.5211 -0.2304 -1.6703
20483SOL     OW62026   5.767   5.150   5.904  0.3539 -0.6105 -0.2177
20483SOL    HW162027   5.805   5.064   5.923  0.2958 -0.4557  0.6768
20483SOL    HW262028   5.673   5.138   5.918  0.4928 -0.0311  1.5537
20484SOL     OW62029   8.455   7.086   7.796 -0.7332  0.1375 -0.0016
20484SOL    HW162030   8.452   7.055   7.706 -3.2774  0.6914 -0.1728
20484SOL    HW262031   8.446   7.007   7.849 -2.5044  0.0487 -0.3534
20485SOL     OW62032   2.498   4.002   9.557 -0.0928  0.0353  0.2125
20485SOL    HW162033   2.473   3.912   9.579 -0.0687 -0.2716 -0.9560
20485SOL    HW262034   2.544   4.034   9.635  0.1186 -1.0516  0.5507
20486SOL     OW62035   6.201   5.785   2.032  0.4454  0.3560  0.1503
20486SOL    HW162036   6.242   5.790   2.118  3.3025 -0.1145 -1.0755
20486SOL    HW262037   6.240   5.708   1.991 -1.3225  0.1856 -1.3700
20487SOL     OW62038   3.485   3.155   2.571 -0.7982 -0.6840  0.6289
20487SOL    HW162039   3.522   3.107   2.497  1.7271  0.6715  0.9129
20487SOL    HW262040   3.394   3.124   2.577 -0.2827 -2.7944 -1.3207
20488SOL     OW62041   8.860   0.056   7.529  0.5336  0.1997  0.3647
20488SOL    HW162042   8.840  -0.022   7.479  2.5025  0.4970 -1.0065
20488SOL    HW262043   8.882   0.024   7.617  2.3175 -0.9588 -0.4417
20489SOL     OW62044   7.177   1.398   8.677 -0.1897  0.6594  0.4149
20489SOL    HW162045   7.240   1.409   8.748 -0.9988  1.2338  1.0531
20489SOL    HW262046   7.131   1.317   8.697  1.1424 -0.4310 -0.7015
20490SOL     OW62047   9.634   6.019   6.230 -0.4409 -0.1993  0.6811
20490SOL    HW162048   9.550   6.011   6.183 -0.4160  0.4567  0.5190
20490SOL    HW262049   9.610   6.050   6.317 -0.2032  2.5377 -0.1477
20491SOL     OW62050   1.595   3.900   0.671  0.0971  0.1674 -0.0276
20491SOL    HW162051   1.539   3.921   0.597 -2.4752 -1.0865  1.4016
20491SOL    HW262052   1.570   3.963   0.739  0.6234 -0.2464  0.5681
20492SOL     OW62053   6.433   4.643   6.272  0.3847  0.4598  0.4463
20492SOL    HW162054   6.339   4.629   6.263  0.2819  1.2492  0.2272
20492SOL    HW262055   6.463   4.661   6.183  1.0702 -1.5640  0.2058
20493SOL     OW62056   1.242   1.488   2.664  0.2571 -0.4245 -0.4007
20493SOL    HW162057   1.286   1.432   2.600  1.2479 -0.2725  0.1272
20493SOL    HW262058   1.233   1.572   2.619  2.6113  0.2440  0.2243
20494SOL     OW62059   0.623   7.658   0.432  0.4452  0.0906 -0.3265
20494SOL    HW162060   0.639   7.720   0.503  0.3393  0.2597 -0.4506
20494SOL    HW262061   0.701   7.602   0.431  0.7918  0.5658 -0.5697
20495SOL     OW62062   8.408   1.051   7.620 -0.2448 -0.4376  0.0223
20495SOL    HW162063   8.443   1.129   7.578  0.5494  0.4109  2.1177
20495SOL    HW262064   8.450   0.978   7.574  2.7829  0.5015  1.0490
20496SOL     OW62065   1.868   3.223   1.240  0.0575  0.0505  0.2333
20496SOL    HW162066   1.876   3.317   1.258  1.3464 -0.0659  0.4151
20496SOL    HW262067   1.820   3.188   1.316  0.0893  0.4763  0.4532
20497SOL     OW62068   4.642   8.824   1.603  0.0647  0.8053 -0.2873
20497SOL    HW162069   4.726   8.869   1.612  0.6852  0.1517 -2.2639
20497SOL    HW262070   4.648   8.750   1.663  0.6088  1.1759  0.1226
20498SOL     OW62071   9.366   1.333   8.036 -0.1533 -0.3268 -0.5718
20498SOL    HW162072   9.454   1.341   7.999  0.1954  1.0726  0.4466
20498SOL    HW262073   9.378   1.277   8.113  0.2803  1.3915  0.6830
20499SOL     OW62074   3.206   7.286   0.868  0.0679  0.0985  0.3228
20499SOL    HW162075   3.209   7.190   0.876 -0.7333 -0.0157 -0.5744
20499SOL    HW262076   3.294   7.315   0.894  0.7760 -0.9952 -0.7435
20500SOL     OW62077   1.565   6.957   8.524 -0.1963 -0.6200 -0.0560
20500SOL    HW162078   1.557   6.867   8.555  0.5167 -0.6709  0.0047
20500SOL    HW262079   1.590   6.948   8.432  0.1175 -0.4927  0.0146
20501SOL     OW62080   2.306   2.295   9.711 -0.1293 -0.0983 -0.2900
20501SOL    HW162081   2.332   2.379   9.747 -0.1317 -0.3331  0.2709
20501SOL    HW262082   2.219   2.309   9.675  0.4988  0.5333 -1.6083
20502SOL     OW62083   6.128   0.941   7.344 -0.0403  0.3448 -0.0518
20502SOL    HW162084   6.071   0.881   7.295  0.0940  0.2681 -0.1136
20502SOL    HW262085   6.102   0.928   7.435 -1.2911  1.5403 -0.2081
20503SOL     OW62086   1.986   7.210   0.134 -0.1268  0.1577 -0.2528
20503SOL    HW162087   2.027   7.291   0.104 -0.6672  0.8406  0.8045
20503SOL    HW262088   2.007   7.206   0.227  1.7117 -2.0219 -0.6761
20504SOL     OW62089   3.390   3.719   2.808  0.1615  0.1291  0.3245
20504SOL    HW162090   3.462   3.689   2.753 -0.7474  0.2199 -0.9527
20504SOL    HW262091   3.380   3.650   2.873  1.4315  0.1505  0.5747
20505SOL     OW62092   4.590   6.086   5.618 -0.4361 -0.0323 -0.2080
20505SOL    HW162093   4.508   6.039   5.637  0.4623 -1.3870  0.4945
20505SOL    HW262094   4.603   6.143   5.693 -1.8519  1.9249 -1.3410
20506SOL     OW62095   9.505   2.334   0.976  0.3670  0.2093 -0.3020
20506SOL    HW162096   9.477   2.244   0.961 -0.3731  0.5232 -0.8553
20506SOL    HW262097   9.596   2.337   0.946  0.2205 -0.2157 -0.7814
20507SOL     OW62098   7.555   0.235   4.071 -0.4321 -0.6708  0.5392
20507SOL    HW162099   7.563   0.324   4.036  0.1240 -1.6333 -1.9471
20507SOL    HW262100   7.590   0.242   4.160 -1.1904  1.7472  0.7260
20508SOL     OW62101   2.057   7.192   7.714  0.2287  0.1023  0.7206
20508SOL    HW162102   1.998   7.261   7.744  0.5469  1.3375 -1.3646
20508SOL    HW262103   1.999   7.118   7.695 -0.4118  0.6349  0.5666
20509SOL     OW62104   8.640   7.435   5.774  0.2925 -0.0809 -0.1202
20509SOL    HW162105   8.665   7.511   5.825 -0.6870  0.4607 -0.4248
20509SOL    HW262106   8.674   7.360   5.824 -0.7305  0.4205  1.3907
20510SOL     OW62107  -0.001   5.804   7.167 -0.6338  0.7230  0.0971
20510SOL    HW162108  -0.013   5.741   7.237  0.0984  0.3957 -0.0627
20510SOL    HW262109   0.050   5.757   7.101 -1.3024  1.0254 -0.6549
20511SOL     OW62110   1.512   1.858   8.510  0.2017  0.4097  0.6127
20511SOL    HW162111   1.548   1.770   8.519  0.2818  0.5375  1.6084
20511SOL    HW262112   1.586   1.916   8.524 -0.5382  0.7278  4.3963
20512SOL     OW62113   2.124   6.562   6.430  0.5483 -0.1599 -0.3987
20512SOL    HW162114   2.128   6.545   6.524  0.9318 -1.9085 -0.6965
20512SOL    HW262115   2.125   6.475   6.390 -0.3950  0.5204 -2.0025
20513SOL     OW62116   9.098   2.172   5.539  0.1443 -0.0914  0.3062
20513SOL    HW162117   9.177   2.187   5.487  0.9616 -1.5017  1.0836
20513SOL    HW262118   9.103   2.237   5.609  0.3579  0.1401  0.0790
20514SOL     OW62119   1.753   6.997   4.809  0.2395  0.1567 -0.0259
20514SOL    HW162120   1.832   6.961   4.849  0.4031 -0.8196 -1.1669
20514SOL    HW262121   1.763   7.092   4.816  0.1861  0.0588  2.3243
20515SOL     OW62122   1.064   1.012   3.776 -0.0860  0.2706 -0.3189
20515SOL    HW162123   1.131   0.995   3.843  0.4685  0.6444 -0.7662
20515SOL    HW262124   1.044   1.105   3.787  1.2699  0.7846 -1.7722
20516SOL     OW62125   5.569   1.132   0.183 -0.4036  0.1877  0.0409
20516SOL    HW162126   5.650   1.161   0.227 -0.0300  0.2492 -0.6801
20516SOL    HW262127   5.514   1.099   0.255 -0.5008  1.8720  0.7714
20517SOL     OW62128   8.690   2.373   5.449  0.0902 -0.5937  0.5383
20517SOL    HW162129   8.768   2.380   5.394 -0.6315  0.6540 -0.3715
20517SOL    HW262130   8.711   2.302   5.510  1.1142 -1.7292 -1.0293
20518SOL     OW62131   4.319   4.157   8.448 -0.1363 -0.8724 -0.6291
20518SOL    HW162132   4.352   4.074   8.413  0.5443 -1.2617  0.8299
20518SOL    HW262133   4.358   4.163   8.536 -1.1579  0.3974 -0.2243
20519SOL     OW62134   2.712   3.728   5.936  0.1064 -0.2122  0.6564
20519SOL    HW162135   2.687   3.635   5.934 -0.9193  0.0363  1.3087
20519SOL    HW262136   2.808   3.726   5.932  0.2215 -1.4135  2.6489
20520SOL     OW62137   5.410   7.653   3.682 -0.3401 -0.4416  0.2393
20520SOL    HW162138   5.499   7.629   3.660  0.1860  1.8619 -0.5049
20520SOL    HW262139   5.357   7.578   3.656  1.3973 -2.0621  1.1930
20521SOL     OW62140   6.355   1.208   2.517 -0.0213  0.0031  0.0190
20521SOL    HW162141   6.368   1.300   2.493 -1.0863  0.4651  1.0808
20521SOL    HW262142   6.296   1.174   2.450  0.6475 -0.0129 -0.5725
20522SOL     OW62143   4.898   5.047   5.459 -0.4277  0.3108  0.0247
20522SOL    HW162144   4.990   5.072   5.454  0.3193 -2.1129  0.3783
20522SOL    HW262145   4.864   5.096   5.533  0.4679  1.5273 -0.3438
20523SOL     OW62146   5.161   7.952   8.912 -0.6302 -0.0940  0.1847
20523SOL    HW162147   5.229   7.892   8.880 -0.9176 -0.0688 -0.4834
20523SOL    HW262148   5.172   7.952   9.007 -2.2073 -3.1755  0.4814
20524SOL     OW62149   2.250   3.043   7.806 -0.0621 -0.3575 -0.1913
20524SOL    HW162150   2.219   2.989   7.733 -0.4147 -0.6700  0.1883
20524SOL    HW262151   2.345   3.045   7.796 -0.0640 -0.8833 -0.3211
20525SOL     OW62152   8.599   5.573   9.903  0.2933 -0.2844 -0.0971
20525SOL    HW162153   8.593   5.506   9.835 -0.4381  0.1500 -0.4876
20525SOL    HW262154   8.636   5.649   9.858 -0.7399  0.1951 -0.1894
20526SOL     OW62155   3.779   0.629   4.958 -0.2891 -0.8469  0.0445
20526SOL    HW162156   3.809   0.556   5.012 -1.4694  0.4610  2.6905
20526SOL    HW262157   3.686   0.611   4.943 -0.7244  0.2706  1.1686
20527SOL     OW62158   1.296   5.362   1.708 -0.4090 -0.2965  0.3870
20527SOL    HW162159   1.265   5.360   1.618 -3.5391  1.3331  1.2807
20527SOL    HW262160   1.266   5.279   1.746 -0.5180 -0.2895  0.3167
20528SOL     OW62161   1.154   4.840   3.279  0.2628  0.1306 -0.3278
20528SOL    HW162162   1.188   4.766   3.328 -2.0391 -0.9369 -0.2707
20528SOL    HW262163   1.141   4.909   3.344 -1.0875 -0.6789  0.2770
20529SOL     OW62164   3.801   7.297   1.203  0.0666 -0.2950 -0.2838
20529SOL    HW162165   3.761   7.383   1.196 -2.4817 -1.3219  0.3296
20529SOL    HW262166   3.777   7.266   1.290  1.4008 -1.4324 -0.2751
20530SOL     OW62167   0.683   1.591   0.548  0.4118  0.0403 -0.0550
20530SOL    HW162168   0.593   1.609   0.522  0.0444  1.7151  2.1012
20530SOL    HW262169   0.706   1.511   0.501 -2.1959 -0.4443 -0.6548
20531SOL     OW62170   0.968   1.795   6.211  0.6727 -0.0857 -0.3490
20531SOL    HW162171   0.944   1.791   6.304 -2.3860 -1.5923 -1.0738
20531SOL    HW262172   0.998   1.885   6.199 -2.0376  1.2088  1.4955
20532SOL     OW62173   3.066   3.681   3.712 -0.0270 -0.3289 -0.5276
20532SOL    HW162174   2.976   3.703   3.734 -0.1806  0.0619 -1.5178
20532SOL    HW262175   3.110   3.765   3.699  0.8747 -0.4594  1.3867
20533SOL     OW62176   0.262   1.462   7.287 -0.4524  0.5018  0.0728
20533SOL    HW162177   0.253   1.554   7.261  0.4646  0.3006 -1.0715
20533SOL    HW262178   0.350   1.457   7.325 -0.4909  0.0866  0.1059
20534SOL     OW62179   2.747   0.616   2.846 -0.3120  0.1488  0.0247
20534SOL    HW162180   2.834   0.647   2.872  0.8592 -3.0014  0.3146
20534SOL    HW262181   2.705   0.591   2.928 -1.4380  1.3963 -0.1450
20535SOL     OW62182   8.301   7.733   1.673 -0.1751 -0.0047  0.6113
20535SOL    HW162183   8.386   7.689   1.669  0.0227  0.4711 -1.2167
20535SOL    HW262184   8.254   7.701   1.596 -0.5791  1.8492  0.0496
20536SOL     OW62185   7.162   7.612   5.900 -0.0282  0.0154 -0.1151
20536SOL    HW162186   7.106   7.686   5.922  1.7176  0.8483  1.7856
20536SOL    HW262187   7.188   7.575   5.984  2.1433 -0.4297 -0.9210
20537SOL     OW62188   3.887   5.728   6.342  0.0420  0.2856  0.2356
20537SOL    HW162189   3.936   5.809   6.328  1.6681 -0.2941  2.2222
20537SOL    HW262190   3.929   5.664   6.284  0.4598  0.2351  0.5919
20538SOL     OW62191   6.553   3.284   2.518  0.3417 -0.1129  0.0860
20538SOL    HW162192   6.634   3.233   2.520 -0.5175 -1.5958  2.6627
20538SOL    HW262193   6.483   3.218   2.517 -0.8419  1.0927  0.0365
20539SOL     OW62194   3.294   6.431   0.587  0.3080  0.6628  0.0376
20539SOL    HW162195   3.226   6.463   0.527 -2.4255 -2.8612  0.8940
20539SOL    HW262196   3.356   6.384   0.530 -0.5762 -0.0342 -0.3738
20540SOL     OW62197   3.077   6.627   7.245  0.1388 -0.2223  0.0794
20540SOL    HW162198   3.105   6.548   7.291  0.3944 -0.8318 -1.1047
20540SOL    HW262199   3.102   6.613   7.154  0.7363  1.4793 -0.0525
20541SOL     OW62200   5.555   5.283   0.702  0.0144  0.4164  0.6018
20541SOL    HW162201   5.484   5.241   0.751  0.9522 -2.2703 -0.1287
20541SOL    HW262202   5.518   5.299   0.615  0.2349 -0.9317  0.2383
20542SOL     OW62203   4.493   6.273   9.896 -0.0036 -0.0775 -0.0202
20542SOL    HW162204   4.417   6.312   9.940  0.6383 -0.9583  1.9781
20542SOL    HW262205   4.469   6.273   9.804 -1.7140  1.2413  0.3661
20543SOL     OW62206   8.084   7.890   0.885 -0.4440 -0.2581 -0.0125
20543SOL    HW162207   8.098   7.927   0.798  1.5352  2.1418  1.1988
20543SOL    HW262208   8.066   7.797   0.869  0.3099  0.0021 -2.9336
20544SOL     OW62209   6.298   5.021   3.102 -0.3723 -0.6906  0.4947
20544SOL    HW162210   6.266   5.052   3.186 -0.2707 -2.1066  1.0827
20544SOL    HW262211   6.289   5.096   3.043  0.5787  0.6729  2.0171
20545SOL     OW62212   3.075   9.509   5.764 -0.3224  0.1840 -0.0987
20545SOL    HW162213   3.054   9.442   5.829 -1.5872 -0.2763 -0.9412
20545SOL    HW262214   2.996   9.517   5.711  0.0783  1.8120 -0.4963
20546SOL     OW62215   5.530   9.491   6.328 -0.4724 -0.5813 -0.9196
20546SOL    HW162216   5.607   9.458   6.373 -0.6401 -0.5044 -0.5686
20546SOL    HW262217   5.478   9.413   6.309 -1.1556 -0.4844  0.4489
20547SOL     OW62218   5.622   0.025   6.153 -0.2812  0.0063 -0.1734
20547SOL    HW162219   5.651   0.078   6.079 -0.8750 -0.0718 -0.4659
20547SOL    HW262220   5.699   0.020   6.210  0.5271 -0.8441 -1.2940
20548SOL     OW62221   5.954   7.872   4.473  0.0588 -0.3248 -0.7768
20548SOL    HW162222   5.885   7.809   4.495 -1.1053  0.1350 -2.8479
20548SOL    HW262223   5.982   7.907   4.558 -0.1712 -2.6559  0.3221
20549SOL     OW62224   1.646   0.748   8.809  0.6829  0.2869  0.4262
20549SOL    HW162225   1.565   0.799   8.812  2.0243  2.5967  0.0862
20549SOL    HW262226   1.662   0.737   8.715  1.0192  0.2861  0.4854
20550SOL     OW62227   9.920   9.803   1.610  0.4647 -0.4588  0.1804
20550SOL    HW162228   9.910   9.724   1.558  1.7267 -0.6228  0.1747
20550SOL    HW262229  10.014   9.821   1.610  0.2407  0.8310  0.4912
20551SOL     OW62230   3.106   6.789   1.767  0.7477 -0.0168 -0.9980
20551SOL    HW162231   3.111   6.851   1.694 -0.9097  0.0722 -1.0760
20551SOL    HW262232   3.191   6.795   1.809  0.5795  2.4940 -0.8777
20552SOL     OW62233   8.586   0.188   3.525  0.1711 -0.2945  0.0603
20552SOL    HW162234   8.626   0.221   3.606 -0.8202 -0.6695  0.7221
20552SOL    HW262235   8.492   0.197   3.540 -0.0141 -0.0335 -1.2071
20553SOL     OW62236   1.326   5.314   1.080 -0.1403  0.0532  0.6137
20553SOL    HW162237   1.398   5.281   1.134  2.1934  2.2182 -0.8984
20553SOL    HW262238   1.316   5.250   1.010  0.1788 -0.3807  0.9653
20554SOL     OW62239   7.536   6.867   3.315 -0.4037  0.0900  0.3114
20554SOL    HW162240   7.505   6.818   3.392 -0.8176 -0.5485 -0.2451
20554SOL    HW262241   7.466   6.930   3.298 -0.0460  0.6274  0.7981
20555SOL     OW62242   0.836   4.773   8.741  0.1679 -0.4478  0.2104
20555SOL    HW162243   0.890   4.762   8.663  0.7725 -1.0108  0.6968
20555SOL    HW262244   0.896   4.808   8.807 -0.4265  0.3954  0.3221
20556SOL     OW62245   6.298   4.352   3.480  0.2045 -0.4519 -0.7980
20556SOL    HW162246   6.373   4.398   3.518 -1.2612  0.3101  1.3636
20556SOL    HW262247   6.295   4.268   3.525  0.3562 -0.9413 -1.6683
20557SOL     OW62248   3.679   9.088   3.440 -0.3379 -0.9429  0.2853
20557SOL    HW162249   3.691   9.173   3.397 -0.4762 -1.2670 -0.4209
20557SOL    HW262250   3.752   9.081   3.501 -0.5919 -0.1126  0.6960
20558SOL     OW62251   1.375   9.860   1.851 -0.2164  0.3396 -0.1302
20558SOL    HW162252   1.456   9.869   1.901  0.2835 -0.9761 -0.6459
20558SOL    HW262253   1.354   9.767   1.856 -0.9553  0.4285 -1.1328
20559SOL     OW62254   2.511   7.705   5.626 -0.4433 -0.0290 -0.5462
20559SOL    HW162255   2.504   7.626   5.572  0.8677 -0.4226 -0.1901
20559SOL    HW262256   2.421   7.735   5.637 -0.9861 -1.5594 -0.5676
20560SOL     OW62257   2.822   8.383   2.203 -0.1379  0.3449  0.1233
20560SOL    HW162258   2.766   8.345   2.135 -0.1041  0.8062 -0.1611
20560SOL    HW262259   2.795   8.338   2.283 -0.7194  0.3627 -0.0587
20561SOL     OW62260   9.329   3.005   5.634 -0.5675 -0.6647  0.0161
20561SOL    HW162261   9.239   3.030   5.615 -0.1230 -0.9546 -3.0125
20561SOL    HW262262   9.326   2.910   5.644 -0.7706 -0.5315  1.4893
20562SOL     OW62263   5.147   2.099   2.741 -0.4490  0.4421 -0.0449
20562SOL    HW162264   5.104   2.017   2.765 -0.2875  0.4983  0.4532
20562SOL    HW262265   5.076   2.164   2.745 -0.0425  0.8354  2.4216
20563SOL     OW62266   9.487   1.707   3.437 -0.5439 -0.2578  0.0601
20563SOL    HW162267   9.578   1.730   3.454 -1.2850  2.4343  0.7686
20563SOL    HW262268   9.464   1.646   3.507  0.3925 -0.1631  0.4622
20564SOL     OW62269   3.385   4.850   8.081 -0.4696 -0.2122  0.3531
20564SOL    HW162270   3.446   4.906   8.130 -1.0988  2.8658 -2.0658
20564SOL    HW262271   3.298   4.873   8.115 -0.8443  1.3956 -1.4933
20565SOL     OW62272   4.126   3.347   7.071  0.4689 -0.2387 -0.5481
20565SOL    HW162273   4.112   3.268   7.019 -1.7743 -1.1393  1.2144
20565SOL    HW262274   4.089   3.418   7.019 -1.2585 -1.0354 -0.4550
20566SOL     OW62275   9.046   9.297   3.519 -0.0745 -0.0730 -0.0410
20566SOL    HW162276   9.099   9.248   3.457  0.9944  0.2364  0.6109
20566SOL    HW262277   9.041   9.241   3.596  1.0657  0.7613  0.6702
20567SOL     OW62278   4.630   6.322   8.949  0.1585  0.1342  0.3435
20567SOL    HW162279   4.615   6.319   8.855 -0.8896  0.7238  0.4762
20567SOL    HW262280   4.564   6.263   8.986 -0.7140  1.3719  0.8192
20568SOL     OW62281   0.728   1.191   0.284 -0.1642  0.0227 -0.3897
20568SOL    HW162282   0.680   1.272   0.297 -0.4658 -0.4550  1.7619
20568SOL    HW262283   0.803   1.197   0.342  0.1454 -0.9852 -0.6567
20569SOL     OW62284   4.362   2.848   6.980 -0.2974  0.1682  0.5075
20569SOL    HW162285   4.365   2.777   7.044 -0.3300 -1.1281 -0.8739
20569SOL    HW262286   4.290   2.824   6.921  0.0652  1.0527 -0.3112
20570SOL     OW62287   5.116   3.165   0.264  0.5240 -0.0572 -0.3622
20570SOL    HW162288   5.157   3.125   0.341 -1.6475  0.0186  0.9263
20570SOL    HW262289   5.065   3.238   0.299 -1.6574 -0.8679 -1.5935
20571SOL     OW62290   7.678   9.353   5.651  0.2438 -1.0397 -0.4414
20571SOL    HW162291   7.737   9.401   5.709 -1.1965 -0.6818  0.8046
20571SOL    HW262292   7.671   9.266   5.690 -1.5718 -0.4772  0.6353
20572SOL     OW62293   7.960   0.921   0.526 -0.5309  0.1597 -0.1869
20572SOL    HW162294   7.934   0.863   0.454 -1.1251  1.1599 -0.7893
20572SOL    HW262295   7.893   0.907   0.593 -0.9422  0.4999 -0.5245
20573SOL     OW62296   0.817   2.004   3.378 -0.0635 -0.0539  0.0026
20573SOL    HW162297   0.821   1.946   3.303 -0.5648 -1.4190  0.9825
20573SOL    HW262298   0.903   1.998   3.419  0.7340  1.8562 -1.2310
20574SOL     OW62299   6.100   3.172   7.477  0.5431 -0.2168  0.1167
20574SOL    HW162300   6.072   3.158   7.387 -0.6006  0.2492  0.3795
20574SOL    HW262301   6.062   3.099   7.526  1.5515 -0.7295  0.1636
20575SOL     OW62302   2.424   6.636   2.932 -0.4356  0.6633 -0.1196
20575SOL    HW162303   2.439   6.613   2.840  1.8829  0.7372  0.1743
20575SOL    HW262304   2.449   6.728   2.938  3.0658 -0.2249  1.2045
20576SOL     OW62305   6.102   2.282   9.084 -0.0223 -0.1501 -0.3622
20576SOL    HW162306   6.012   2.315   9.092 -0.3809 -0.6283 -2.0877
20576SOL    HW262307   6.104   2.205   9.141 -0.3874  0.4318  0.4699
20577SOL     OW62308   3.821   4.767   1.905  0.1199 -0.1519 -0.4202
20577SOL    HW162309   3.783   4.796   1.822  3.4984  1.5265 -1.5799
20577SOL    HW262310   3.824   4.672   1.898 -1.2059 -0.1429 -1.4610
20578SOL     OW62311   8.641   7.086   6.485  0.1686 -0.4084 -0.1201
20578SOL    HW162312   8.656   7.000   6.524  0.1621 -0.6958 -0.7509
20578SOL    HW262313   8.715   7.139   6.516  1.6136 -1.3405 -1.7967
20579SOL     OW62314   0.882   6.650   3.256 -0.1305  0.0487 -0.0838
20579SOL    HW162315   0.801   6.700   3.266  0.6253  1.2321  0.3396
20579SOL    HW262316   0.903   6.656   3.162  0.4902  1.4338  0.1200
20580SOL     OW62317   7.870   2.244   0.176 -0.5625  0.0388 -1.0942
20580SOL    HW162318   7.778   2.226   0.196 -0.3379  0.4776  0.4776
20580SOL    HW262319   7.870   2.335   0.145 -0.6210  0.1618 -0.7399
20581SOL     OW62320   2.357   7.881   6.665 -0.2239  0.1452  0.6979
20581SOL    HW162321   2.348   7.831   6.584  0.0478 -0.5936  1.1056
20581SOL    HW262322   2.275   7.929   6.672 -0.1577  0.3902 -0.1233
20582SOL     OW62323   4.948   9.856   5.426 -0.4402 -0.3005  0.1849
20582SOL    HW162324   5.035   9.820   5.443 -0.4059  0.8423  2.9597
20582SOL    HW262325   4.958   9.908   5.346  1.1851 -0.8656 -0.0103
20583SOL     OW62326   7.103   2.604   2.621 -0.0025 -0.1670 -0.4316
20583SOL    HW162327   7.024   2.549   2.616 -0.3131  0.3863 -2.9874
20583SOL    HW262328   7.071   2.692   2.605  0.9762  0.2388 -0.1947
20584SOL     OW62329   2.330   6.917   8.537  0.2899  0.2142  0.0165
20584SOL    HW162330   2.375   6.921   8.453 -1.0215 -1.2977 -0.8292
20584SOL    HW262331   2.326   7.007   8.567  1.4580  0.6868 -1.1781
20585SOL     OW62332   9.982   7.877   4.681  0.1752 -0.2132 -0.1964
20585SOL    HW162333   9.948   7.923   4.758 -1.4074  1.6664 -1.9248
20585SOL    HW262334   9.936   7.793   4.681 -0.1557 -0.0402  0.6247
20586SOL     OW62335   8.099   4.400   1.635 -0.1401  0.8190 -0.3204
20586SOL    HW162336   8.051   4.474   1.673  0.3688  0.3337  1.3484
20586SOL    HW262337   8.190   4.429   1.632  0.0368  0.3151  0.1825
20587SOL     OW62338   0.479   6.733   9.638  0.2521 -0.1951 -0.0571
20587SOL    HW162339   0.421   6.660   9.658  0.1575 -0.9195 -2.5936
20587SOL    HW262340   0.566   6.695   9.632  0.1444 -0.2667 -1.8298
20588SOL     OW62341   2.958   0.565   9.014 -0.3286 -0.4780  0.4703
20588SOL    HW162342   2.977   0.547   8.922  0.1826  0.6352  0.3481
20588SOL    HW262343   2.893   0.499   9.038 -0.0796 -1.1113 -0.5371
20589SOL     OW62344   4.860   9.114   1.296 -0.6912  0.0725  0.0083
20589SOL    HW162345   4.769   9.087   1.282 -1.0786  1.2138  0.2132
20589SOL    HW262346   4.897   9.118   1.208 -1.4239  1.5047 -0.2643
20590SOL     OW62347   8.023   8.934   6.988 -0.3471  0.2937 -0.3012
20590SOL    HW162348   8.009   8.899   6.900 -0.6222  1.0640 -0.5757
20590SOL    HW262349   8.092   8.999   6.977 -1.1611  1.2083 -0.1723
20591SOL     OW62350   4.943   7.774   7.746  0.7750  0.1727 -0.6507
20591SOL    HW162351   4.869   7.748   7.692  0.9495  1.3991 -1.5308
20591SOL    HW262352   4.904   7.796   7.831  0.1275  0.6987 -1.0706
20592SOL     OW62353   3.850   2.299   1.997  0.1415  0.1612  0.0017
20592SOL    HW162354   3.896   2.252   1.927  1.7413  0.1277  1.0317
20592SOL    HW262355   3.860   2.391   1.975 -0.0691  0.1242 -0.2482
20593SOL     OW62356   9.650   3.000   1.344 -0.0595 -0.5000  0.4094
20593SOL    HW162357   9.575   2.961   1.390 -0.0057  0.8445  1.7043
20593SOL    HW262358   9.679   3.070   1.401 -1.4403  2.9088 -2.6679
20594SOL     OW62359   5.028   3.975   4.611  0.7605 -0.0387  0.3550
20594SOL    HW162360   4.939   3.949   4.635  0.0370  1.9664  0.1047
20594SOL    HW262361   5.016   4.060   4.568  2.9152  0.8716  1.4325
20595SOL     OW62362   7.364   8.655   6.686  0.2157  0.3490 -0.0827
20595SOL    HW162363   7.388   8.747   6.686 -0.0003  0.4144 -1.3621
20595SOL    HW262364   7.443   8.610   6.655 -0.0056  0.2051 -0.4480
20596SOL     OW62365   1.309   1.351   7.300  0.0547 -0.1700 -0.3902
20596SOL    HW162366   1.301   1.423   7.238 -0.2755 -2.1523 -2.8266
20596SOL    HW262367   1.233   1.295   7.282  0.6747 -1.4997  0.8995
20597SOL     OW62368   7.858   5.458   1.958  0.3162  0.2659 -0.5654
20597SOL    HW162369   7.947   5.421   1.960 -0.1288 -0.8858  1.2291
20597SOL    HW262370   7.864   5.537   2.012  0.4075  0.6382 -1.1121
20598SOL     OW62371   0.953   0.221   1.848 -0.5623  0.3034 -0.6272
20598SOL    HW162372   0.969   0.129   1.828 -1.0730  0.1478 -0.3447
20598SOL    HW262373   0.965   0.266   1.764 -3.2859 -0.4145 -1.5023
20599SOL     OW62374   7.650   5.872   4.870  0.2066 -0.2992 -0.0812
20599SOL    HW162375   7.687   5.829   4.947 -0.4775 -0.8714 -0.0692
20599SOL    HW262376   7.672   5.965   4.881  0.4192 -0.4319  0.6177
20600SOL     OW62377   3.274   6.154   1.342 -0.3630 -0.1124  0.2949
20600SOL    HW162378   3.250   6.091   1.410 -0.0432  0.1378  0.6467
20600SOL    HW262379   3.352   6.116   1.301  0.2688  0.3944  0.9961
20601SOL     OW62380   5.381   4.397   6.772  0.8141  0.3291  0.5412
20601SOL    HW162381   5.400   4.381   6.679  0.2835 -1.3426  0.6895
20601SOL    HW262382   5.314   4.465   6.770 -0.7803 -1.1836 -0.4460
20602SOL     OW62383   2.581   5.631   7.384 -0.3941 -0.5328 -0.3382
20602SOL    HW162384   2.587   5.557   7.324  2.1005 -0.1927 -0.6136
20602SOL    HW262385   2.670   5.665   7.389 -1.4143  2.3702 -0.0939
20603SOL     OW62386   6.045   0.834   9.696  0.2874 -0.3690 -0.0899
20603SOL    HW162387   6.116   0.825   9.632  0.8691  0.2811  0.4498
20603SOL    HW262388   6.021   0.927   9.692  0.7846 -0.1789  1.1024
20604SOL     OW62389   5.100   8.204   2.662  0.2665 -0.6536  0.1542
20604SOL    HW162390   5.107   8.129   2.721 -1.6238  1.4449  3.3051
20604SOL    HW262391   5.049   8.171   2.588 -1.7235 -2.2084  2.0863
20605SOL     OW62392   8.028   6.033   4.758  0.4886 -0.6672 -0.5525
20605SOL    HW162393   8.060   6.003   4.844 -0.4069  0.2662  0.1354
20605SOL    HW262394   8.086   6.105   4.735  0.0009 -0.1360 -0.1488
20606SOL     OW62395   7.971   3.031   8.994  0.1434 -0.0289 -0.2597
20606SOL    HW162396   7.931   2.949   9.024 -0.2304 -0.6491 -2.2589
20606SOL    HW262397   8.045   3.003   8.940  0.7033  0.9942 -0.0462
20607SOL     OW62398   8.071   1.855   5.663 -0.4468 -0.3252 -0.0191
20607SOL    HW162399   8.107   1.940   5.688 -0.9278 -0.8594  2.8523
20607SOL    HW262400   8.028   1.871   5.579 -1.7511  2.6598  1.0704
20608SOL     OW62401   6.168   1.736   5.121  0.0518  0.1363  0.0849
20608SOL    HW162402   6.253   1.757   5.082 -0.3048  0.7470 -0.3940
20608SOL    HW262403   6.177   1.646   5.150  0.6617 -0.0148 -0.5215
20609SOL     OW62404   8.555   7.290   9.977  0.0947 -0.6476 -0.1896
20609SOL    HW162405   8.582   7.255   9.892  0.0751 -2.8145  0.6291
20609SOL    HW262406   8.530   7.213  10.028 -0.7105  0.6598  1.5185
20610SOL     OW62407   0.396   7.770   4.229 -0.0044 -0.0523 -0.0401
20610SOL    HW162408   0.448   7.784   4.149  0.6415  3.7542  0.8268
20610SOL    HW262409   0.456   7.723   4.288  0.0965 -1.4119 -1.1726
20611SOL     OW62410   2.799   6.343   4.123 -0.3980  0.0233  0.3449
20611SOL    HW162411   2.835   6.283   4.057  0.3021  0.5371  0.2486
20611SOL    HW262412   2.745   6.404   4.074  1.0184  1.0995  0.0700
20612SOL     OW62413   4.909   3.767   0.547 -0.4488 -0.2814 -0.5511
20612SOL    HW162414   4.848   3.706   0.505 -0.3784 -0.5833 -0.2137
20612SOL    HW262415   4.947   3.717   0.619  1.0109 -0.4406 -1.4103
20613SOL     OW62416   9.069   7.817   0.237 -0.0875 -0.2693 -0.0381
20613SOL    HW162417   9.158   7.852   0.246  0.3049 -1.3294  0.2454
20613SOL    HW262418   9.018   7.893   0.209  0.7940  0.4835  0.3110
20614SOL     OW62419   6.048   9.280   7.418 -0.4222 -0.1855  0.3585
20614SOL    HW162420   6.004   9.227   7.484 -1.4249 -0.1741 -0.2699
20614SOL    HW262421   6.072   9.219   7.349  0.1954 -0.1255  0.5165
20615SOL     OW62422   1.555   1.500   8.979  0.1491  0.3537 -0.1235
20615SOL    HW162423   1.609   1.517   8.902 -2.4150  1.4631 -1.8410
20615SOL    HW262424   1.498   1.429   8.953 -0.3260  0.2954  1.0152
20616SOL     OW62425   1.647   6.621   8.441 -0.1861 -0.5833 -0.2603
20616SOL    HW162426   1.589   6.684   8.398 -0.9543 -1.6018 -0.7668
20616SOL    HW262427   1.691   6.577   8.369  1.3235  0.2433  0.1212
20617SOL     OW62428   5.893   1.058   9.625  0.2139 -0.2828  0.2266
20617SOL    HW162429   5.864   1.072   9.535 -0.0175 -1.4386  0.1003
20617SOL    HW262430   5.862   1.135   9.673 -0.0994  0.1036 -0.5763
20618SOL     OW62431   6.251   6.564   0.997  0.2283 -0.0202  0.3961
20618SOL    HW162432   6.265   6.511   1.076  0.7384  1.3562  1.2674
20618SOL    HW262433   6.298   6.519   0.928  0.4440 -0.8273  1.0600
20619SOL     OW62434   1.389   2.223   2.746  0.3207  0.1833 -0.5413
20619SOL    HW162435   1.458   2.226   2.812 -0.3147 -0.5599  0.1683
20619SOL    HW262436   1.436   2.211   2.663  1.0805  0.3959 -0.1523
20620SOL     OW62437   3.609   4.025   6.219 -0.2699  0.2470 -0.0880
20620SOL    HW162438   3.688   4.064   6.181 -0.5122  0.6186 -0.2121
20620SOL    HW262439   3.641   3.952   6.271 -0.0091 -1.1144 -2.0500
20621SOL     OW62440   8.270   1.446   3.601  0.2009 -0.2460 -0.5933
20621SOL    HW162441   8.220   1.374   3.640  3.1715 -2.5620 -0.6877
20621SOL    HW262442   8.243   1.447   3.509 -2.2884  1.1116  0.0563
20622SOL     OW62443   6.034   0.837   4.251  0.0465 -0.0463 -0.3956
20622SOL    HW162444   6.008   0.904   4.188  1.8422 -1.1727 -2.4834
20622SOL    HW262445   5.982   0.761   4.229  1.8150 -0.9543 -1.7265
20623SOL     OW62446   8.789   2.261   0.554  0.0981  0.1561 -0.3253
20623SOL    HW162447   8.784   2.357   0.552 -1.3612  0.0923 -0.8026
20623SOL    HW262448   8.762   2.238   0.643  1.9222  0.2178  0.2920
20624SOL     OW62449   6.542   5.726   7.617 -0.0236 -0.2821 -0.9229
20624SOL    HW162450   6.564   5.658   7.681 -0.2992 -0.7770 -1.3439
20624SOL    HW262451   6.469   5.689   7.568 -0.0409  0.2401 -1.2936
20625SOL     OW62452   6.464   2.972   7.267 -0.2250 -0.3131  0.2589
20625SOL    HW162453   6.493   2.910   7.334 -0.1378 -0.4066  0.1347
20625SOL    HW262454   6.371   2.951   7.253 -0.7850  0.9888  1.7609
20626SOL     OW62455   2.165   6.058   1.764 -0.8116 -0.4392  0.0069
20626SOL    HW162456   2.172   5.975   1.716 -0.4019  0.4183 -1.4638
20626SOL    HW262457   2.075   6.087   1.750 -0.9073 -0.5423  0.3873
20627SOL     OW62458   6.123   7.773   8.777 -0.0104 -0.4100  0.0160
20627SOL    HW162459   6.168   7.708   8.722  2.1944  1.2135 -0.2266
20627SOL    HW262460   6.063   7.721   8.830  0.3733 -2.4455 -1.3976
20628SOL     OW62461   5.990   7.536   9.670 -0.6928  0.0652  0.4099
20628SOL    HW162462   6.048   7.611   9.662 -0.2926 -0.0642  1.7999
20628SOL    HW262463   5.927   7.546   9.599 -0.3011  1.3958  0.2256
20629SOL     OW62464   9.067   3.249   8.282  0.1518 -0.6596 -0.5094
20629SOL    HW162465   9.069   3.335   8.322  2.2430 -0.0333 -1.8077
20629SOL    HW262466   9.027   3.264   8.196  0.8398 -0.8832 -0.8792
20630SOL     OW62467   6.157   7.582   5.442  0.1809  0.0375  0.2432
20630SOL    HW162468   6.182   7.558   5.353 -1.2085 -1.5714  0.2318
20630SOL    HW262469   6.199   7.667   5.457  3.6235 -1.3580 -0.5548
20631SOL     OW62470   6.901   7.682   4.252 -0.4939  0.7097 -0.3793
20631SOL    HW162471   6.944   7.640   4.177  1.9855 -0.4502  1.5579
20631SOL    HW262472   6.857   7.611   4.298  0.0887  0.9599  0.5857
20632SOL     OW62473   7.745   7.336   3.060 -0.1289  0.0367 -0.4173
20632SOL    HW162474   7.747   7.397   3.134  1.9375 -0.7059  0.2070
20632SOL    HW262475   7.723   7.251   3.100 -1.3139  0.0251 -1.0369
20633SOL     OW62476   8.351   7.718   9.200 -0.0160 -0.1183  0.0944
20633SOL    HW162477   8.350   7.741   9.293  0.1201  0.0166  0.0634
20633SOL    HW262478   8.433   7.670   9.189 -0.3207 -0.6614  0.1686
20634SOL     OW62479   3.762   5.191   5.181 -0.0419 -0.4523 -0.4953
20634SOL    HW162480   3.750   5.109   5.228 -2.5926  0.8934  1.4438
20634SOL    HW262481   3.749   5.259   5.247 -3.0292  1.5478 -2.8374
20635SOL     OW62482   0.230   1.150   9.121  0.6611 -0.0152 -0.1870
20635SOL    HW162483   0.170   1.078   9.102  1.2651 -0.1927 -1.5072
20635SOL    HW262484   0.258   1.134   9.212  0.3661 -1.1401 -0.2741
20636SOL     OW62485   6.099   0.383   1.617 -0.0789 -0.3042  0.0435
20636SOL    HW162486   6.105   0.338   1.533  1.0883  1.4000 -0.8510
20636SOL    HW262487   6.151   0.330   1.677  1.1605 -0.2597 -0.9496
20637SOL     OW62488   4.477   3.620   3.590  0.2683  0.8349  0.0600
20637SOL    HW162489   4.382   3.609   3.593  0.0836  2.2291 -0.0045
20637SOL    HW262490   4.494   3.657   3.503  0.7418  1.6372  0.4846
20638SOL     OW62491   6.975   8.382   0.036  0.5041  0.5263  0.0669
20638SOL    HW162492   6.960   8.448   0.104  0.7397  0.8015 -0.1457
20638SOL    HW262493   6.903   8.320   0.047  1.6635 -0.6171  1.9751
20639SOL     OW62494   9.719   5.027   3.228  0.5619 -0.3369  0.0040
20639SOL    HW162495   9.715   5.100   3.165  1.6852 -0.2225  0.0491
20639SOL    HW262496   9.638   4.979   3.213  0.0509  0.6102 -0.4058
20640SOL     OW62497   9.584   2.368   0.233  0.4520  0.4669  0.0126
20640SOL    HW162498   9.606   2.450   0.278  0.2360  0.1288  0.7436
20640SOL    HW262499   9.591   2.301   0.300  0.0449 -0.0400 -0.4413
20641SOL     OW62500   2.992   4.846   7.563  0.1887  0.3281 -0.3484
20641SOL    HW162501   2.993   4.942   7.557  0.9578  0.3292 -0.3467
20641SOL    HW262502   2.930   4.819   7.495 -0.8647  0.8624  0.3712
20642SOL     OW62503   4.209   0.662   3.749  0.0710 -0.7436 -0.0874
20642SOL    HW162504   4.292   0.681   3.793  0.6270 -1.5014 -0.7760
20642SOL    HW262505   4.143   0.705   3.803  0.9751  0.5099  0.0667
20643SOL     OW62506   0.654   9.861   1.833 -0.3836 -0.1678 -0.2086
20643SOL    HW162507   0.567   9.837   1.863  0.2876 -1.5036  0.7766
20643SOL    HW262508   0.711   9.847   1.909  0.6058  1.3366 -0.6190
20644SOL     OW62509   5.082   9.072   6.004 -0.2552  0.5747  0.2635
20644SOL    HW162510   5.124   8.989   6.023 -1.9438 -0.1053  1.2358
20644SOL    HW262511   5.048   9.103   6.088  1.4452  2.9352  0.1791
20645SOL     OW62512   2.625   6.248   5.649  0.4570  0.2451 -0.1949
20645SOL    HW162513   2.593   6.158   5.638  1.6574 -0.2803  0.3810
20645SOL    HW262514   2.619   6.264   5.743  2.2923 -0.0753  0.0215
20646SOL     OW62515   0.019   6.861   5.244 -0.2069  0.2380  0.0971
20646SOL    HW162516   0.029   6.946   5.202  1.0963 -0.7789 -1.8315
20646SOL    HW262517   0.067   6.869   5.327  3.3740  0.3328 -1.7716
20647SOL     OW62518   8.368   8.654   0.082 -0.5102  0.4121  0.3632
20647SOL    HW162519   8.385   8.702   0.001  0.5624  0.3126  0.5192
20647SOL    HW262520   8.316   8.579   0.055 -2.2457  1.6425  0.1164
20648SOL     OW62521   3.169   9.174   0.972  0.7633  0.1538 -0.0558
20648SOL    HW162522   3.180   9.117   0.896 -1.0759  0.2582 -0.4588
20648SOL    HW262523   3.217   9.130   1.042  0.5902 -1.1629 -0.7234
20649SOL     OW62524   9.377   0.225   6.298 -0.8059  0.0637  0.0659
20649SOL    HW162525   9.433   0.175   6.358  1.1363  0.1195 -1.6224
20649SOL    HW262526   9.364   0.309   6.343  0.2822 -0.0356  0.6087
20650SOL     OW62527   9.173   9.786   8.130  0.0039 -0.1131 -0.2041
20650SOL    HW162528   9.123   9.866   8.112  0.0555  0.0383  0.3097
20650SOL    HW262529   9.246   9.816   8.185 -0.2568 -0.5893  0.4125
20651SOL     OW62530   4.076   1.372   5.055  0.5117 -0.5736 -0.5962
20651SOL    HW162531   4.032   1.443   5.102  2.5958  1.5446 -1.6154
20651SOL    HW262532   4.055   1.389   4.963  0.1861 -1.9392 -0.7897
20652SOL     OW62533   0.230   5.437   3.826  0.1948  0.2584 -0.4910
20652SOL    HW162534   0.298   5.377   3.795 -0.5603 -1.6358  1.2673
20652SOL    HW262535   0.249   5.449   3.919 -1.2643  0.5262 -0.1959
20653SOL     OW62536   6.996   8.467   1.679  0.4648  0.4190 -0.2993
20653SOL    HW162537   6.943   8.477   1.758 -0.7501  0.8535 -1.1422
20653SOL    HW262538   6.997   8.373   1.664 -0.5526  0.4342 -0.5705
20654SOL     OW62539   8.273   8.176   9.709 -0.3001  0.0196  0.6400
20654SOL    HW162540   8.233   8.250   9.755 -0.8031  1.3365 -1.7673
20654SOL    HW262541   8.201   8.139   9.657  0.2079 -1.5344  0.9945
20655SOL     OW62542   7.702   0.160   2.556 -0.1039  0.1266 -0.0249
20655SOL    HW162543   7.623   0.188   2.602  0.6586  0.8962  0.8376
20655SOL    HW262544   7.755   0.239   2.548  0.6483 -0.4103 -0.4676
20656SOL     OW62545   2.797   0.909   9.661 -0.1119 -0.2128  0.0701
20656SOL    HW162546   2.761   0.864   9.585 -2.4242 -1.5323  1.8011
20656SOL    HW262547   2.744   0.988   9.671 -0.0375 -0.2133  0.5011
20657SOL     OW62548   9.822   5.999   7.068 -0.0198  0.5586 -0.1900
20657SOL    HW162549   9.740   5.969   7.029 -0.0217  1.0552 -0.5822
20657SOL    HW262550   9.862   5.920   7.105 -0.1800  0.1327 -0.9100
20658SOL     OW62551   6.579   5.998   9.683 -0.6255  0.4514 -0.2949
20658SOL    HW162552   6.507   6.031   9.736 -0.5113  2.2422 -1.2122
20658SOL    HW262553   6.551   5.910   9.657 -0.5842 -0.6490  2.8415
20659SOL     OW62554   6.174   8.783   8.903 -0.1561 -0.0810 -0.3388
20659SOL    HW162555   6.126   8.779   8.986 -0.4958  0.0398 -0.5285
20659SOL    HW262556   6.248   8.723   8.915 -1.7607 -2.3287 -0.9598
20660SOL     OW62557   0.540   4.221   5.983 -0.3047  0.1305  0.0480
20660SOL    HW162558   0.526   4.255   6.071 -0.6256  0.1827 -0.0210
20660SOL    HW262559   0.635   4.219   5.972 -0.2726  0.4851  0.2553
20661SOL     OW62560   1.260   8.049   9.355 -0.3009  0.1827  0.9565
20661SOL    HW162561   1.350   8.027   9.381  0.0737  0.1743 -0.3103
20661SOL    HW262562   1.267   8.138   9.321 -0.7799  0.1679  0.8281
20662SOL     OW62563   9.837   7.150   8.399 -0.0160 -0.2081 -0.1226
20662SOL    HW162564   9.931   7.137   8.414 -0.0588 -0.3186  0.0527
20662SOL    HW262565   9.818   7.097   8.321  0.5356  1.6404 -1.5985
20663SOL     OW62566   8.616   7.556   8.861  0.6249 -0.4922 -0.2626
20663SOL    HW162567   8.678   7.516   8.799  0.8131 -0.7343  0.0807
20663SOL    HW262568   8.669   7.578   8.937  0.2090 -1.0947  0.2074
20664SOL     OW62569   4.807   7.004   6.652 -0.1215  0.1757  0.5969
20664SOL    HW162570   4.761   6.921   6.668  0.0695  0.2069  1.3553
20664SOL    HW262571   4.893   6.991   6.693  0.4885  0.1922 -0.6199
20665SOL     OW62572   7.190   0.727   5.956  0.3261 -0.3409  0.1392
20665SOL    HW162573   7.155   0.643   5.926  0.7998  0.1548 -1.8961
20665SOL    HW262574   7.257   0.750   5.892  0.6561  1.2922  1.0213
20666SOL     OW62575   7.182   2.396   9.947  0.3431 -0.3771  0.3062
20666SOL    HW162576   7.189   2.458  10.019 -0.3771 -0.9884  0.9101
20666SOL    HW262577   7.106   2.342   9.968 -0.9116  0.4697 -1.7084
20667SOL     OW62578   9.961   4.671   8.263 -0.0170  0.2009  0.2492
20667SOL    HW162579   9.914   4.626   8.333 -0.1717  0.5461  0.3676
20667SOL    HW262580   9.992   4.752   8.304  0.9498 -0.1535  0.2718
20668SOL     OW62581   2.389   5.404   6.807  0.1028 -0.0631 -0.5111
20668SOL    HW162582   2.432   5.378   6.888 -0.8300  3.1076  1.1526
20668SOL    HW262583   2.300   5.370   6.815 -0.0874  0.5307 -0.0028
20669SOL     OW62584   6.669   6.053   3.956  0.0344 -0.4223  0.0054
20669SOL    HW162585   6.706   6.002   3.884  0.0080 -0.2776 -0.1117
20669SOL    HW262586   6.727   6.036   4.030 -0.0747 -0.7587  0.0131
20670SOL     OW62587   5.693   1.978   6.094  0.4456  0.6654  0.0829
20670SOL    HW162588   5.695   1.905   6.156 -1.9593  1.6397  1.4347
20670SOL    HW262589   5.639   1.946   6.022  3.1668 -0.4352 -1.6297
20671SOL     OW62590   0.606   7.327   7.883  0.1226 -0.1785  0.2000
20671SOL    HW162591   0.552   7.321   7.804 -0.9628 -3.4668  1.0649
20671SOL    HW262592   0.690   7.289   7.857  1.0657  2.0603 -0.2694
20672SOL     OW62593   2.116   8.805   6.806  0.4973  0.5413  0.5184
20672SOL    HW162594   2.189   8.855   6.771  1.2452 -0.2329  0.9193
20672SOL    HW262595   2.038   8.856   6.784  1.2113  1.7680  0.7462
20673SOL     OW62596   2.878   2.302   4.255  0.4073  0.5459 -0.3544
20673SOL    HW162597   2.961   2.296   4.207  0.1848 -2.7138 -0.5808
20673SOL    HW262598   2.811   2.290   4.188 -0.0485 -0.5678  0.2672
20674SOL     OW62599   6.462   1.102   6.925  0.2059 -0.5532  0.0992
20674SOL    HW162600   6.497   1.082   7.012 -1.0683 -0.3830  0.6674
20674SOL    HW262601   6.407   1.027   6.904 -0.5945  0.0367  0.0515
20675SOL     OW62602   0.739   7.083   9.084 -0.3160  0.1332 -0.1878
20675SOL    HW162603   0.706   7.018   9.021 -0.7581  0.2490 -0.0779
20675SOL    HW262604   0.730   7.040   9.169  1.3464 -0.4785 -0.2730
20676SOL     OW62605   8.065   5.845   8.862 -0.5907  0.5738 -0.0567
20676SOL    HW162606   7.995   5.781   8.862 -1.8961  1.9419 -0.7183
20676SOL    HW262607   8.138   5.800   8.820 -1.9412 -0.0111 -1.8966
20677SOL     OW62608   6.347   2.060   7.072 -0.1669 -0.4823  0.2739
20677SOL    HW162609   6.272   2.035   7.018  0.4822 -1.8084 -0.0476
20677SOL    HW262610   6.354   1.991   7.137 -0.2365  0.5157  1.3722
20678SOL     OW62611   8.673   7.058   8.513  0.2397 -0.4962  0.3045
20678SOL    HW162612   8.723   7.031   8.590  0.3871 -0.7419  0.1260
20678SOL    HW262613   8.632   7.141   8.538  0.4813 -0.4530  0.5635
20679SOL     OW62614   5.328   3.347   5.171 -0.1900  0.3068  0.0353
20679SOL    HW162615   5.243   3.378   5.202 -0.1004  0.3187  0.2732
20679SOL    HW262616   5.336   3.382   5.083  0.8052  2.7593  0.9979
20680SOL     OW62617   3.850   4.700   6.855  0.0680  0.0780  0.1980
20680SOL    HW162618   3.764   4.664   6.836 -0.5676  1.7518 -0.2299
20680SOL    HW262619   3.864   4.768   6.790  0.8694  1.1647  1.4394
20681SOL     OW62620   7.238   3.488   5.400 -0.2869 -0.1839  0.5661
20681SOL    HW162621   7.193   3.572   5.402  0.2191  0.0821  0.8841
20681SOL    HW262622   7.225   3.452   5.487 -1.8282 -1.1559 -0.0222
20682SOL     OW62623   3.999   9.102   3.830  0.9855 -0.6491  0.2952
20682SOL    HW162624   3.984   9.194   3.851  0.4170 -0.9189  1.1167
20682SOL    HW262625   3.953   9.088   3.748  1.0470 -0.2098  0.1844
20683SOL     OW62626   3.103   2.376   2.518 -0.4353  0.2178  0.2904
20683SOL    HW162627   3.198   2.367   2.508 -0.4127 -0.9633  1.2718
20683SOL    HW262628   3.091   2.465   2.551  0.4910 -0.1616  1.7446
20684SOL     OW62629   8.116   2.542   7.422  0.0671  0.2770  0.5271
20684SOL    HW162630   8.026   2.518   7.446  0.5927  0.4769  3.0457
20684SOL    HW262631   8.170   2.470   7.455  0.8319 -0.1788 -1.5670
20685SOL     OW62632   8.756   1.773   6.736  0.2222 -0.2314 -0.1238
20685SOL    HW162633   8.817   1.766   6.810  1.0665 -1.2131 -0.8816
20685SOL    HW262634   8.680   1.819   6.772  0.5507 -0.7965  1.3960
20686SOL     OW62635   7.107   2.393   3.627  0.1345  0.1975  0.3364
20686SOL    HW162636   7.031   2.447   3.650  0.5703  1.1719 -0.4258
20686SOL    HW262637   7.074   2.303   3.626 -1.8751  0.8010 -3.1101
20687SOL     OW62638   3.571   5.842   2.697  0.3297 -0.2014  0.4478
20687SOL    HW162639   3.660   5.855   2.732  0.9479 -0.4094 -0.9842
20687SOL    HW262640   3.554   5.921   2.646  0.8062 -1.2764 -1.4938
20688SOL     OW62641   1.594   1.753   7.590 -0.1007  0.3390  0.5905
20688SOL    HW162642   1.522   1.808   7.560 -0.8169  0.1457  1.8640
20688SOL    HW262643   1.552   1.688   7.647  1.1023  0.3131  1.4783
20689SOL     OW62644   4.227   3.220   6.251 -0.3584  0.6360  0.4776
20689SOL    HW162645   4.199   3.231   6.160 -0.1889  1.0705  0.4759
20689SOL    HW262646   4.154   3.252   6.303 -0.1064  1.2409  0.4785
20690SOL     OW62647   1.837   5.337   7.810 -0.5326 -0.1222  0.0129
20690SOL    HW162648   1.750   5.298   7.826 -0.2704 -1.1283 -0.8720
20690SOL    HW262649   1.879   5.275   7.750  1.1957 -0.1887  1.2450
20691SOL     OW62650   6.196   6.712   9.338  0.1650 -0.2871  0.1483
20691SOL    HW162651   6.124   6.767   9.370 -1.0481 -1.0956 -1.0719
20691SOL    HW262652   6.209   6.739   9.247  1.7012  0.1108  0.4573
20692SOL     OW62653   0.614   7.308   6.566  0.3405  0.2354 -0.0773
20692SOL    HW162654   0.701   7.337   6.539  0.5160 -0.4368 -0.2722
20692SOL    HW262655   0.631   7.247   6.638  0.2957 -2.3313 -2.0738
20693SOL     OW62656   8.611   9.589   4.972  0.0065  0.2422 -0.7454
20693SOL    HW162657   8.644   9.505   5.007  0.3318 -0.8855 -3.4860
20693SOL    HW262658   8.516   9.579   4.972 -0.0852  0.7788  0.8747
20694SOL     OW62659   5.668   4.449   6.985 -0.7279 -0.2595 -0.2870
20694SOL    HW162660   5.664   4.522   6.923 -0.3426 -1.3940 -1.7040
20694SOL    HW262661   5.597   4.467   7.047 -1.1281  0.9164 -1.0489
20695SOL     OW62662   6.908   5.978   6.019  0.7137 -0.0042 -0.5698
20695SOL    HW162663   6.822   5.969   6.060  1.5082  0.8316  1.4380
20695SOL    HW262664   6.891   5.975   5.925 -1.3916 -0.6942 -0.2168
20696SOL     OW62665   2.275   8.890   2.265  0.4562 -0.0010 -0.3789
20696SOL    HW162666   2.363   8.913   2.237  0.5113 -0.1361 -0.3166
20696SOL    HW262667   2.221   8.965   2.241  0.7758  0.5328  0.5498
20697SOL     OW62668   4.211   2.430   9.380  0.4015  0.1082  0.2865
20697SOL    HW162669   4.253   2.515   9.369 -0.4887  0.5919  0.5132
20697SOL    HW262670   4.151   2.442   9.454 -0.0026 -0.6067  0.0907
20698SOL     OW62671   8.862   1.737   0.581  0.1144 -0.0988 -0.8200
20698SOL    HW162672   8.895   1.806   0.524  0.6970  0.4790  0.1882
20698SOL    HW262673   8.772   1.763   0.602  0.2271  0.1853 -0.6951
20699SOL     OW62674   8.081   3.856   6.667  0.2915  0.0663 -0.2523
20699SOL    HW162675   8.097   3.769   6.704 -2.0380 -0.1210  0.4655
20699SOL    HW262676   8.125   3.916   6.727  1.0661 -0.5461 -0.1944
20700SOL     OW62677   8.959   7.457   5.618 -0.2612 -0.1886 -0.4189
20700SOL    HW162678   9.031   7.427   5.675 -0.8798  0.5928  0.8241
20700SOL    HW262679   8.906   7.379   5.604  0.2402 -0.5350 -0.4476
20701SOL     OW62680   3.672   7.745   4.767 -0.0306  0.2336 -0.3202
20701SOL    HW162681   3.631   7.816   4.817  0.1349 -0.4825  0.8758
20701SOL    HW262682   3.765   7.768   4.764  0.1790 -0.3915  0.9047
20702SOL     OW62683   1.825   8.691   3.289 -0.2993  0.0386  0.3095
20702SOL    HW162684   1.839   8.701   3.384  2.5049  0.9676 -0.1167
20702SOL    HW262685   1.806   8.598   3.278  0.1991 -0.2604  1.7037
20703SOL     OW62686   9.564   4.222   0.982 -0.0947  0.0805 -0.2213
20703SOL    HW162687   9.626   4.196   1.050  0.0846  0.5388 -0.2053
20703SOL    HW262688   9.602   4.301   0.944 -0.1206 -0.2496 -0.9505
20704SOL     OW62689   9.650   2.253   3.571 -0.0681 -0.4387  0.1304
20704SOL    HW162690   9.710   2.325   3.592  0.5131 -0.3835 -1.5734
20704SOL    HW262691   9.565   2.283   3.603  0.4597  0.3283  0.8551
20705SOL     OW62692   3.091   2.458   4.440 -0.2729 -0.2529 -0.2279
20705SOL    HW162693   3.149   2.480   4.513  0.3052  0.0203 -0.7613
20705SOL    HW262694   3.009   2.502   4.461 -0.1058 -0.1603  0.2519
20706SOL     OW62695   0.500   8.694   0.471  0.1413  0.3995 -0.1337
20706SOL    HW162696   0.518   8.609   0.511  1.1059  1.3169  1.5014
20706SOL    HW262697   0.577   8.711   0.416  0.6550  0.8471  0.7032
20707SOL     OW62698   2.235   7.743   7.848 -0.1134  0.1901 -0.4271
20707SOL    HW162699   2.269   7.691   7.922  1.0259  0.7924 -0.5099
20707SOL    HW262700   2.313   7.782   7.808 -0.7066 -0.1471 -1.9821
20708SOL     OW62701   7.082   1.277   0.867 -0.4051  0.0400  0.1543
20708SOL    HW162702   7.008   1.338   0.867 -1.2236 -0.9127 -0.7977
20708SOL    HW262703   7.043   1.191   0.849  1.1513 -0.1451 -3.1718
20709SOL     OW62704   4.751   0.905   4.877  0.0740  0.4653  0.4002
20709SOL    HW162705   4.715   0.854   4.949 -1.0208  0.4340 -0.1472
20709SOL    HW262706   4.817   0.849   4.838  1.1557  0.7345  1.7593
20710SOL     OW62707   8.471   0.536   5.877  0.1651 -0.1254  0.4690
20710SOL    HW162708   8.444   0.465   5.935 -1.2159 -0.5236 -0.5862
20710SOL    HW262709   8.556   0.564   5.910  0.6098 -2.0755  1.1028
20711SOL     OW62710   4.544   3.526   3.818 -0.6396 -0.0253 -0.4162
20711SOL    HW162711   4.524   3.562   3.732 -0.0296  0.2797 -0.4415
20711SOL    HW262712   4.639   3.534   3.825 -0.3680 -2.3937 -0.7477
20712SOL     OW62713   5.791   2.953   5.729  0.3740  0.6854 -0.2759
20712SOL    HW162714   5.722   2.911   5.780 -0.2104  1.5972 -0.2840
20712SOL    HW262715   5.813   3.031   5.780  0.5253  1.0499 -0.8891
20713SOL     OW62716   3.496   9.089   5.759 -0.7860 -0.5255 -0.0942
20713SOL    HW162717   3.452   9.147   5.697 -0.2758 -1.3778 -1.2865
20713SOL    HW262718   3.493   9.137   5.842  1.6042  2.2737 -1.4405
20714SOL     OW62719   4.207   5.998   2.057  0.3793  0.1407 -0.7134
20714SOL    HW162720   4.216   6.026   2.149  2.1776  1.4443 -1.2225
20714SOL    HW262721   4.149   6.064   2.018  0.9648  0.5688 -0.8759
20715SOL     OW62722   5.620   3.465   5.200  0.3776 -0.1512 -0.0722
20715SOL    HW162723   5.525   3.461   5.201  0.1806  2.4888  0.0281
20715SOL    HW262724   5.648   3.393   5.256 -1.6628  0.2813  1.6225
20716SOL     OW62725   8.814   1.800   3.133 -0.3170 -0.2433 -0.0581
20716SOL    HW162726   8.877   1.850   3.186 -0.5468 -0.0505  0.0371
20716SOL    HW262727   8.858   1.716   3.116  0.1600  0.0680 -0.3977
20717SOL     OW62728   1.863   6.420   0.133 -0.0937  0.1403 -0.4738
20717SOL    HW162729   1.943   6.425   0.185  0.2379 -0.4003 -0.9141
20717SOL    HW262730   1.819   6.341   0.164  0.7462 -0.9303 -1.8720
20718SOL     OW62731   4.896   4.456   9.247 -0.1276  0.1144 -0.1999
20718SOL    HW162732   4.913   4.369   9.283  0.6253 -0.1948 -1.2542
20718SOL    HW262733   4.964   4.468   9.181 -0.9327  1.0330 -0.8815
20719SOL     OW62734   2.426   8.724   1.553  0.2759 -0.4523 -0.1726
20719SOL    HW162735   2.358   8.746   1.489  0.8638 -0.6655 -0.8823
20719SOL    HW262736   2.386   8.745   1.637 -0.0800  1.0132 -0.6676
20720SOL     OW62737   9.392   3.229   3.889  0.3680  0.6162 -0.3902
20720SOL    HW162738   9.334   3.287   3.939 -1.4434 -1.8211  0.5725
20720SOL    HW262739   9.366   3.242   3.798  0.3210  1.6307 -0.2464
20721SOL     OW62740   7.574   6.442   0.997  0.5678 -0.0829  0.0391
20721SOL    HW162741   7.590   6.375   0.931  1.5558  0.3683 -0.1962
20721SOL    HW262742   7.560   6.523   0.947  2.9137  0.6070  0.3343
20722SOL     OW62743   5.430   6.227   0.932 -0.5543  0.1109  0.4397
20722SOL    HW162744   5.419   6.259   0.842 -1.3186 -0.2539  0.3907
20722SOL    HW262745   5.524   6.229   0.947 -0.5229  1.6080  0.1653
20723SOL     OW62746   3.385   8.985   1.997 -0.2369  0.1023  0.2946
20723SOL    HW162747   3.308   8.993   2.054 -0.3248 -1.8620  0.4994
20723SOL    HW262748   3.459   8.978   2.057 -0.2475 -1.1816  0.1735
20724SOL     OW62749   3.339   0.493   9.559  0.0362  0.2670  0.5373
20724SOL    HW162750   3.258   0.539   9.538 -0.8068 -1.3568  0.0039
20724SOL    HW262751   3.399   0.516   9.487 -0.4496  0.3358  0.1479
20725SOL     OW62752   6.231   0.069   0.336 -0.1849  0.3200 -0.2452
20725SOL    HW162753   6.238   0.069   0.431 -1.2782  1.5638 -0.1327
20725SOL    HW262754   6.305   0.121   0.306  0.7921 -0.9747 -0.1713
20726SOL     OW62755   4.906   7.588   4.367 -0.5768  0.5496 -0.6234
20726SOL    HW162756   4.984   7.551   4.325 -0.6693  0.1395 -0.4466
20726SOL    HW262757   4.888   7.668   4.318 -0.0926  0.6051 -0.7190
20727SOL     OW62758   4.358   2.398   9.120 -0.0146  0.1230  0.3069
20727SOL    HW162759   4.325   2.407   9.209 -0.1132 -0.8676  0.3882
20727SOL    HW262760   4.311   2.323   9.084 -1.1968  1.5009 -1.1720
20728SOL     OW62761   5.947   3.741   8.287 -0.0032 -0.2882  0.0733
20728SOL    HW162762   5.897   3.794   8.349  1.1334  0.5059  0.3403
20728SOL    HW262763   5.893   3.738   8.209 -0.3525  0.7666  0.2628
20729SOL     OW62764   5.319   0.195   9.846 -0.3941  0.4069  0.3216
20729SOL    HW162765   5.394   0.247   9.874  0.1300 -0.6491  0.9598
20729SOL    HW262766   5.270   0.253   9.788 -0.5112  2.0515  1.9555
20730SOL     OW62767   8.794   4.577   0.258 -0.1455 -0.3372 -0.0629
20730SOL    HW162768   8.836   4.497   0.289 -1.6060 -0.6590  1.2217
20730SOL    HW262769   8.814   4.642   0.326 -1.0889 -0.3021  0.1852
20731SOL     OW62770   9.730   3.779  10.006  0.7644 -0.0650  0.3193
20731SOL    HW162771   9.690   3.863   9.983 -0.3959 -0.3624  1.1468
20731SOL    HW262772   9.677   3.714   9.959  2.2984 -0.3108 -1.1658
20732SOL     OW62773   1.359   4.933   7.521 -0.3475 -0.1071 -0.3744
20732SOL    HW162774   1.429   4.902   7.463 -0.7573 -0.6814 -0.5735
20732SOL    HW262775   1.318   5.004   7.472 -0.0359  0.0952 -0.3455
20733SOL     OW62776   9.624   6.825   1.765 -0.1252  0.5395  0.3469
20733SOL    HW162777   9.542   6.831   1.815 -0.6991 -0.7589 -0.4018
20733SOL    HW262778   9.627   6.906   1.714 -1.8497 -0.1414 -0.9268
20734SOL     OW62779   6.933   3.787   1.059 -0.0414  0.0978  0.0644
20734SOL    HW162780   6.950   3.708   1.009 -0.6467 -1.1288  1.7343
20734SOL    HW262781   7.006   3.795   1.120  0.3878  1.2553 -0.5593
20735SOL     OW62782   0.280   0.107   5.020  0.4631  0.4207  0.1536
20735SOL    HW162783   0.280   0.181   4.960  1.9536 -1.1214 -1.8788
20735SOL    HW262784   0.328   0.139   5.097 -3.1173  3.0611  1.6369
20736SOL     OW62785   2.602   2.012   4.154  0.4587 -0.0131  0.2990
20736SOL    HW162786   2.606   2.055   4.240 -2.1640 -0.8542  0.9163
20736SOL    HW262787   2.553   2.072   4.099  1.3734  0.1159 -0.4105
20737SOL     OW62788   5.077   3.450   2.771  0.0702 -0.1876  0.4950
20737SOL    HW162789   5.053   3.395   2.696  1.9973  1.4496 -1.4633
20737SOL    HW262790   5.037   3.535   2.752  4.0077  1.5631 -1.0966
20738SOL     OW62791   6.509   6.728   6.613  0.5037 -0.0778 -0.2660
20738SOL    HW162792   6.422   6.711   6.577 -0.3409  1.9247  0.6668
20738SOL    HW262793   6.549   6.790   6.552  1.5245 -1.4154 -0.9900
20739SOL     OW62794   5.528   6.841   1.053 -0.0009  0.7629 -0.2430
20739SOL    HW162795   5.565   6.870   0.970  1.8411  3.3194  1.3559
20739SOL    HW262796   5.603   6.815   1.106 -0.9132  1.3595  1.4073
20740SOL     OW62797   2.641   1.602   6.500  0.6446 -0.7967  0.2174
20740SOL    HW162798   2.565   1.569   6.451 -0.1351 -0.5648  1.2409
20740SOL    HW262799   2.714   1.549   6.468  0.5057  0.4058 -2.3733
20741SOL     OW62800   5.901   0.187   2.690 -0.0245  0.2631 -0.6679
20741SOL    HW162801   5.905   0.092   2.682 -1.1526  0.0887  0.4230
20741SOL    HW262802   5.857   0.216   2.610 -0.7398 -0.2573 -0.4719
20742SOL     OW62803   4.281   5.364   5.635  0.2552 -0.7010  0.5495
20742SOL    HW162804   4.212   5.380   5.571  0.2574 -0.8210  0.5165
20742SOL    HW262805   4.358   5.343   5.582  1.1265  2.2889  0.4394
20743SOL     OW62806   6.337   8.215   9.151  0.0196 -0.4524 -0.3415
20743SOL    HW162807   6.347   8.301   9.192 -0.6212 -1.2208  1.5561
20743SOL    HW262808   6.405   8.161   9.193 -1.2241 -1.4934  0.4208
20744SOL     OW62809   9.333   1.149   8.256  0.2467  0.3393 -0.5391
20744SOL    HW162810   9.405   1.102   8.212  0.1032  0.9081 -1.4098
20744SOL    HW262811   9.359   1.152   8.348  0.7688 -0.5070 -0.6458
20745SOL     OW62812   3.008   4.868   8.828 -0.1781 -0.3068  0.3119
20745SOL    HW162813   2.923   4.825   8.821 -1.2163  1.6131  0.3025
20745SOL    HW262814   3.049   4.828   8.905 -1.6880 -0.3308  1.1512
20746SOL     OW62815   1.802   7.676   7.970 -0.2933  0.2205  0.3388
20746SOL    HW162816   1.893   7.673   7.938 -0.5644  2.4754 -0.8453
20746SOL    HW262817   1.806   7.637   8.057  1.8268  0.2700  0.3155
20747SOL     OW62818   8.996   5.913   6.198  0.1342 -0.8031 -1.0905
20747SOL    HW162819   9.081   5.871   6.204  0.3901 -0.0640  2.5154
20747SOL    HW262820   9.007   5.981   6.131  2.4592 -0.5810 -0.5386
20748SOL     OW62821   4.886   2.081   6.662 -0.1880 -0.0725 -0.1031
20748SOL    HW162822   4.933   2.030   6.727  0.6262  0.4416 -0.2686
20748SOL    HW262823   4.918   2.048   6.578  0.8258  1.0964 -0.2122
20749SOL     OW62824   3.202   9.106   9.077 -0.1418 -0.0203  0.2618
20749SOL    HW162825   3.278   9.137   9.126 -1.9196  1.0891  2.5173
20749SOL    HW262826   3.200   9.161   8.999  0.7892  0.6668  0.7005
20750SOL     OW62827   9.999   7.386   2.811  0.0510 -0.0339  0.6411
20750SOL    HW162828   9.919   7.435   2.824 -0.0776  0.2515 -1.0323
20750SOL    HW262829   9.976   7.295   2.833 -0.1187  0.3777  2.2523
20751SOL     OW62830   0.230   8.420   1.277  0.3169  0.3611 -0.0550
20751SOL    HW162831   0.169   8.469   1.332 -0.8869 -2.2422  1.1197
20751SOL    HW262832   0.306   8.405   1.333  0.5204  0.5394 -0.2804
20752SOL     OW62833   3.865   1.783   4.941  0.0953  0.1129  0.1260
20752SOL    HW162834   3.847   1.719   5.010  0.4059  0.8154  0.8678
20752SOL    HW262835   3.906   1.857   4.986 -0.4517  0.9342 -0.6755
20753SOL     OW62836   4.111   3.599   7.303 -0.5347  0.9961 -0.6424
20753SOL    HW162837   4.140   3.580   7.392  0.7909  1.4513 -0.9554
20753SOL    HW262838   4.106   3.514   7.260 -0.4338  0.8411 -0.3508
20754SOL     OW62839   6.488   1.973   5.254 -0.7558  0.0504  0.6747
20754SOL    HW162840   6.455   1.917   5.324  0.9212 -1.9041 -0.0081
20754SOL    HW262841   6.526   2.049   5.299 -1.0421 -0.4380  1.7628
20755SOL     OW62842   6.091   0.551   6.195 -0.4812  0.2505 -0.1921
20755SOL    HW162843   5.996   0.542   6.186 -0.3011 -0.6282 -1.4297
20755SOL    HW262844   6.115   0.487   6.261 -0.8421  1.1824  0.8936
20756SOL     OW62845   0.417   5.231   3.768 -0.1470  0.3233 -0.3774
20756SOL    HW162846   0.478   5.233   3.695  0.8539  1.3757  0.4416
20756SOL    HW262847   0.417   5.140   3.797  2.5549  0.5876  0.7786
20757SOL     OW62848   3.075   0.833   0.186 -0.3010  0.4501 -0.2006
20757SOL    HW162849   3.063   0.775   0.261  1.0868  0.7073  0.2504
20757SOL    HW262850   3.085   0.774   0.112 -1.7541  0.1953 -0.2175
20758SOL     OW62851   5.155   8.585   2.629  0.9175 -0.4534 -0.3151
20758SOL    HW162852   5.063   8.591   2.603  1.1180 -0.6879 -1.0954
20758SOL    HW262853   5.201   8.645   2.570  1.2056  0.0793  0.4274
20759SOL     OW62854   3.470   7.472   3.940 -0.5282  0.4007  0.4998
20759SOL    HW162855   3.554   7.461   3.897  0.0135 -0.2056  1.6529
20759SOL    HW262856   3.412   7.411   3.896  0.1444 -0.5755  0.9319
20760SOL     OW62857   8.440   1.397   9.208  0.0780 -0.4643  0.0616
20760SOL    HW162858   8.463   1.442   9.289 -1.1007  0.6724 -0.1966
20760SOL    HW262859   8.448   1.304   9.229  2.3510 -0.1698  0.6764
20761SOL     OW62860   8.077   6.873   1.093 -0.6841  0.0875 -0.2465
20761SOL    HW162861   8.128   6.940   1.048  0.4177 -0.5039  0.0797
20761SOL    HW262862   7.992   6.874   1.050 -0.1066  0.4924 -1.4108
20762SOL     OW62863   6.782   7.556   8.876 -0.0238  0.2751  0.4723
20762SOL    HW162864   6.695   7.579   8.909  0.7699  0.6493  2.4544
20762SOL    HW262865   6.765   7.498   8.802 -1.9970 -1.7890  2.3530
20763SOL     OW62866   3.004   0.907   9.358 -0.9165  0.3636  0.2872
20763SOL    HW162867   2.990   0.901   9.264 -0.0438 -0.0445  0.1767
20763SOL    HW262868   3.031   0.998   9.372  2.3539 -0.3972 -0.3647
20764SOL     OW62869   1.520   5.255   5.862  0.1066 -0.1943  0.3664
20764SOL    HW162870   1.523   5.294   5.774  0.7631 -0.2002  0.3772
20764SOL    HW262871   1.432   5.219   5.870  0.0446 -0.2010 -0.2994
20765SOL     OW62872   4.000   6.915   5.804  0.0798  0.6729  0.3128
20765SOL    HW162873   4.051   6.853   5.752 -1.2519 -0.3319  0.1724
20765SOL    HW262874   3.981   6.987   5.743 -0.4182  0.0783 -0.2575
20766SOL     OW62875   2.086   2.839   2.570 -0.3283 -0.1899 -0.0537
20766SOL    HW162876   2.029   2.830   2.647 -0.6254  2.4712  0.1409
20766SOL    HW262877   2.025   2.848   2.497 -0.1448  0.8983 -0.0856
20767SOL     OW62878   7.153   0.798   9.304 -0.3110 -0.2996  0.3558
20767SOL    HW162879   7.148   0.720   9.360  1.0362  1.3778  2.9896
20767SOL    HW262880   7.066   0.838   9.310 -0.0408  0.1224  1.7134
20768SOL     OW62881   9.631   9.950   5.136 -0.4345 -0.1658  0.2382
20768SOL    HW162882   9.594  10.037   5.123 -0.7421  0.0649  2.2515
20768SOL    HW262883   9.560   9.890   5.118 -0.6721  0.0896  0.3178
20769SOL     OW62884   8.935   9.402   7.317 -0.3673  0.6370 -0.6309
20769SOL    HW162885   8.980   9.362   7.391 -1.5648 -1.3778 -0.9248
20769SOL    HW262886   9.005   9.439   7.263  0.5847  1.2634  0.9747
20770SOL     OW62887   1.822   2.960   7.756  0.7372 -0.3033 -0.0788
20770SOL    HW162888   1.881   2.909   7.812  1.4550 -0.2487 -0.7742
20770SOL    HW262889   1.743   2.971   7.809  2.3028  1.9674  2.0225
20771SOL     OW62890   5.839   0.268   5.569  0.4552  0.5405 -0.3399
20771SOL    HW162891   5.924   0.308   5.552  1.7054 -1.6393  0.4414
20771SOL    HW262892   5.814   0.228   5.486  1.5452 -1.1604  0.1206
20772SOL     OW62893   6.093   8.499   1.704  0.6636 -0.0901 -0.3498
20772SOL    HW162894   6.020   8.491   1.642  0.1605 -0.8486  0.3359
20772SOL    HW262895   6.159   8.438   1.671  0.7663  0.1785 -0.6487
20773SOL     OW62896   0.440   1.283   5.922  0.1266  0.7650 -0.0855
20773SOL    HW162897   0.459   1.283   6.016 -0.1981 -0.9945  0.0151
20773SOL    HW262898   0.438   1.190   5.898 -0.5072  1.1631 -1.6924
20774SOL     OW62899   0.136   3.376   5.004 -0.5464  0.1286 -0.0726
20774SOL    HW162900   0.228   3.391   4.983 -0.7423  1.3292 -0.1921
20774SOL    HW262901   0.129   3.394   5.098 -0.6544  0.0777 -0.0705
20775SOL     OW62902   6.493   5.252   2.674 -0.4630  0.1392  0.1081
20775SOL    HW162903   6.521   5.293   2.755 -1.4052  1.5916 -0.2640
20775SOL    HW262904   6.558   5.279   2.609  0.6287 -1.5070  0.4450
20776SOL     OW62905   8.575   0.684   3.542 -0.5203  0.0864  0.0873
20776SOL    HW162906   8.493   0.692   3.493 -0.5179 -2.6473 -0.5143
20776SOL    HW262907   8.557   0.618   3.609  0.7810  0.5336  0.9199
20777SOL     OW62908   5.109   0.494   6.321  0.1121 -0.5209 -0.7126
20777SOL    HW162909   5.138   0.428   6.384  0.9483 -0.9114 -1.4784
20777SOL    HW262910   5.058   0.556   6.373  2.5482  0.3631  0.8362
20778SOL     OW62911   3.988   4.424   7.875  1.2528 -0.0638 -1.0960
20778SOL    HW162912   3.932   4.357   7.837  0.0296  1.2676 -1.7251
20778SOL    HW262913   4.050   4.375   7.930 -0.7506 -1.5578 -0.0586
20779SOL     OW62914   5.760   4.056   9.185 -0.4447 -0.2407  0.3556
20779SOL    HW162915   5.672   4.085   9.208 -0.6342 -1.6928  1.6695
20779SOL    HW262916   5.801   4.035   9.269  1.1518  0.3506 -0.2387
20780SOL     OW62917   0.674   9.738   2.553  0.0974  0.5466  0.2445
20780SOL    HW162918   0.652   9.706   2.640 -1.4502  0.3757 -0.1749
20780SOL    HW262919   0.766   9.763   2.559  0.1360  0.1394  1.7972
20781SOL     OW62920   4.215   6.213   1.395  0.0937 -0.2795 -0.4101
20781SOL    HW162921   4.235   6.287   1.452 -0.9548 -1.0035  0.9701
20781SOL    HW262922   4.119   6.209   1.393  0.1293 -1.5568 -0.4930
20782SOL     OW62923   1.632   0.940   6.143  0.4310 -0.5362  0.0322
20782SOL    HW162924   1.617   1.030   6.171  1.1324 -0.5845  0.5899
20782SOL    HW262925   1.563   0.923   6.079  0.6076  0.5706 -0.4757
20783SOL     OW62926   2.076   1.799   2.039 -0.3769  0.6431  0.0159
20783SOL    HW162927   2.109   1.869   1.983  1.2857 -0.4586 -0.4839
20783SOL    HW262928   1.993   1.774   1.999  0.4054  0.4022 -1.5574
20784SOL     OW62929   4.974   1.201   6.144  0.5940 -0.0017 -0.1083
20784SOL    HW162930   5.017   1.173   6.063  0.9108  2.2618 -0.8011
20784SOL    HW262931   5.012   1.287   6.162 -0.8792  0.3800  1.3922
20785SOL     OW62932   7.104   6.509   1.488  0.5117 -0.3221 -0.3953
20785SOL    HW162933   7.066   6.591   1.520 -0.1738 -0.6824 -0.2716
20785SOL    HW262934   7.030   6.449   1.481  1.1435 -1.2307  0.4092
20786SOL     OW62935   6.632   6.228   0.944 -0.4031  0.5206  0.3661
20786SOL    HW162936   6.683   6.183   1.011  2.8313 -1.5734 -3.1814
20786SOL    HW262937   6.541   6.206   0.965  0.5637 -1.4482  3.0227
20787SOL     OW62938   9.438   0.705   8.956  0.2731 -0.0485 -0.4282
20787SOL    HW162939   9.420   0.727   9.047 -2.1451  1.5292 -1.2006
20787SOL    HW262940   9.480   0.619   8.960 -0.4457 -0.3560  2.1202
20788SOL     OW62941   0.995   1.218   8.335 -0.0297  0.0280  0.3798
20788SOL    HW162942   0.990   1.313   8.340 -1.0450  0.1382 -1.5443
20788SOL    HW262943   1.040   1.201   8.252 -0.8433 -1.1496  0.1546
20789SOL     OW62944   7.603   5.153   2.881  0.0032  0.2822 -0.3963
20789SOL    HW162945   7.629   5.188   2.966  0.9538  0.1607 -0.6267
20789SOL    HW262946   7.622   5.059   2.887 -1.3136  0.0062 -0.2349
20790SOL     OW62947   0.161   6.477   0.993  0.0912 -0.1267 -0.5791
20790SOL    HW162948   0.251   6.505   1.008 -0.6089  1.5131  0.8902
20790SOL    HW262949   0.152   6.396   1.043  0.5704  0.0324 -0.2287
20791SOL     OW62950   2.310   8.442   3.416  0.2597 -0.0729  0.3660
20791SOL    HW162951   2.309   8.537   3.410  4.0471  0.1858  1.5850
20791SOL    HW262952   2.327   8.413   3.327 -2.2517  0.2091 -0.2791
20792SOL     OW62953   6.995   8.688   0.514  0.0933 -0.0430  0.3416
20792SOL    HW162954   7.007   8.685   0.419 -1.1828  1.0386  0.0938
20792SOL    HW262955   7.079   8.716   0.548  0.8874 -1.5031 -0.3648
20793SOL     OW62956   2.491   8.732   4.230 -0.1685  0.2458  0.0920
20793SOL    HW162957   2.502   8.773   4.144  0.4373 -2.1230 -1.0527
20793SOL    HW262958   2.555   8.777   4.286  0.5727  0.7446 -1.1179
20794SOL     OW62959   1.719   0.680   0.863 -0.0931  0.7175  0.1251
20794SOL    HW162960   1.700   0.712   0.951 -1.2826  1.1190 -0.2581
20794SOL    HW262961   1.677   0.743   0.805  1.5836  1.0692 -0.7813
20795SOL     OW62962   8.677   8.588   8.430  0.1340 -0.3296 -0.1089
20795SOL    HW162963   8.634   8.505   8.450 -0.3405 -0.1456 -0.3561
20795SOL    HW262964   8.669   8.597   8.335  1.4399 -0.6901 -0.2715
20796SOL     OW62965   0.141   4.508   1.006  0.1157  0.2547  0.2634
20796SOL    HW162966   0.083   4.567   1.055 -1.3442  0.7589 -1.9055
20796SOL    HW262967   0.195   4.567   0.953 -2.0015 -0.2199 -2.6330
20797SOL     OW62968   3.478   4.241   5.100 -0.1326 -0.0126 -0.2186
20797SOL    HW162969   3.435   4.198   5.026 -1.0353  2.0635 -0.9729
20797SOL    HW262970   3.571   4.236   5.080 -0.2511 -1.1060 -0.5446
20798SOL     OW62971   0.988   0.272   5.857  0.0508  0.0395  0.4531
20798SOL    HW162972   1.001   0.292   5.764 -0.7100  1.0550  0.5414
20798SOL    HW262973   0.937   0.191   5.858 -0.0623  0.1035 -0.0184
20799SOL     OW62974   8.410   3.661   1.864  0.1406  0.4971  0.4006
20799SOL    HW162975   8.467   3.737   1.850 -1.8835  2.0244  0.0133
20799SOL    HW262976   8.425   3.637   1.955  0.2896  1.8570  0.7671
20800SOL     OW62977   2.278   0.333   2.098 -0.0077  0.2099 -0.5551
20800SOL    HW162978   2.307   0.242   2.100 -1.6384 -0.3375  0.0283
20800SOL    HW262979   2.220   0.341   2.174  0.4632  1.8802 -0.3169
20801SOL     OW62980   7.273   6.795   8.129 -0.2653 -0.3741 -0.4118
20801SOL    HW162981   7.336   6.861   8.158  0.2907 -1.5247  1.1385
20801SOL    HW262982   7.276   6.799   8.034 -0.3749  1.9171 -0.3751
20802SOL     OW62983   5.898   8.619   8.836 -0.1333 -0.1291  0.3434
20802SOL    HW162984   5.982   8.652   8.868 -0.2979  1.4261 -0.7479
20802SOL    HW262985   5.921   8.570   8.756 -0.0263 -1.8088  1.3450
20803SOL     OW62986   9.771   3.323   8.029  0.5672  0.3088  0.5631
20803SOL    HW162987   9.689   3.327   7.980 -0.1005 -2.7004  1.2434
20803SOL    HW262988   9.763   3.391   8.095  0.0006  2.1146 -1.2779
20804SOL     OW62989   5.749   2.886   0.600 -0.7913 -0.0460  0.6546
20804SOL    HW162990   5.755   2.936   0.519 -1.0772  0.0178  0.6735
20804SOL    HW262991   5.804   2.809   0.584 -0.0812  0.4275  0.7437
20805SOL     OW62992   1.266   4.420   5.306  0.1799  0.7639  0.0515
20805SOL    HW162993   1.177   4.419   5.343 -0.5226  0.7066 -1.5706
20805SOL    HW262994   1.316   4.362   5.363 -0.8582  0.6695  0.9081
20806SOL     OW62995   2.748   2.038   0.390 -0.1468  0.1395 -0.3445
20806SOL    HW162996   2.811   2.109   0.401  0.0846 -0.3833  2.3648
20806SOL    HW262997   2.800   1.958   0.394 -0.4036 -0.2834 -3.3875
20807SOL     OW62998   1.145   3.307   5.487 -0.0616 -0.5870 -0.4672
20807SOL    HW162999   1.118   3.377   5.546  1.8910 -0.6360  0.5420
20807SOL    HW263000   1.141   3.228   5.539  1.2969 -0.6874 -0.4764
20808SOL     OW63001   3.982   4.043   7.910  0.3928  0.1247  0.0378
20808SOL    HW163002   4.021   4.000   7.987  0.4681 -0.7817 -0.4885
20808SOL    HW263003   4.055   4.090   7.870 -0.2009  3.0908  2.0874
20809SOL     OW63004   5.372   9.057   5.311 -0.0226 -0.4169 -0.1097
20809SOL    HW163005   5.346   8.994   5.245  0.4601 -0.2807 -0.4274
20809SOL    HW263006   5.301   9.122   5.310 -0.3661 -0.7838  0.0064
20810SOL     OW63007   2.326   9.837   7.362  0.7623 -0.4836 -0.5617
20810SOL    HW163008   2.361   9.765   7.309 -0.3981 -0.6432 -1.1320
20810SOL    HW263009   2.231   9.825   7.359  0.6359 -0.0095  0.8869
20811SOL     OW63010   0.564   6.119   9.001 -0.2599 -0.2331  0.2502
20811SOL    HW163011   0.472   6.128   9.025  0.1082  0.2635  1.5584
20811SOL    HW263012   0.605   6.078   9.077  0.2980 -2.0862 -0.9909
20812SOL     OW63013   2.182   3.427   0.118 -0.0895  0.0210  0.9089
20812SOL    HW163014   2.122   3.460   0.185 -0.2668  2.3036 -0.2736
20812SOL    HW263015   2.135   3.436   0.036  0.1758 -2.6171  0.3743
20813SOL     OW63016   4.586   6.254   6.597  0.0345 -0.1258  0.2393
20813SOL    HW163017   4.650   6.322   6.617 -0.6270  0.8223 -0.7518
20813SOL    HW263018   4.637   6.173   6.596  0.6050  0.1343  2.7212
20814SOL     OW63019   0.937   9.672   5.447 -0.2068 -0.0208 -0.2111
20814SOL    HW163020   1.025   9.657   5.482 -0.2461  0.1173 -0.0533
20814SOL    HW263021   0.939   9.762   5.415 -0.1778 -0.1395 -0.5484
20815SOL     OW63022   8.907   3.747   6.168  0.2455 -0.0110  0.2237
20815SOL    HW163023   8.870   3.721   6.083 -0.7170 -0.0136  0.6219
20815SOL    HW263024   8.995   3.710   6.168  0.5215  0.5858 -1.0582
20816SOL     OW63025   5.640   5.350   6.292 -0.4129  0.5653 -0.8655
20816SOL    HW163026   5.704   5.342   6.362 -1.7942 -0.3385  0.3290
20816SOL    HW263027   5.689   5.391   6.220  2.1091 -2.0157 -0.7992
20817SOL     OW63028   3.029   0.293   1.783  0.6002 -0.5529  0.0572
20817SOL    HW163029   3.085   0.343   1.723  0.2146  1.3600  1.1821
20817SOL    HW263030   2.944   0.337   1.778  0.4014 -0.7046  1.5344
20818SOL     OW63031   0.535   5.890   5.596  0.8039 -0.0665  0.2275
20818SOL    HW163032   0.532   5.822   5.663 -0.6128  0.0999  0.3647
20818SOL    HW263033   0.516   5.844   5.514  1.5984 -0.1127  0.0597
20819SOL     OW63034   4.139   6.418   5.991  0.2196 -0.1022 -0.5213
20819SOL    HW163035   4.156   6.482   5.922  0.1729  0.8021  0.2881
20819SOL    HW263036   4.094   6.346   5.947 -0.4234  0.7678 -1.3108
20820SOL     OW63037   9.504   4.116   5.634 -0.3829 -0.0230  0.4947
20820SOL    HW163038   9.568   4.074   5.692 -0.9943  0.6277  1.6785
20820SOL    HW263039   9.521   4.209   5.644 -1.0077  0.1226  0.2204
20821SOL     OW63040   5.259   7.299   0.398  0.4782 -0.2930 -0.0525
20821SOL    HW163041   5.284   7.232   0.462  0.1447 -0.6590 -0.3000
20821SOL    HW263042   5.175   7.332   0.430  0.5841 -0.0762  0.0030
20822SOL     OW63043   4.671   8.117   4.734  0.4110 -0.3807 -0.2073
20822SOL    HW163044   4.682   8.054   4.662 -0.2823  1.7322 -2.2851
20822SOL    HW263045   4.739   8.094   4.797  1.0017 -2.3652 -1.4821
20823SOL     OW63046   0.343   9.256   1.783  0.3204  0.3356 -0.2067
20823SOL    HW163047   0.279   9.201   1.736  0.0751  0.8418 -0.4791
20823SOL    HW263048   0.358   9.330   1.724  0.1284  0.9052  0.4485
20824SOL     OW63049   3.508   6.321   8.927  0.1613 -0.1075  0.1935
20824SOL    HW163050   3.465   6.349   8.846  2.7133  3.7894 -0.0441
20824SOL    HW263051   3.550   6.238   8.904 -2.2084 -1.0113 -1.2394
20825SOL     OW63052   2.529   6.144   4.646 -0.1855  0.0171  0.3656
20825SOL    HW163053   2.438   6.133   4.672  0.2623 -1.2193  1.5650
20825SOL    HW263054   2.541   6.082   4.574 -0.0344 -0.6369  0.9398
20826SOL     OW63055   7.297   1.996   6.788  0.5177  0.2089  0.0155
20826SOL    HW163056   7.338   1.939   6.722 -1.1249 -1.1910  0.1374
20826SOL    HW263057   7.292   1.942   6.867 -1.5757  0.2874 -0.0120
20827SOL     OW63058   8.179   2.169   9.245 -0.9523 -0.1814 -0.1705
20827SOL    HW163059   8.162   2.121   9.326 -0.3695 -0.5447 -0.2595
20827SOL    HW263060   8.112   2.139   9.184 -2.3632  1.1965  0.6023
20828SOL     OW63061   0.100   1.457   4.017  0.0299  0.1168  0.0467
20828SOL    HW163062   0.167   1.521   3.994  0.4254 -0.1505  0.4415
20828SOL    HW263063   0.149   1.377   4.036 -0.1542  0.5936  2.8794
20829SOL     OW63064   6.274   9.846   5.797 -0.0792  0.2894  0.4200
20829SOL    HW163065   6.294   9.753   5.786  1.5454  0.6292  0.2321
20829SOL    HW263066   6.187   9.856   5.758  0.3454 -0.8668 -0.9545
20830SOL     OW63067   3.616   0.617   7.778 -0.2175 -0.5685 -0.0073
20830SOL    HW163068   3.568   0.534   7.773 -1.4874  0.1852 -1.2774
20830SOL    HW263069   3.703   0.597   7.743  0.8335 -2.1726  3.1676
20831SOL     OW63070   5.711   8.946   0.223 -0.1156 -0.3781 -0.5801
20831SOL    HW163071   5.714   8.956   0.318 -1.9047  0.8024 -0.6051
20831SOL    HW263072   5.790   8.991   0.192  0.0590 -0.0573  0.3017
20832SOL     OW63073   0.761   7.510   9.336  0.8058 -0.6247  0.2616
20832SOL    HW163074   0.811   7.495   9.255  2.3608  1.0278  0.8575
20832SOL    HW263075   0.812   7.465   9.404  1.6814  1.2908  0.9178
20833SOL     OW63076   6.472   7.121   4.937  0.2959 -0.1897  0.8537
20833SOL    HW163077   6.477   7.131   4.842  2.6817 -0.9294  0.8363
20833SOL    HW263078   6.405   7.054   4.951 -0.0173 -0.1271 -0.3150
20834SOL     OW63079   1.090   5.733   1.126 -0.2646  0.0149  0.0637
20834SOL    HW163080   1.001   5.731   1.090  0.1990 -0.3855 -1.1135
20834SOL    HW263081   1.133   5.804   1.079 -0.5289  1.6232  2.1189
20835SOL     OW63082   0.787   5.032   9.591  0.0068 -0.3946  0.0458
20835SOL    HW163083   0.707   4.997   9.630  0.3429  0.4237  1.5494
20835SOL    HW263084   0.757   5.104   9.535 -0.4159 -1.0506 -0.5852
20836SOL     OW63085   2.853   9.726   9.368 -0.1577  0.4901 -0.1724
20836SOL    HW163086   2.922   9.671   9.330  0.6865  1.2482  0.2114
20836SOL    HW263087   2.795   9.747   9.295 -1.0858 -1.7095 -0.1524
20837SOL     OW63088   6.775   0.573   9.371  0.0828  0.0163 -0.0135
20837SOL    HW163089   6.857   0.523   9.373 -0.1564 -0.4597 -1.4416
20837SOL    HW263090   6.707   0.507   9.361 -0.2719  0.5774 -1.4948
20838SOL     OW63091   6.717   9.309   8.107  0.3106  0.0120 -0.3141
20838SOL    HW163092   6.683   9.228   8.069  0.8630  0.3555 -1.6126
20838SOL    HW263093   6.642   9.368   8.109  0.0818 -0.2810 -0.0705
20839SOL     OW63094   0.266   2.609   7.894 -0.3015 -0.5349 -0.1217
20839SOL    HW163095   0.281   2.693   7.852 -1.5475  0.0197  0.4914
20839SOL    HW263096   0.173   2.610   7.918  0.0335 -1.4301  1.3262
20840SOL     OW63097   9.173   4.489   0.731 -0.1875  0.2523 -0.1593
20840SOL    HW163098   9.144   4.415   0.678  0.7270  1.0270 -1.8299
20840SOL    HW263099   9.259   4.511   0.697  0.5675  0.6565  1.8510
20841SOL     OW63100   7.938   7.416   2.058  0.0225  0.1702  0.2252
20841SOL    HW163101   7.977   7.362   1.989 -0.3727 -0.9584  0.8750
20841SOL    HW263102   7.999   7.409   2.131 -0.5815 -0.2953  0.6913
20842SOL     OW63103   4.794   8.847   8.117  0.3026  0.1653 -0.3754
20842SOL    HW163104   4.736   8.878   8.047 -1.4216 -0.4909  0.7068
20842SOL    HW263105   4.814   8.926   8.168 -0.8868  0.1756  0.1050
20843SOL     OW63106   5.977   6.468   9.033 -0.3560 -1.0514 -0.3509
20843SOL    HW163107   5.885   6.442   9.042 -1.3547  2.1625  0.1687
20843SOL    HW263108   6.012   6.462   9.122 -0.6212 -0.5022 -0.2073
20844SOL     OW63109   4.488   9.869   9.454  1.0342  0.0303 -0.2000
20844SOL    HW163110   4.509   9.917   9.535  0.4796 -1.7647  1.0770
20844SOL    HW263111   4.425   9.803   9.482  1.4710 -1.1857 -1.9548
20845SOL     OW63112   1.523   8.864   4.703  0.6747  0.2477 -0.0159
20845SOL    HW163113   1.601   8.838   4.752  0.0948  1.0969  1.4137
20845SOL    HW263114   1.519   8.959   4.712 -0.4170  0.2380 -0.2428
20846SOL     OW63115   2.349   0.329   0.278  0.0302  0.3836  0.1051
20846SOL    HW163116   2.358   0.240   0.245  1.5139 -0.2133  1.9771
20846SOL    HW263117   2.387   0.384   0.209  2.2934 -0.7572  0.3473
20847SOL     OW63118   5.149   2.626   4.023 -0.2494  0.0330 -0.2749
20847SOL    HW163119   5.094   2.635   4.101  0.0219  0.2888 -0.1111
20847SOL    HW263120   5.234   2.660   4.050 -0.0771 -0.1365 -0.6009
20848SOL     OW63121   0.712   8.592   5.102 -0.5034 -0.5609 -0.3812
20848SOL    HW163122   0.806   8.599   5.092 -0.4140  1.8205  1.1429
20848SOL    HW263123   0.695   8.499   5.113  1.3446 -1.3062 -2.9151
20849SOL     OW63124   8.307   9.457   8.215  0.9551 -0.2282  0.2960
20849SOL    HW163125   8.299   9.539   8.263  0.7801 -1.0668  1.7560
20849SOL    HW263126   8.329   9.483   8.126 -0.6592  1.4611  0.3428
20850SOL     OW63127   1.871   1.908   6.093  0.5355 -0.3288  0.1827
20850SOL    HW163128   1.842   1.898   6.183  0.8282  0.2505  0.3514
20850SOL    HW263129   1.791   1.901   6.041 -0.0880  2.0209  0.6883
20851SOL     OW63130   1.023   4.989   4.823  0.0782 -0.0224 -0.3286
20851SOL    HW163131   1.021   5.045   4.900  0.7810  1.1692 -1.1568
20851SOL    HW263132   1.085   4.919   4.845  0.8561  0.7338 -0.0976
20852SOL     OW63133   1.164   2.616   3.048  0.2884 -0.2065  0.2077
20852SOL    HW163134   1.176   2.592   2.957  0.9137 -2.2947  0.7896
20852SOL    HW263135   1.193   2.708   3.053  1.1302 -0.3455 -1.4909
20853SOL     OW63136   6.672   4.469   2.737  0.4416 -0.1817 -0.2678
20853SOL    HW163137   6.622   4.508   2.666 -0.8898 -1.5618 -0.1425
20853SOL    HW263138   6.679   4.376   2.714  2.8219 -0.0730 -0.1710
20854SOL     OW63139   1.550   3.823   2.580 -0.1716  0.1603 -0.6160
20854SOL    HW163140   1.612   3.785   2.642 -1.6786  0.0443  0.8922
20854SOL    HW263141   1.593   3.903   2.550  0.5119  0.3696  0.8099
20855SOL     OW63142   8.544   0.944   4.667 -0.1135  0.2725  0.2234
20855SOL    HW163143   8.526   0.896   4.587  0.6125 -1.2935  0.9525
20855SOL    HW263144   8.550   1.036   4.640 -0.8262 -0.1116 -1.3318
20856SOL     OW63145   7.870   6.239   5.859 -0.0882 -0.1899  0.1728
20856SOL    HW163146   7.804   6.210   5.921 -1.2607  1.0148 -0.4598
20856SOL    HW263147   7.821   6.285   5.791  1.3545  0.3048 -0.5858
20857SOL     OW63148   5.392   2.968   2.306  0.4669  0.8727 -0.2620
20857SOL    HW163149   5.410   3.004   2.219  1.1747  0.9398 -0.0908
20857SOL    HW263150   5.328   2.899   2.290 -0.3827  1.7381 -0.6790
20858SOL     OW63151   1.033   5.960   6.611  0.5911  0.1449  0.2435
20858SOL    HW163152   1.014   6.040   6.562 -2.3384 -0.5457  0.0633
20858SOL    HW263153   1.011   5.983   6.702  0.9439 -0.1019  0.3916
20859SOL     OW63154   7.067   8.556   8.971 -0.1331  0.0872  0.5182
20859SOL    HW163155   7.054   8.557   8.877 -0.6059  0.3874  0.5841
20859SOL    HW263156   7.110   8.472   8.989 -1.7448 -0.8382  0.2542
20860SOL     OW63157   7.995   6.541   8.413 -0.2369  0.4160  0.0180
20860SOL    HW163158   7.932   6.494   8.357 -1.5657  1.6999  0.3689
20860SOL    HW263159   8.040   6.472   8.461 -1.1398 -0.5688 -0.5074
20861SOL     OW63160   7.984   3.718   0.664  0.4290 -0.4022 -0.2600
20861SOL    HW163161   7.974   3.796   0.719  3.0924  0.4063 -0.7761
20861SOL    HW263162   8.002   3.647   0.726  0.0385 -0.2070  0.0826
20862SOL     OW63163   1.198   8.201   6.855  0.0691 -0.2793 -0.5636
20862SOL    HW163164   1.219   8.257   6.781 -1.8164 -1.0910 -1.7886
20862SOL    HW263165   1.217   8.254   6.932  0.8285  1.0614 -1.6413
20863SOL     OW63166   5.765   4.888   9.291 -0.1059 -0.0265 -0.4610
20863SOL    HW163167   5.736   4.971   9.329  0.6085 -0.1414  0.3448
20863SOL    HW263168   5.859   4.896   9.282 -0.3358  0.5905 -3.6713
20864SOL     OW63169   5.268   1.425   2.888  0.1304  0.2146 -0.1703
20864SOL    HW163170   5.291   1.493   2.824  0.2973  0.4243  0.1084
20864SOL    HW263171   5.233   1.474   2.962 -0.3019 -0.0421 -0.1989
20865SOL     OW63172   0.481   1.224   6.648 -0.0811  0.1895 -0.4022
20865SOL    HW163173   0.527   1.245   6.567 -0.0693 -2.2393 -1.1113
20865SOL    HW263174   0.405   1.172   6.620  0.1542 -1.0654  1.1262
20866SOL     OW63175   6.776   0.405   5.824 -0.3711  0.2569  0.0002
20866SOL    HW163176   6.703   0.459   5.853 -0.5995  0.0192 -0.1277
20866SOL    HW263177   6.786   0.426   5.731  0.3467  1.0031  0.2362
20867SOL     OW63178   2.030   7.090   8.563 -0.3458  0.0842 -0.2897
20867SOL    HW163179   1.992   7.052   8.642  0.1672 -0.0135 -0.0859
20867SOL    HW263180   2.000   7.033   8.492  1.5973 -1.6428  0.1613
20868SOL     OW63181   5.692   6.197   7.631  0.4770  0.0874 -0.5641
20868SOL    HW163182   5.654   6.111   7.616 -0.3182  0.0010  1.5632
20868SOL    HW263183   5.786   6.183   7.626  0.3850 -1.0920  0.4495
20869SOL     OW63184   6.940   9.804   1.411  0.3488 -0.1506 -0.2442
20869SOL    HW163185   6.941   9.900   1.408 -0.8229 -0.1514 -0.9143
20869SOL    HW263186   7.027   9.781   1.446  0.3773  1.1670  0.6331
20870SOL     OW63187   5.690   7.128   1.968 -0.0476 -0.0697  0.0590
20870SOL    HW163188   5.671   7.077   1.890  1.2896 -0.0747 -0.2850
20870SOL    HW263189   5.756   7.191   1.941 -0.7095  1.0048  0.8051
20871SOL     OW63190   0.540   9.592   6.984  0.0572  0.2629  0.1054
20871SOL    HW163191   0.505   9.561   7.067  0.7540 -0.6013  0.0844
20871SOL    HW263192   0.629   9.557   6.981  0.4152  1.1828 -0.5167
20872SOL     OW63193   9.893   5.219   2.797  0.6091 -0.6303 -0.7166
20872SOL    HW163194   9.974   5.204   2.847  1.0125  1.9981 -0.4440
20872SOL    HW263195   9.919   5.274   2.724 -0.8900  0.1138 -0.7333
20873SOL     OW63196   2.783   6.355   9.751  0.2457 -0.1776 -0.2359
20873SOL    HW163197   2.783   6.438   9.704 -0.6590  0.4900  0.8821
20873SOL    HW263198   2.873   6.323   9.743  0.3229  0.3156 -1.6650
20874SOL     OW63199   8.801   3.318   7.631 -0.0153  0.1097  0.2855
20874SOL    HW163200   8.742   3.242   7.628 -1.9209  1.4136  1.8769
20874SOL    HW263201   8.881   3.285   7.670 -1.5562 -0.7488  3.0013
20875SOL     OW63202   1.778   4.473   1.652  0.2045  0.2276  0.3067
20875SOL    HW163203   1.686   4.498   1.658  0.1906  0.1972  0.2179
20875SOL    HW263204   1.816   4.502   1.735  0.2077  0.6219  0.1683
20876SOL     OW63205   0.261   8.367   2.475  0.1778 -0.4184 -0.2400
20876SOL    HW163206   0.284   8.321   2.394  2.5312  0.6100 -0.2396
20876SOL    HW263207   0.188   8.424   2.450 -0.8303 -1.9721 -0.9607
20877SOL     OW63208   4.823   2.059   1.233  0.0122 -0.3833 -0.2486
20877SOL    HW163209   4.731   2.085   1.238  0.3893  0.9910 -0.0184
20877SOL    HW263210   4.849   2.045   1.324 -0.0502 -1.0727 -0.3360
20878SOL     OW63211   6.783   7.983   3.458 -0.2458  0.5427 -0.8707
20878SOL    HW163212   6.833   8.005   3.537 -0.6701  0.0801 -0.4726
20878SOL    HW263213   6.774   7.888   3.461  0.5867  0.3982 -1.9919
20879SOL     OW63214   7.409   8.634   7.339 -0.0229  0.4715 -0.2706
20879SOL    HW163215   7.478   8.567   7.332  0.1951  0.4255  1.7755
20879SOL    HW263216   7.451   8.715   7.310  0.3363  0.1085 -0.7810
20880SOL     OW63217   3.362   2.199   0.354  0.3094  0.3818  0.3182
20880SOL    HW163218   3.321   2.241   0.278 -3.2842  0.8728  2.2982
20880SOL    HW263219   3.338   2.106   0.345  0.8171  0.2472  0.3301
20881SOL     OW63220   0.048   4.294   3.386  1.1278 -0.0839  0.3822
20881SOL    HW163221  -0.043   4.326   3.383  0.5574 -1.6418  0.1174
20881SOL    HW263222   0.101   4.374   3.385 -0.2055  0.8476 -0.6815
20882SOL     OW63223   1.446   4.013   3.005  0.3779 -0.8936  0.4655
20882SOL    HW163224   1.435   4.107   3.019 -2.2965 -1.2249  1.2696
20882SOL    HW263225   1.540   3.997   3.015  0.9246  1.7118  0.0368
20883SOL     OW63226   7.803   2.118   9.224  0.8829  0.4738  0.0359
20883SOL    HW163227   7.789   2.209   9.250 -0.7982  0.0143  0.8781
20883SOL    HW263228   7.738   2.102   9.155 -0.6449 -0.7735  1.6778
20884SOL     OW63229   4.787   1.763   4.022 -0.2062 -0.1944 -0.2874
20884SOL    HW163230   4.818   1.851   4.001  2.9607 -1.2830 -0.6398
20884SOL    HW263231   4.742   1.773   4.106 -1.1394  1.9350 -0.9751
20885SOL     OW63232   6.113   7.837   3.945  0.1361  0.2356 -0.0405
20885SOL    HW163233   6.149   7.819   4.032 -0.3527  1.2908  0.3946
20885SOL    HW263234   6.018   7.826   3.955  0.1170 -0.1200 -0.5695
20886SOL     OW63235   8.590   6.012   9.584  0.0338 -0.4442 -0.3131
20886SOL    HW163236   8.567   6.096   9.547 -2.0460 -0.9965 -0.3736
20886SOL    HW263237   8.676   6.026   9.624  0.0690  1.4694 -0.9810
20887SOL     OW63238   9.799   8.507   7.719 -0.4157 -0.0385 -0.3112
20887SOL    HW163239   9.709   8.493   7.750  0.3000 -0.7079  1.5402
20887SOL    HW263240   9.822   8.595   7.750 -1.6468  1.8484 -4.0252
20888SOL     OW63241   4.356   5.831   0.642  0.1415 -0.1740 -0.2426
20888SOL    HW163242   4.273   5.806   0.682  0.1074  0.2417 -0.0411
20888SOL    HW263243   4.423   5.790   0.697  0.0751 -0.2742 -0.2370
20889SOL     OW63244   5.074   8.722   6.247 -0.8139  0.0697 -0.1985
20889SOL    HW163245   5.034   8.798   6.290 -2.5468 -1.5926  1.3174
20889SOL    HW263246   5.168   8.739   6.251 -1.1433  2.0991  0.1184
20890SOL     OW63247   0.594   6.969   1.317 -0.5174 -0.0197 -0.1508
20890SOL    HW163248   0.528   6.907   1.346 -0.1762 -0.1438  0.3635
20890SOL    HW263249   0.552   7.055   1.325 -0.5380 -0.0806  0.3883
20891SOL     OW63250   1.705   0.200   8.399 -0.3816 -0.3235  0.3539
20891SOL    HW163251   1.753   0.283   8.403  0.2067 -0.5998 -0.5770
20891SOL    HW263252   1.657   0.195   8.482  0.4170  0.4388  0.8709
20892SOL     OW63253   6.003   0.319   1.967 -0.0461  0.2533 -0.3838
20892SOL    HW163254   5.936   0.286   1.908 -0.1295  2.3235 -1.5495
20892SOL    HW263255   6.058   0.243   1.987 -1.8948 -1.1749 -0.5241
20893SOL     OW63256   7.869   1.938   0.349  0.1449 -0.1243  0.4931
20893SOL    HW163257   7.920   1.943   0.268  1.2243 -2.6076  0.9293
20893SOL    HW263258   7.903   2.009   0.403 -1.2771  2.2302 -1.5030
20894SOL     OW63259   8.878   4.004   3.078 -0.0009 -0.5729 -1.0365
20894SOL    HW163260   8.952   3.949   3.104 -0.5547 -0.6726  0.4375
20894SOL    HW263261   8.917   4.074   3.025  1.5203  0.6306  1.4707
20895SOL     OW63262   6.689   7.232   7.069 -0.1664  0.4651 -1.1546
20895SOL    HW163263   6.753   7.161   7.058 -1.6592 -2.0131  3.5464
20895SOL    HW263264   6.611   7.200   7.024 -0.8032 -1.0563  0.8608
20896SOL     OW63265   7.736   2.936   0.385  0.2614 -0.1723  0.1529
20896SOL    HW163266   7.728   2.844   0.408 -1.0100  0.0765  0.8438
20896SOL    HW263267   7.816   2.965   0.428  0.2708 -0.7786  0.5592
20897SOL     OW63268   1.103   0.938   7.337  0.2027  0.1115  0.2549
20897SOL    HW163269   1.069   1.026   7.323 -0.1104 -0.2815 -1.6024
20897SOL    HW263270   1.051   0.881   7.281  1.1988 -1.0906  0.4825
20898SOL     OW63271   2.334   5.248   6.167 -0.3754 -0.5090  0.4032
20898SOL    HW163272   2.425   5.274   6.150 -0.7565 -0.4333 -1.7880
20898SOL    HW263273   2.322   5.168   6.116 -1.2865 -1.0625  1.4423
20899SOL     OW63274   9.749   7.711   7.342  0.7032  0.4086  0.1384
20899SOL    HW163275   9.671   7.660   7.323  1.1321  0.6913 -3.0977
20899SOL    HW263276   9.770   7.691   7.433 -3.0942  0.3784  1.1668
20900SOL     OW63277   8.848   7.511   0.524 -0.3218 -0.2413 -0.1923
20900SOL    HW163278   8.812   7.423   0.535 -0.8327  0.1412  1.4782
20900SOL    HW263279   8.860   7.543   0.613 -0.7628  1.6287 -0.7627
20901SOL     OW63280   8.889   8.504   9.961 -0.4078 -0.2358  0.1786
20901SOL    HW163281   8.811   8.541   9.921 -1.0789  0.1967  1.7935
20901SOL    HW263282   8.867   8.413   9.978 -0.2170 -0.3527 -0.1894
20902SOL     OW63283   4.763   6.803   1.874  0.0396  0.2153  0.0832
20902SOL    HW163284   4.799   6.860   1.942 -0.2364 -0.6584  1.0029
20902SOL    HW263285   4.668   6.812   1.883 -0.0339 -1.0175  0.8470
20903SOL     OW63286   0.257   4.421   7.981 -0.0576  0.4214  0.2343
20903SOL    HW163287   0.221   4.506   7.954  0.7240  0.9824  0.9026
20903SOL    HW263288   0.189   4.358   7.958 -0.1740  1.0725 -1.3545
20904SOL     OW63289   2.621   1.790   8.185 -0.6358  0.2463  0.0316
20904SOL    HW163290   2.706   1.754   8.164 -0.6537  0.7536 -0.9969
20904SOL    HW263291   2.579   1.724   8.241 -0.0934 -0.6001 -0.5490
20905SOL     OW63292   6.510   4.435   5.972  0.3994 -0.1144 -0.1218
20905SOL    HW163293   6.537   4.384   6.048 -0.7572 -1.9630 -0.8944
20905SOL    HW263294   6.497   4.371   5.903  0.4599  1.4123 -1.6291
20906SOL     OW63295   2.826   2.452   3.848 -0.1015  0.1241  0.0144
20906SOL    HW163296   2.887   2.379   3.849 -0.8484 -0.5825 -1.8849
20906SOL    HW263297   2.770   2.438   3.924 -0.8317 -1.8442 -0.8199
20907SOL     OW63298   6.627   1.889   4.839 -0.8527 -0.4573  0.4672
20907SOL    HW163299   6.581   1.896   4.755  0.8182  0.0454 -0.4357
20907SOL    HW263300   6.662   1.800   4.840  0.3181 -0.0130 -0.0192
20908SOL     OW63301   8.132   8.144   5.547  0.3483  0.0240 -0.4499
20908SOL    HW163302   8.203   8.082   5.564  1.2611  0.6019 -1.9656
20908SOL    HW263303   8.151   8.219   5.603  0.1809 -0.3546  0.1255
20909SOL     OW63304   8.903   7.581   1.448 -0.0469 -0.3916  0.0372
20909SOL    HW163305   8.874   7.563   1.538 -0.3586 -0.2653 -0.0335
20909SOL    HW263306   8.909   7.495   1.407  0.2948 -0.4649  0.2379
20910SOL     OW63307   7.122   5.877   1.174 -0.2905 -0.2688 -0.0964
20910SOL    HW163308   7.183   5.947   1.197 -1.4917  1.5992 -2.1943
20910SOL    HW263309   7.177   5.810   1.133  0.7361 -0.0900  0.9410
20911SOL     OW63310   1.932   7.421   7.975 -0.3765 -0.7958  0.4549
20911SOL    HW163311   1.946   7.327   7.963  1.4720 -0.8791  2.6304
20911SOL    HW263312   1.980   7.461   7.902 -3.6375 -1.4390 -2.3380
20912SOL     OW63313   0.213   7.033   4.460  0.0057  0.1208  0.1780
20912SOL    HW163314   0.164   7.079   4.392 -0.0593 -0.1330  0.0521
20912SOL    HW263315   0.301   7.020   4.423 -0.5479 -1.6766 -0.6229
20913SOL     OW63316   3.712   7.061   2.726 -0.1515  0.0238  0.4270
20913SOL    HW163317   3.618   7.043   2.736  0.2652 -2.7162 -0.0320
20913SOL    HW263318   3.745   7.069   2.815 -0.4177 -1.5753  0.6993
20914SOL     OW63319   4.151   8.490   1.284 -0.5765 -0.1228  0.1388
20914SOL    HW163320   4.201   8.435   1.223  0.3846  0.1385  0.6790
20914SOL    HW263321   4.113   8.429   1.347  0.2974 -0.1995  0.5991
20915SOL     OW63322   3.232  -0.005   7.560  0.0289 -0.1630  0.3581
20915SOL    HW163323   3.190   0.054   7.498 -1.6712 -0.3174  1.3044
20915SOL    HW263324   3.226   0.040   7.644  2.2978  0.0448  0.4587
20916SOL     OW63325   0.441   2.249   8.209 -1.0218 -0.3013 -0.5080
20916SOL    HW163326   0.465   2.340   8.229  0.5899 -1.0519  1.2934
20916SOL    HW263327   0.483   2.198   8.278 -0.1318 -2.6208 -2.6220
20917SOL     OW63328   6.227   4.405   5.801 -0.1005 -0.2284 -0.3709
20917SOL    HW163329   6.208   4.492   5.765  2.0428  0.5859  0.3092
20917SOL    HW263330   6.145   4.357   5.792 -1.1682  1.6612 -1.3458
20918SOL     OW63331   8.990   4.065   7.005  0.0415 -0.4727 -0.1041
20918SOL    HW163332   9.081   4.094   7.016 -0.8021  1.7917  1.8085
20918SOL    HW263333   8.978   4.059   6.910  1.8156  0.5137 -0.4472
20919SOL     OW63334   9.061   2.877   1.523  0.2079 -0.0498  0.2496
20919SOL    HW163335   9.017   2.794   1.538  1.4307 -1.0759 -1.4338
20919SOL    HW263336   9.066   2.884   1.428  1.1073  1.4185  0.3732
20920SOL     OW63337   1.788   4.875   7.204  0.1606  0.4635 -0.4341
20920SOL    HW163338   1.843   4.865   7.282  0.4769 -0.5272 -0.7655
20920SOL    HW263339   1.818   4.806   7.145 -2.1114 -0.7874 -0.2296
20921SOL     OW63340   1.520   5.337   5.578  0.1446  0.4870  0.6239
20921SOL    HW163341   1.577   5.301   5.510 -2.2620 -1.7588 -0.3612
20921SOL    HW263342   1.516   5.431   5.559  0.2045  0.0413 -1.8238
20922SOL     OW63343   7.360   1.269   3.433  0.2699  0.0540 -0.4242
20922SOL    HW163344   7.278   1.256   3.386 -1.1952 -1.1194  2.1943
20922SOL    HW263345   7.409   1.188   3.418  0.1042 -0.0368 -0.4747
20923SOL     OW63346   7.072   8.192   9.866  0.2590  0.4505 -0.8825
20923SOL    HW163347   7.060   8.143   9.947  3.3270  1.2205  0.2100
20923SOL    HW263348   7.053   8.283   9.890  0.2536  0.5550 -1.2715
20924SOL     OW63349   1.006   9.088   8.133 -0.0804 -0.7324 -0.0757
20924SOL    HW163350   1.079   9.050   8.182 -0.9675 -2.1666  0.1859
20924SOL    HW263351   1.038   9.094   8.043  0.0385 -2.3204 -0.1682
20925SOL     OW63352   1.864   6.482   9.500  0.2563 -0.1371  0.3888
20925SOL    HW163353   1.864   6.547   9.570 -1.3550 -0.6768  0.9411
20925SOL    HW263354   1.818   6.407   9.538 -0.3506 -0.5619 -1.1241
20926SOL     OW63355   3.418   9.473   5.876  0.0355  0.2533 -0.4395
20926SOL    HW163356   3.368   9.405   5.831 -1.1165  1.0726 -0.4353
20926SOL    HW263357   3.489   9.426   5.919 -0.9461 -0.9987 -0.1335
20927SOL     OW63358   7.417   7.113   3.230  0.4296 -0.6206 -0.0642
20927SOL    HW163359   7.344   7.125   3.170 -0.7094 -0.4992  1.3010
20927SOL    HW263360   7.394   7.166   3.307  1.5610 -1.2313  0.7202
20928SOL     OW63361   7.096   9.629   5.241 -0.4561 -0.1733 -0.2260
20928SOL    HW163362   7.015   9.578   5.244 -1.8241  1.9385  1.0676
20928SOL    HW263363   7.069   9.719   5.259  2.1656  0.6436  0.0846
20929SOL     OW63364   4.182   6.088   9.768 -0.1008  0.1596 -0.2445
20929SOL    HW163365   4.224   6.153   9.712  0.4041 -0.3949 -0.5329
20929SOL    HW263366   4.140   6.138   9.838 -1.0171  0.8897 -1.2870
20930SOL     OW63367   6.214   0.577   8.502 -0.3804  0.4528  0.1069
20930SOL    HW163368   6.210   0.599   8.595 -1.9500 -2.5559  0.8762
20930SOL    HW263369   6.274   0.502   8.497 -0.7818  0.1875 -1.2059
20931SOL     OW63370   7.353   8.786   1.621 -0.2118 -0.4011  0.4167
20931SOL    HW163371   7.325   8.762   1.533  1.2817  0.0380 -0.2159
20931SOL    HW263372   7.402   8.867   1.609  0.5039 -0.6366  1.5682
20932SOL     OW63373   2.770   0.077   1.392  0.3823  0.0483 -0.0248
20932SOL    HW163374   2.721  -0.000   1.363  0.9797 -0.5690  0.5805
20932SOL    HW263375   2.849   0.077   1.336  1.0330 -0.5570  0.8611
20933SOL     OW63376   3.871   3.739   0.409  0.0855  0.1671 -0.3481
20933SOL    HW163377   3.859   3.729   0.504  1.8539 -0.6792 -0.1673
20933SOL    HW263378   3.940   3.805   0.401  0.5009 -0.3308 -0.9972
20934SOL     OW63379   8.951   1.919   5.118  0.1502 -0.0949  0.3183
20934SOL    HW163380   8.949   1.924   5.023  0.4823 -1.8912  0.1699
20934SOL    HW263381   8.893   1.845   5.139 -0.4781  0.7205  1.5703
20935SOL     OW63382   9.370   5.534   7.491 -0.4117 -0.1675  0.1451
20935SOL    HW163383   9.454   5.565   7.526 -0.7694  0.5647  0.3850
20935SOL    HW263384   9.393   5.492   7.408  0.0843  1.0110 -0.3491
20936SOL     OW63385   8.970   4.916   8.232  0.2251  0.6315 -0.2390
20936SOL    HW163386   8.982   4.840   8.175 -1.1452 -0.2640  0.5988
20936SOL    HW263387   8.899   4.965   8.192 -1.3046 -0.4286  1.0464
20937SOL     OW63388   4.088   3.017   2.282  0.4524 -0.2852  0.1512
20937SOL    HW163389   4.157   2.961   2.246  0.3427 -0.6143  0.4511
20937SOL    HW263390   4.121   3.106   2.270  1.9018 -0.4780  2.1784
20938SOL     OW63391   8.998   1.940   8.782  0.2768 -0.3095  0.4750
20938SOL    HW163392   8.939   1.953   8.709  0.6268 -0.9362  0.0728
20938SOL    HW263393   8.941   1.916   8.855  0.0211 -0.7958  0.1210
20939SOL     OW63394   9.658   3.124   3.805  0.4094  0.4992  0.2017
20939SOL    HW163395   9.691   3.175   3.731 -1.0316  1.8178  0.4176
20939SOL    HW263396   9.569   3.156   3.819 -0.1473 -1.3050  1.0918
20940SOL     OW63397   7.245   3.495   4.201  0.4178  0.7335 -0.4201
20940SOL    HW163398   7.315   3.515   4.139  1.2507 -4.6490 -1.7641
20940SOL    HW263399   7.164   3.509   4.151  0.8065  1.5109 -0.8480
20941SOL     OW63400   0.860   1.376   1.712  0.2892 -0.1857  0.2815
20941SOL    HW163401   0.791   1.440   1.693  0.1294  0.0723  1.6397
20941SOL    HW263402   0.936   1.430   1.733  0.2747 -0.4395  1.0052
20942SOL     OW63403   8.347   9.483   8.928  0.0778  0.3542 -0.5327
20942SOL    HW163404   8.273   9.422   8.933  0.2344  0.2581  0.8646
20942SOL    HW263405   8.325   9.541   8.856 -1.4977  0.4969  0.0309
20943SOL     OW63406   5.737   0.688   2.927  0.2023 -0.5257 -0.3515
20943SOL    HW163407   5.689   0.686   3.010  1.5799 -1.0436  0.4592
20943SOL    HW263408   5.673   0.662   2.861 -1.2745  1.1362  0.3472
20944SOL     OW63409   0.823   0.141   8.348 -0.2766 -0.5299  0.4342
20944SOL    HW163410   0.753   0.118   8.288 -0.4731 -0.5013  0.6525
20944SOL    HW263411   0.839   0.061   8.398 -0.3167 -0.4676  0.5472
20945SOL     OW63412   5.585   2.980   0.840 -0.3447 -0.2177 -0.0369
20945SOL    HW163413   5.638   2.904   0.816  0.1429 -0.1408  0.7585
20945SOL    HW263414   5.605   2.995   0.932  0.6959  1.7680 -0.5105
20946SOL     OW63415   5.171   1.514   1.922  0.5346  0.1368 -0.0325
20946SOL    HW163416   5.108   1.585   1.927  1.0808  0.5645  0.9706
20946SOL    HW263417   5.120   1.438   1.891 -1.0692 -0.2085  3.1063
20947SOL     OW63418   9.676   0.366   4.164 -0.3864  0.0384  0.0528
20947SOL    HW163419   9.769   0.347   4.166 -0.2837  0.2021 -1.4416
20947SOL    HW263420   9.633   0.281   4.176  0.0164 -0.5069 -1.9314
20948SOL     OW63421   0.645   5.691   9.082  0.4528 -0.1581  0.4688
20948SOL    HW163422   0.600   5.626   9.135  0.6077 -1.9178 -1.4623
20948SOL    HW263423   0.633   5.662   8.992  2.5114  1.2081 -0.3233
20949SOL     OW63424   2.975   0.491   6.880 -0.0547  0.3801 -0.2244
20949SOL    HW163425   2.959   0.576   6.838 -0.0814  0.0359 -0.9272
20949SOL    HW263426   2.904   0.483   6.944 -0.4138  0.6240 -0.5798
20950SOL     OW63427   8.728   8.322   2.025 -0.2132  0.3158 -0.3914
20950SOL    HW163428   8.794   8.254   2.040 -1.6050 -0.7397  1.3379
20950SOL    HW263429   8.649   8.273   2.002 -0.9344  1.4290 -0.3243
20951SOL     OW63430   4.379   7.023   4.839 -0.1028 -0.1079 -0.0816
20951SOL    HW163431   4.402   6.940   4.882  2.1819 -0.1830 -1.2651
20951SOL    HW263432   4.322   6.997   4.767 -0.0050 -0.5663 -0.0000
20952SOL     OW63433   8.620   6.236   9.430  0.3689  0.3202  0.4601
20952SOL    HW163434   8.665   6.298   9.372 -0.9541 -0.4634 -1.5159
20952SOL    HW263435   8.527   6.246   9.408  0.0945 -2.2482  0.1728
20953SOL     OW63436   3.466   0.881   7.746 -0.4436  0.3431 -0.4585
20953SOL    HW163437   3.536   0.816   7.755  1.0164  1.9017 -0.0856
20953SOL    HW263438   3.499   0.958   7.793 -2.2321  1.2798 -0.6648
20954SOL     OW63439   7.881   6.386   8.240  0.1872  0.2344  0.2475
20954SOL    HW163440   7.891   6.291   8.230 -1.2512  0.0333  0.5587
20954SOL    HW263441   7.787   6.401   8.231  0.4070  1.6436  0.1768
20955SOL     OW63442   3.107   2.742   7.997 -0.0785  0.4667  0.1862
20955SOL    HW163443   3.180   2.681   7.986 -0.3473  0.2414 -0.4315
20955SOL    HW263444   3.120   2.808   7.929 -0.4120  0.4615  0.1156
20956SOL     OW63445   1.177   6.653   2.273 -0.2201 -0.1202 -0.1052
20956SOL    HW163446   1.179   6.741   2.236 -0.7011 -0.3686 -0.7335
20956SOL    HW263447   1.268   6.624   2.271 -0.3266 -0.4520 -1.9207
20957SOL     OW63448   7.789   5.734   6.132  0.2166 -0.0162 -0.5187
20957SOL    HW163449   7.822   5.739   6.043 -1.7449  0.8080 -1.2565
20957SOL    HW263450   7.730   5.658   6.132 -1.4964  1.2475 -0.5934
20958SOL     OW63451   6.874   6.322   0.601  0.0697 -0.5013  0.7797
20958SOL    HW163452   6.815   6.378   0.651 -0.3250  0.1374 -0.3680
20958SOL    HW263453   6.957   6.327   0.648 -0.4463 -0.4127  1.7102
20959SOL     OW63454   3.491   7.654   5.559  0.6983  0.1834  0.1452
20959SOL    HW163455   3.560   7.615   5.506  0.6826  0.7667 -0.3149
20959SOL    HW263456   3.526   7.656   5.648  1.0696  0.0157  0.0011
20960SOL     OW63457   2.675   5.990   3.525 -0.1281 -0.1339  0.0728
20960SOL    HW163458   2.689   6.084   3.523  0.2326 -0.1958 -2.1205
20960SOL    HW263459   2.686   5.966   3.617  0.1448  1.8926  0.6037
20961SOL     OW63460   6.876   1.538   2.009 -0.4161 -0.1245  0.0534
20961SOL    HW163461   6.804   1.591   1.974 -2.8224 -2.2542  1.4247
20961SOL    HW263462   6.912   1.494   1.933 -1.7944 -0.3807 -0.4849
20962SOL     OW63463   2.478   1.991   9.295 -0.1699  0.4944 -0.7081
20962SOL    HW163464   2.566   2.023   9.273  0.6244  0.2936  1.7985
20962SOL    HW263465   2.438   2.063   9.344  0.3322 -0.9235  1.9763
20963SOL     OW63466   0.673   9.757   9.128 -0.0818  0.2101 -0.4194
20963SOL    HW163467   0.739   9.697   9.094  1.0699  0.1555  1.7648
20963SOL    HW263468   0.720   9.838   9.145  0.0689 -0.5115  3.3094
20964SOL     OW63469   6.307   5.154   2.505  0.4097  0.0537  0.3944
20964SOL    HW163470   6.371   5.177   2.572 -0.0242 -2.4228  1.8017
20964SOL    HW263471   6.228   5.203   2.529  0.7402  0.4253  0.7288
20965SOL     OW63472   5.624   5.712   2.981 -0.1143  0.1275  0.4257
20965SOL    HW163473   5.716   5.714   2.956 -0.0952  0.7735  0.5484
20965SOL    HW263474   5.598   5.621   2.967 -0.2394  0.5262 -2.3498
20966SOL     OW63475   0.551   3.511   7.372  0.1532 -0.1288  0.4828
20966SOL    HW163476   0.611   3.524   7.299 -0.9404 -3.3156 -1.1541
20966SOL    HW263477   0.467   3.546   7.340 -0.0181 -0.2776  0.7681
20967SOL     OW63478   7.740   5.011   7.337  0.2944  0.3334  0.0250
20967SOL    HW163479   7.748   5.106   7.345  1.7910  0.2806 -0.4992
20967SOL    HW263480   7.791   4.976   7.410 -0.3083 -0.0798  0.2581
20968SOL     OW63481   9.105   4.086   8.643  0.1886 -0.7690 -0.5875
20968SOL    HW163482   9.177   4.026   8.661  1.0602  0.0573 -1.2399
20968SOL    HW263483   9.037   4.031   8.603  0.3238 -1.6048  0.2980
20969SOL     OW63484   3.597   1.867   4.767 -0.0560 -0.2283 -0.1115
20969SOL    HW163485   3.662   1.903   4.827 -0.3062 -0.9853  0.6287
20969SOL    HW263486   3.529   1.935   4.760  0.8305  0.6121 -0.9686
20970SOL     OW63487   9.647   1.413   6.603 -0.0391 -0.4831 -0.0405
20970SOL    HW163488   9.736   1.382   6.587  0.3443  0.6206 -0.1323
20970SOL    HW263489   9.655   1.508   6.607 -1.0628 -0.4203  0.9491
20971SOL     OW63490   8.073   9.110   2.154 -0.1367  0.4437 -0.1634
20971SOL    HW163491   8.167   9.126   2.152 -0.4112  2.3390 -0.2143
20971SOL    HW263492   8.059   9.061   2.235  1.0658 -1.4054 -1.0208
20972SOL     OW63493   9.432   2.152   9.086  0.0169  0.1970  0.0834
20972SOL    HW163494   9.511   2.113   9.123 -0.2329 -0.4737 -0.0682
20972SOL    HW263495   9.422   2.109   9.001 -2.0960 -1.9643  1.2818
20973SOL     OW63496   9.380   4.663   2.731  0.3684 -0.3844  0.0758
20973SOL    HW163497   9.351   4.606   2.660 -1.6100  0.1822  0.3659
20973SOL    HW263498   9.373   4.608   2.810 -1.4035  0.1716  0.3368
20974SOL     OW63499   2.164   4.680   2.128  0.4237  0.3535 -0.2944
20974SOL    HW163500   2.073   4.694   2.102  0.8655  2.4572 -0.9010
20974SOL    HW263501   2.190   4.763   2.169  0.9309 -1.4548  3.4882
20975SOL     OW63502   4.161   3.338   4.113  0.0273  0.9006 -0.0444
20975SOL    HW163503   4.182   3.275   4.182 -2.4014 -2.1710 -1.8634
20975SOL    HW263504   4.239   3.340   4.058 -0.0476 -1.0410 -0.2710
20976SOL     OW63505   1.517   7.738   8.877  0.7675 -0.1171 -0.0303
20976SOL    HW163506   1.596   7.788   8.893 -0.5141  1.9300  0.2215
20976SOL    HW263507   1.534   7.692   8.794  2.3714 -0.1205  0.2738
20977SOL     OW63508   8.524   1.877   3.461  0.0456 -0.0362 -0.0025
20977SOL    HW163509   8.437   1.917   3.469  0.8617  1.7600  0.5091
20977SOL    HW263510   8.578   1.946   3.422  1.6475 -0.4707  1.3228
20978SOL     OW63511   4.390   5.040   3.960 -0.0310 -0.5503  0.0872
20978SOL    HW163512   4.316   5.091   3.928 -0.7087 -0.6455  1.4291
20978SOL    HW263513   4.465   5.071   3.909 -0.8648  0.0560 -0.7865
20979SOL     OW63514   2.985   8.512   1.158 -0.2696  0.3543  0.2142
20979SOL    HW163515   3.016   8.463   1.083  0.3399  1.5569 -0.3446
20979SOL    HW263516   2.894   8.533   1.138 -0.3402  0.0084  0.1726
20980SOL     OW63517   1.420   6.724   6.130 -0.1655 -0.0295 -0.4590
20980SOL    HW163518   1.491   6.660   6.128 -1.2619 -1.2568 -1.9705
20980SOL    HW263519   1.421   6.764   6.044  1.7088  3.4883  1.0115
20981SOL     OW63520   0.091   8.988   7.458  0.1233  0.6379 -0.7681
20981SOL    HW163521   0.149   9.056   7.493 -2.6641  2.4037  0.7922
20981SOL    HW263522   0.131   8.905   7.486  2.0061  1.7362 -0.0341
20982SOL     OW63523   0.604   7.787   0.682  0.1291 -0.3972  0.1968
20982SOL    HW163524   0.559   7.800   0.765  0.1676 -1.0228  0.3180
20982SOL    HW263525   0.640   7.873   0.661 -1.2425  0.1571  0.0154
20983SOL     OW63526   5.240   5.427   8.393  0.3247  0.3080 -0.2011
20983SOL    HW163527   5.326   5.386   8.393  0.0297 -0.3572  0.7155
20983SOL    HW263528   5.207   5.414   8.483 -0.8186  0.3199 -0.5959
20984SOL     OW63529   1.827   5.011   1.654  0.0235  0.0471  0.0830
20984SOL    HW163530   1.830   5.015   1.750  0.8809 -0.7603  0.0950
20984SOL    HW263531   1.859   4.924   1.632 -3.8455 -1.3645 -0.7814
20985SOL     OW63532   3.385   1.440   3.725  0.0561  0.1555  0.3430
20985SOL    HW163533   3.335   1.521   3.713  1.6148  1.0754 -0.2990
20985SOL    HW263534   3.321   1.370   3.712 -0.8472  1.2447 -1.5558
20986SOL     OW63535   0.939   3.363   6.049 -0.0285  0.6268 -0.3021
20986SOL    HW163536   0.959   3.291   6.109 -0.5404 -1.1883 -2.2209
20986SOL    HW263537   0.853   3.395   6.078  0.1743  0.4465  0.5220
20987SOL     OW63538   8.299   7.675   6.263 -0.0207 -0.3080 -0.3759
20987SOL    HW163539   8.212   7.635   6.272  0.3066 -1.0727 -0.5470
20987SOL    HW263540   8.296   7.719   6.178 -0.0333 -0.8688 -0.6712
20988SOL     OW63541   1.716   9.557   3.608 -0.3737 -0.0573  0.0830
20988SOL    HW163542   1.629   9.596   3.611 -0.0206  0.9951 -1.5486
20988SOL    HW263543   1.776   9.631   3.625  0.2315 -0.4653 -0.2281
20989SOL     OW63544   2.873   3.981   0.644  0.1153  0.2041 -0.3011
20989SOL    HW163545   2.899   3.928   0.569  0.0175  0.5308 -0.5646
20989SOL    HW263546   2.784   4.011   0.623 -0.5488 -0.9918  0.6359
20990SOL     OW63547   5.506   4.552   7.160 -0.1771  0.1769  0.1459
20990SOL    HW163548   5.558   4.596   7.226 -1.2806  0.7470  0.6628
20990SOL    HW263549   5.416   4.559   7.191 -0.8841  1.4870 -1.9475
20991SOL     OW63550   5.804   2.077   3.366  0.6092 -0.3024  0.2210
20991SOL    HW163551   5.723   2.054   3.320  0.6434  2.6330 -1.5083
20991SOL    HW263552   5.874   2.039   3.314  0.5452  1.5489 -1.3167
20992SOL     OW63553   6.468   5.983   7.523 -0.1661  0.0227 -0.4302
20992SOL    HW163554   6.387   5.963   7.476 -0.4361  0.1184 -0.0097
20992SOL    HW263555   6.489   5.902   7.570 -0.7986  0.4246  0.5935
20993SOL     OW63556   1.596   2.708   7.864 -0.1057 -0.5498  0.6668
20993SOL    HW163557   1.646   2.726   7.943  1.7958  2.5921 -1.0469
20993SOL    HW263558   1.648   2.643   7.817  0.4928 -0.0220  0.5783
20994SOL     OW63559   2.268   8.034   1.810  0.0662  0.0391 -0.5494
20994SOL    HW163560   2.242   7.942   1.808  0.4057 -0.0527 -2.7182
20994SOL    HW263561   2.319   8.043   1.891  0.9468 -1.9330 -0.8391
20995SOL     OW63562   7.886   3.853   5.330  0.1684  0.3596 -0.3879
20995SOL    HW163563   7.981   3.857   5.323  0.1788 -0.6793 -1.0864
20995SOL    HW263564   7.855   3.922   5.271  0.4738 -1.6577 -3.1450
20996SOL     OW63565   7.363   8.215   1.151  0.5057  0.6709 -0.1360
20996SOL    HW163566   7.443   8.186   1.107 -0.8910  0.2246 -2.5745
20996SOL    HW263567   7.327   8.283   1.093 -1.5766 -0.1190  0.1435
20997SOL     OW63568   1.620   2.162   4.796  0.0557 -0.0068  0.0300
20997SOL    HW163569   1.639   2.071   4.820  0.1467 -0.0870 -0.3551
20997SOL    HW263570   1.525   2.167   4.798 -0.0307 -0.5293 -1.4817
20998SOL     OW63571   7.379   1.437   8.196  0.0145 -0.6724  0.1603
20998SOL    HW163572   7.323   1.381   8.251  0.2358 -1.7151 -0.6421
20998SOL    HW263573   7.325   1.514   8.179  0.1234 -0.0766  2.2241
20999SOL     OW63574   6.749   7.407   3.765  0.0228  0.4845  0.0327
20999SOL    HW163575   6.823   7.459   3.732  0.1747  0.4161  0.2607
20999SOL    HW263576   6.731   7.444   3.851 -2.3696  2.7259 -1.2924
21000SOL     OW63577   5.412   7.923   7.265  0.0540  0.8742 -0.5355
21000SOL    HW163578   5.389   7.947   7.355  0.6342 -0.0507 -0.1278
21000SOL    HW263579   5.503   7.896   7.270 -0.5763 -1.6277 -0.8617
21001SOL     OW63580   4.759   6.007   7.589 -0.1797 -0.1958  0.2266
21001SOL    HW163581   4.694   5.952   7.546  1.3462 -1.1851 -0.9366
21001SOL    HW263582   4.797   6.059   7.519 -0.9516  1.7175  1.1760
21002SOL     OW63583   8.794   4.474  -0.013 -0.1263  0.0028 -0.0157
21002SOL    HW163584   8.781   4.510   0.075  0.9203 -0.5904  0.4002
21002SOL    HW263585   8.885   4.495  -0.034 -0.7262  1.3742 -1.5569
21003SOL     OW63586   1.998   6.853   4.902 -0.2113  0.3179 -0.1197
21003SOL    HW163587   2.024   6.787   4.966 -0.1841  0.5410  0.1003
21003SOL    HW263588   2.049   6.832   4.823  0.3693  0.5404  0.1936
21004SOL     OW63589   1.636   7.254   7.763 -0.0756 -0.1911 -0.5200
21004SOL    HW163590   1.618   7.160   7.766 -2.0418  0.1181 -0.9096
21004SOL    HW263591   1.669   7.269   7.674 -1.2933 -0.3239 -1.0220
21005SOL     OW63592   1.880   3.260   7.304 -0.0886  0.2407  0.4899
21005SOL    HW163593   1.840   3.230   7.386  1.4127  0.7700  1.4568
21005SOL    HW263594   1.928   3.339   7.329  2.2113 -0.7921 -0.3894
21006SOL     OW63595   7.780   8.902   7.130 -0.1194  0.3830 -0.4206
21006SOL    HW163596   7.868   8.918   7.095  1.0017 -0.2723  1.8350
21006SOL    HW263597   7.749   8.989   7.156 -0.0620  0.5926 -1.0352
21007SOL     OW63598   4.068   9.544   3.346 -0.0637 -0.1008  0.1471
21007SOL    HW163599   4.094   9.609   3.411  0.0556  1.1987 -1.1486
21007SOL    HW263600   4.050   9.595   3.267 -1.6019 -1.4788 -0.4499
21008SOL     OW63601   1.658   0.727   8.549  0.0056 -0.6793  0.2206
21008SOL    HW163602   1.668   0.774   8.466  0.1170  0.4506  0.8542
21008SOL    HW263603   1.612   0.647   8.525 -1.6491  0.4635 -0.7080
21009SOL     OW63604   3.827   6.943   9.471  0.1586 -0.1813 -0.2424
21009SOL    HW163605   3.781   6.883   9.529  0.1138  0.7322  0.7013
21009SOL    HW263606   3.908   6.897   9.447  0.1436 -0.6038  0.4979
21010SOL     OW63607   5.243   9.911   8.355  0.1584  0.0219 -0.1131
21010SOL    HW163608   5.280   9.940   8.271  0.2184  0.7228  0.1488
21010SOL    HW263609   5.302   9.947   8.421  0.7696 -1.4805  0.2129
21011SOL     OW63610   6.405   0.222   0.199 -0.1002  0.0384 -0.4788
21011SOL    HW163611   6.392   0.266   0.115  1.6387  0.0858 -0.7731
21011SOL    HW263612   6.457   0.144   0.177 -1.5805 -1.2016  0.2707
21012SOL     OW63613   2.512   4.490   7.805  0.3264 -0.1526 -1.0811
21012SOL    HW163614   2.431   4.479   7.755 -0.8940  0.5758  0.6482
21012SOL    HW263615   2.555   4.566   7.766 -1.2759  1.2391 -0.2419
21013SOL     OW63616   9.586   9.745   3.688  0.2443  0.1830  0.2493
21013SOL    HW163617   9.611   9.720   3.777 -0.5076  0.1864  0.4718
21013SOL    HW263618   9.502   9.702   3.674 -0.1619  1.0387 -0.0555
21014SOL     OW63619   8.131   8.576   5.511 -0.1892 -0.4782 -0.1360
21014SOL    HW163620   8.131   8.547   5.420  3.0770 -2.5348  0.3357
21014SOL    HW263621   8.052   8.537   5.549 -0.5835 -1.2380 -1.6519
21015SOL     OW63622   2.309   9.007   8.646 -0.2387 -0.7855 -0.0167
21015SOL    HW163623   2.269   8.979   8.728 -1.1979  0.5060 -0.0218
21015SOL    HW263624   2.391   9.049   8.672  0.2077 -1.7060  0.1354
21016SOL     OW63625   4.086   1.884   9.948 -0.0626  0.4924 -0.3411
21016SOL    HW163626   4.026   1.959   9.944 -2.6199 -1.4421 -2.8116
21016SOL    HW263627   4.146   1.898   9.875 -0.1460  0.4424 -0.4195
21017SOL     OW63628   6.570   7.957   8.629  0.5756 -0.5997  0.4090
21017SOL    HW163629   6.522   8.032   8.664  1.2217 -0.3422  0.7684
21017SOL    HW263630   6.660   7.970   8.659  1.0361 -0.6884 -0.8701
21018SOL     OW63631   5.223   2.102   3.872  0.5353 -0.8116  0.1509
21018SOL    HW163632   5.164   2.175   3.889 -2.6450 -3.3322  0.9141
21018SOL    HW263633   5.263   2.083   3.957  1.0709 -0.2525  0.0332
21019SOL     OW63634   6.401   1.180   7.909 -0.7163  0.2271 -0.7436
21019SOL    HW163635   6.456   1.256   7.892 -0.2039 -0.0023 -0.1432
21019SOL    HW263636   6.363   1.158   7.824  3.0969 -1.9593 -2.0968
21020SOL     OW63637   9.542   9.015   4.267 -0.2676 -0.4356 -0.1224
21020SOL    HW163638   9.573   9.000   4.177  1.8559  0.3461  0.4263
21020SOL    HW263639   9.499   9.100   4.264 -0.0443 -0.3311 -0.3668
21021SOL     OW63640   1.917   3.095   0.346 -0.3350  0.2796 -0.1564
21021SOL    HW163641   1.915   3.004   0.316  0.8841 -0.2705  1.3006
21021SOL    HW263642   1.848   3.099   0.413 -0.4837  0.4705 -0.3210
21022SOL     OW63643   4.924   4.141   6.833 -0.2482 -0.6489 -0.8124
21022SOL    HW163644   4.866   4.116   6.761 -1.0151 -3.1602  0.5419
21022SOL    HW263645   4.888   4.094   6.909  0.7075  1.6290  1.1569
21023SOL     OW63646   3.852   0.526   2.075 -0.1425  0.3628  0.2127
21023SOL    HW163647   3.913   0.506   2.147 -2.0432 -0.2445  1.7586
21023SOL    HW263648   3.784   0.580   2.116 -1.0212  0.4350 -1.2773
21024SOL     OW63649   2.968   8.082   4.176 -0.5590  0.5179 -0.1636
21024SOL    HW163650   3.037   8.078   4.110 -1.1564  0.6868 -0.8180
21024SOL    HW263651   2.936   8.173   4.171 -1.5089  0.1707 -0.5980
21025SOL     OW63652   3.539   4.766   0.005 -0.0007  0.4074  0.1278
21025SOL    HW163653   3.582   4.851  -0.001  0.5547  0.2318  1.3128
21025SOL    HW263654   3.511   4.759   0.096  0.2765 -0.8211  0.1445
21026SOL     OW63655   1.891   8.171   0.362  0.4567 -0.1559  0.3892
21026SOL    HW163656   1.849   8.086   0.351 -1.2900  0.8902 -1.7903
21026SOL    HW263657   1.819   8.234   0.361  1.8031  1.4443  0.5913
21027SOL     OW63658   7.146   2.381   6.497  0.1980 -0.1357 -0.3122
21027SOL    HW163659   7.223   2.335   6.462 -0.8923 -2.3565  0.0060
21027SOL    HW263660   7.115   2.324   6.567 -0.2142  2.0617  1.3744
21028SOL     OW63661   4.893   9.835   9.702  0.0797  0.6739 -0.3267
21028SOL    HW163662   4.976   9.818   9.747 -0.7709 -1.0943  0.6736
21028SOL    HW263663   4.903   9.791   9.617  0.3919  1.0442 -0.4884
21029SOL     OW63664   4.754   5.536   8.538  0.2507  0.1009 -0.0931
21029SOL    HW163665   4.714   5.601   8.480  0.0176  1.3584  1.4119
21029SOL    HW263666   4.727   5.452   8.502 -1.1985  0.8689 -0.8805
21030SOL     OW63667   5.616   4.025   5.073  0.6896 -0.4151  0.3300
21030SOL    HW163668   5.591   4.047   4.984  0.8698  1.5374  0.7023
21030SOL    HW263669   5.618   3.930   5.076  0.8341 -0.5102 -1.7808
21031SOL     OW63670   1.799   6.772   3.423  0.6296 -0.1148  0.1609
21031SOL    HW163671   1.849   6.711   3.477  2.1353 -1.4429 -2.4781
21031SOL    HW263672   1.724   6.721   3.392  1.0894 -0.2064 -0.8634
21032SOL     OW63673   0.730   2.223   3.749 -0.2484  0.0077  0.4245
21032SOL    HW163674   0.817   2.186   3.742 -0.4427 -0.1986 -1.3771
21032SOL    HW263675   0.744   2.316   3.766  0.3741  0.2049 -1.0443
21033SOL     OW63676   1.338   0.818   6.838 -0.0767 -0.1093 -0.0349
21033SOL    HW163677   1.404   0.860   6.892 -1.2150 -1.5084  2.6711
21033SOL    HW263678   1.386   0.780   6.765  1.4249  2.6106 -0.5915
21034SOL     OW63679   7.658   6.429   8.468  0.0012 -0.5282  0.1625
21034SOL    HW163680   7.646   6.386   8.383 -0.1051  0.7972 -0.5304
21034SOL    HW263681   7.725   6.377   8.512 -1.0174 -2.1160 -0.1003
21035SOL     OW63682   6.634   0.542   9.789  0.1071 -0.0106  0.2460
21035SOL    HW163683   6.716   0.586   9.809 -0.2543  1.0295 -0.4730
21035SOL    HW263684   6.597   0.591   9.715 -0.4688 -1.3313 -0.3877
21036SOL     OW63685   6.922   7.023   7.643 -0.4394 -0.3032 -0.1007
21036SOL    HW163686   7.005   6.984   7.615  0.2766  1.7912 -1.1252
21036SOL    HW263687   6.936   7.045   7.735 -0.4083 -1.3000  0.1396
21037SOL     OW63688   4.619   4.344   7.846  0.0284  0.4932 -0.4913
21037SOL    HW163689   4.700   4.304   7.877 -0.3562 -0.0087 -0.1138
21037SOL    HW263690   4.627   4.437   7.870 -0.0468  0.2160  0.7042
21038SOL     OW63691   4.479   5.325   6.709 -0.4995  0.0832  0.3448
21038SOL    HW163692   4.476   5.251   6.768  2.4172 -0.5072 -0.0732
21038SOL    HW263693   4.551   5.380   6.742 -0.4696  1.0385 -1.1819
21039SOL     OW63694   3.371   8.071   0.966 -0.2522  0.5451 -0.1237
21039SOL    HW163695   3.395   8.050   0.876  0.9425 -0.1706  0.3398
21039SOL    HW263696   3.362   8.166   0.966  1.6242  0.7767 -0.5995
21040SOL     OW63697   7.279   5.615   6.522  0.3344 -0.0306 -0.2969
21040SOL    HW163698   7.204   5.566   6.488 -0.6318  0.5572  0.9003
21040SOL    HW263699   7.265   5.616   6.617  0.7461  1.8777 -0.2258
21041SOL     OW63700   5.346   6.049   1.281 -0.0313  0.1148 -0.0400
21041SOL    HW163701   5.258   6.053   1.317 -0.2287  2.3888 -0.6406
21041SOL    HW263702   5.372   6.140   1.268  1.7349 -0.5143 -1.4889
21042SOL     OW63703   3.784   1.340   3.736 -0.7902  0.2890  0.2042
21042SOL    HW163704   3.766   1.274   3.804 -1.0403  0.2589  0.1114
21042SOL    HW263705   3.764   1.423   3.778  2.4111  0.6164  1.3455
21043SOL     OW63706   2.925   8.885   4.797  0.4129  0.0326  0.5880
21043SOL    HW163707   2.971   8.811   4.758 -1.4606 -1.0252  0.2770
21043SOL    HW263708   2.832   8.865   4.787 -0.2698  3.3730 -1.3898
21044SOL     OW63709   4.003   7.493   2.451 -0.3956  0.4110 -0.4081
21044SOL    HW163710   3.968   7.460   2.534 -1.3263 -2.6508 -1.8421
21044SOL    HW263711   3.952   7.446   2.385  2.9677 -0.3282 -2.6827
21045SOL     OW63712   3.171   7.098   8.918 -0.0603  0.1783 -0.3714
21045SOL    HW163713   3.192   7.191   8.909  1.4155 -0.2603 -1.9249
21045SOL    HW263714   3.093   7.086   8.864 -0.5753  0.5905  0.2587
21046SOL     OW63715   8.243   7.133   5.451  0.0354  0.3638  0.1794
21046SOL    HW163716   8.162   7.179   5.469  0.6730  1.7055 -0.2905
21046SOL    HW263717   8.217   7.058   5.398 -0.9338  0.5389  0.3906
21047SOL     OW63718   2.781   9.528   2.217 -0.0326  0.2956  0.1191
21047SOL    HW163719   2.754   9.457   2.275 -2.2292  1.0009  0.0256
21047SOL    HW263720   2.862   9.561   2.256  0.3145 -1.3638  0.8956
21048SOL     OW63721   0.292   3.968   2.653  0.0470 -0.4813 -0.2833
21048SOL    HW163722   0.359   4.033   2.675 -0.4225 -0.1543  0.2113
21048SOL    HW263723   0.257   3.997   2.569 -2.0262  1.5118  1.1150
21049SOL     OW63724   4.571   5.706   9.503  0.5344 -0.0099  0.0401
21049SOL    HW163725   4.650   5.677   9.547  0.6754 -0.2172 -0.3413
21049SOL    HW263726   4.504   5.643   9.529  0.3741  0.4561  0.7589
21050SOL     OW63727   7.139   4.803   5.441 -0.1784  0.3609 -0.1687
21050SOL    HW163728   7.165   4.728   5.388 -0.0118 -0.9234  1.6399
21050SOL    HW263729   7.055   4.776   5.480 -0.4502  1.3909 -0.0233
21051SOL     OW63730   4.811   3.757   8.936 -0.3031 -0.1892 -0.3684
21051SOL    HW163731   4.793   3.753   9.030  0.7634  1.1212 -0.0740
21051SOL    HW263732   4.730   3.790   8.898 -0.0634  1.3588  0.3851
21052SOL     OW63733   2.298   9.910   1.594 -0.6247 -0.2969 -0.1250
21052SOL    HW163734   2.332   9.953   1.516  0.0281  0.0606  0.3401
21052SOL    HW263735   2.258   9.829   1.562 -1.3567  0.3624 -0.9506
21053SOL     OW63736   3.117   3.488   1.413 -0.0366 -0.3552 -0.6972
21053SOL    HW163737   3.201   3.490   1.459 -0.6410 -0.3541  0.4485
21053SOL    HW263738   3.123   3.412   1.356  1.1907  0.3400 -1.5442
21054SOL     OW63739   8.518   4.197   5.371 -0.2843  0.4078 -0.5742
21054SOL    HW163740   8.597   4.187   5.424 -0.7149 -1.8800 -0.2725
21054SOL    HW263741   8.454   4.140   5.412 -2.3753  2.7018 -0.4077
21055SOL     OW63742   0.509   0.663   1.921  0.4559  0.0399  0.4939
21055SOL    HW163743   0.522   0.569   1.913 -0.5940 -0.0080 -1.1875
21055SOL    HW263744   0.437   0.673   1.982  0.4807 -0.2501  0.5715
21056SOL     OW63745   5.596   1.198   4.901  0.1149  0.7934  0.3721
21056SOL    HW163746   5.547   1.160   4.974 -0.2914  1.2188  0.3227
21056SOL    HW263747   5.626   1.283   4.933 -0.2249  1.0613 -0.0239
21057SOL     OW63748   8.004   3.640   8.138 -0.0336 -0.3071  0.1338
21057SOL    HW163749   7.951   3.625   8.060 -0.4904 -0.0565  0.3888
21057SOL    HW263750   8.060   3.715   8.115  0.3355 -0.6825 -0.1957
21058SOL     OW63751   9.460   5.788   1.515 -0.2846 -0.2720  0.0192
21058SOL    HW163752   9.399   5.757   1.582  0.4434 -0.4926  0.5960
21058SOL    HW263753   9.435   5.739   1.436 -0.6513 -0.5943  0.3282
21059SOL     OW63754   3.840   1.624   8.573 -0.4863  0.4767 -0.3599
21059SOL    HW163755   3.800   1.537   8.579 -0.1390  0.1667 -2.0474
21059SOL    HW263756   3.886   1.635   8.657 -1.4746 -0.4753  0.3324
21060SOL     OW63757   5.870   0.967   3.628  0.1247  0.4994  0.1109
21060SOL    HW163758   5.878   1.008   3.542  1.4449  0.2366  0.0848
21060SOL    HW263759   5.939   1.008   3.681 -0.1605  0.0984  0.8068
21061SOL     OW63760   0.480   7.365   5.577 -0.2887 -0.1519  0.0789
21061SOL    HW163761   0.438   7.320   5.504 -0.0645 -1.7240  0.8892
21061SOL    HW263762   0.528   7.297   5.623  2.1351  1.3493 -0.0542
21062SOL     OW63763   2.626   9.231   8.306  0.5597  0.2387 -0.0484
21062SOL    HW163764   2.690   9.210   8.373  0.6926  0.1627 -0.1980
21062SOL    HW263765   2.625   9.154   8.248  0.8517  0.5325 -0.4493
21063SOL     OW63766   8.258   1.917   1.074 -0.3955 -0.4067  0.5113
21063SOL    HW163767   8.209   1.986   1.029  0.3053 -1.4430 -2.0529
21063SOL    HW263768   8.341   1.958   1.096  0.4452 -0.6159 -1.9687
21064SOL     OW63769   4.066   0.037   5.496 -0.3887 -0.1371 -0.5212
21064SOL    HW163770   4.031  -0.016   5.424  0.0099  1.3090 -1.8167
21064SOL    HW263771   4.023   0.122   5.487 -0.9415 -0.1480  1.4737
21065SOL     OW63772   8.818   2.380   8.386 -0.0007  0.1634 -0.1518
21065SOL    HW163773   8.853   2.307   8.436  0.7399  1.4231  1.2752
21065SOL    HW263774   8.723   2.364   8.382  0.0514 -0.4611  0.8195
21066SOL     OW63775   4.554   2.474   0.422 -0.1190 -0.7023  0.4125
21066SOL    HW163776   4.550   2.379   0.432 -0.6934 -0.7385 -0.0736
21066SOL    HW263777   4.610   2.504   0.494 -0.3671 -1.3545  0.8869
21067SOL     OW63778   1.377   5.665   1.115 -0.3437  0.0637  0.5861
21067SOL    HW163779   1.321   5.615   1.174  0.5505  0.1709  1.5617
21067SOL    HW263780   1.316   5.714   1.060 -1.2058 -0.0231  1.4304
21068SOL     OW63781   9.522   9.244   8.531 -0.0818 -0.2979  0.5248
21068SOL    HW163782   9.549   9.213   8.445 -2.2251 -2.3059  0.4810
21068SOL    HW263783   9.519   9.165   8.585  3.6871  1.1426  3.3303
21069SOL     OW63784   6.809   0.331   7.767 -0.6036 -0.2421  0.8001
21069SOL    HW163785   6.769   0.396   7.710 -0.9410  0.6928  2.0590
21069SOL    HW263786   6.881   0.295   7.715 -1.1787  0.2490 -0.3704
21070SOL     OW63787   7.070   4.874   6.199  0.1415 -0.5693 -0.1426
21070SOL    HW163788   7.063   4.894   6.105 -0.8558 -0.7088 -0.1093
21070SOL    HW263789   7.163   4.884   6.218  0.1239  1.1388 -0.7693
21071SOL     OW63790   9.163   7.083   4.110  0.0412  0.1228 -0.1501
21071SOL    HW163791   9.116   7.023   4.168  1.0386 -0.9315 -0.3870
21071SOL    HW263792   9.217   7.136   4.169 -1.1206  1.0769  0.0899
21072SOL     OW63793   9.592   1.348   6.871 -0.0430  0.2682 -0.6621
21072SOL    HW163794   9.594   1.433   6.915  0.7210 -0.5858  1.0896
21072SOL    HW263795   9.593   1.369   6.778 -2.9924  2.2088 -0.3794
21073SOL     OW63796   1.287   9.886   4.545 -0.8027  0.4028 -0.1153
21073SOL    HW163797   1.358   9.847   4.494  0.0354 -0.4550  1.6148
21073SOL    HW263798   1.216   9.821   4.541  0.5431 -1.4125  2.6511
21074SOL     OW63799   8.014   5.027   6.948  0.4291 -0.5954  0.5379
21074SOL    HW163800   8.008   5.050   7.040  0.0676  0.5674  0.2405
21074SOL    HW263801   8.082   5.085   6.913  1.2704 -1.7098  0.2698
21075SOL     OW63802   7.468   8.208   7.335 -0.3734  0.1061  0.3015
21075SOL    HW163803   7.385   8.231   7.377 -0.9358 -1.1106 -0.1164
21075SOL    HW263804   7.514   8.292   7.325 -1.1125  0.6706  1.4430
21076SOL     OW63805   7.306   5.263   1.606 -0.1157 -0.1135  0.3696
21076SOL    HW163806   7.360   5.341   1.592 -0.7118  0.2696  0.1699
21076SOL    HW263807   7.334   5.202   1.538  0.0018  0.1125  0.2134
21077SOL     OW63808   8.173   7.315   2.159  0.0495  0.3311 -0.2785
21077SOL    HW163809   8.222   7.239   2.129  0.3724  1.2414 -2.1863
21077SOL    HW263810   8.123   7.283   2.234  1.8665 -1.1730  0.3672
21078SOL     OW63811   4.700   8.909   7.190 -0.5484  0.3201  0.2712
21078SOL    HW163812   4.766   8.849   7.156  0.8668  1.2127  1.3358
21078SOL    HW263813   4.639   8.853   7.238 -0.0486 -0.4130  0.0729
21079SOL     OW63814   0.660   6.827   7.629 -0.2378 -0.4836  0.1749
21079SOL    HW163815   0.717   6.871   7.566  0.6606 -0.8997  0.6861
21079SOL    HW263816   0.668   6.734   7.610  0.4692 -0.6575  1.2391
21080SOL     OW63817   0.121   5.817   2.997  0.4947  0.2132 -0.6586
21080SOL    HW163818   0.038   5.790   2.959 -0.1088  0.5551  0.3767
21080SOL    HW263819   0.135   5.906   2.964  0.1307  0.3908 -0.3472
21081SOL     OW63820   5.009   4.478   2.079 -0.4603 -0.5004  0.7360
21081SOL    HW163821   5.015   4.385   2.058  0.8933 -0.2390 -0.1379
21081SOL    HW263822   5.062   4.489   2.158 -0.9382 -0.5150  1.0688
21082SOL     OW63823   9.791   9.427   3.384 -0.9896 -0.0764  0.2899
21082SOL    HW163824   9.698   9.416   3.402 -1.3078  2.0281  0.1373
21082SOL    HW263825   9.809   9.519   3.402  0.9953 -0.3501 -0.0189
21083SOL     OW63826   3.035   6.226   6.806  0.2699 -0.4527 -0.4738
21083SOL    HW163827   3.049   6.235   6.712 -2.6215  0.4490 -0.9266
21083SOL    HW263828   3.047   6.315   6.840 -2.0076 -0.0359 -0.6071
21084SOL     OW63829   3.339   2.750   2.063 -0.4829 -0.6902  0.5282
21084SOL    HW163830   3.291   2.669   2.078 -0.4186 -0.9524 -0.6295
21084SOL    HW263831   3.369   2.745   1.972  2.2201 -0.8008  1.3179
21085SOL     OW63832   5.034   8.220   5.697  0.7155 -0.4673  0.0677
21085SOL    HW163833   5.076   8.275   5.631 -0.2922  0.7924  0.4336
21085SOL    HW263834   5.050   8.130   5.667  1.6369  0.0318 -1.0184
21086SOL     OW63835   3.770   8.442   1.162 -0.0818  0.2786 -0.2412
21086SOL    HW163836   3.688   8.397   1.183  0.6668 -0.6794  0.7600
21086SOL    HW263837   3.800   8.399   1.081  0.6987 -1.1963  0.7825
21087SOL     OW63838   9.547   5.875   8.295  0.1445  0.2234 -0.1198
21087SOL    HW163839   9.533   5.968   8.278  0.3496  0.2521 -0.1343
21087SOL    HW263840   9.459   5.840   8.313  0.2524  0.7888  1.7611
21088SOL     OW63841   5.067   2.240   1.516  0.3408 -0.5564  0.0147
21088SOL    HW163842   5.062   2.283   1.431  1.1768  1.9392  1.1450
21088SOL    HW263843   5.160   2.237   1.537  0.1867 -1.5792  0.6729
21089SOL     OW63844   4.181   9.984   1.723  0.0244 -0.3693 -0.0512
21089SOL    HW163845   4.197   9.929   1.646  0.8117  1.0926 -0.9659
21089SOL    HW263846   4.114   9.936   1.773 -0.6967 -1.2337 -1.7659
21090SOL     OW63847   0.095   4.896   8.354 -0.2975 -0.7892 -0.0138
21090SOL    HW163848   0.134   4.954   8.419 -0.6039 -1.8680  1.1727
21090SOL    HW263849   0.033   4.951   8.306  0.8025  0.3188 -0.2239
21091SOL     OW63850   0.239   0.219   8.961 -1.1890  0.3253 -0.3243
21091SOL    HW163851   0.202   0.292   9.011  0.6359  0.0251  1.5886
21091SOL    HW263852   0.228   0.142   9.018  0.6422 -0.0895 -0.4456
21092SOL     OW63853   2.573   1.361   5.004 -0.1438  0.1308  0.3290
21092SOL    HW163854   2.665   1.338   4.989  0.3510  1.1245  1.6006
21092SOL    HW263855   2.577   1.432   5.068 -1.6196  2.4879 -1.9592
21093SOL     OW63856   0.286   4.316   2.011  0.2243 -0.9408  0.3597
21093SOL    HW163857   0.304   4.222   2.008  1.1498 -0.7601 -0.3919
21093SOL    HW263858   0.275   4.341   1.919  1.3333 -0.0793  0.4420
21094SOL     OW63859   2.124   1.466   5.586 -0.1919 -0.4448 -0.0068
21094SOL    HW163860   2.146   1.405   5.516 -0.8503 -1.0215  0.2704
21094SOL    HW263861   2.180   1.441   5.659 -1.5836 -1.8421  0.6637
21095SOL     OW63862   3.860   7.907   8.785 -0.0697 -0.3790 -0.5427
21095SOL    HW163863   3.934   7.962   8.811 -0.4954  1.0655 -2.2573
21095SOL    HW263864   3.835   7.861   8.866  0.2948  1.9522  0.9866
21096SOL     OW63865   2.882   2.968   2.296  0.0470 -0.5617 -0.2270
21096SOL    HW163866   2.886   2.889   2.242 -0.5012 -1.2657  0.7449
21096SOL    HW263867   2.946   3.027   2.255 -0.5584 -0.9477 -1.8254
21097SOL     OW63868   5.781   3.349   8.788 -0.0639 -0.0802  0.1658
21097SOL    HW163869   5.812   3.436   8.762  0.8382 -0.0152  1.3552
21097SOL    HW263870   5.740   3.313   8.709  3.1272 -0.1650 -1.6266
21098SOL     OW63871   3.938   9.614   4.084 -0.3081 -0.3862  0.6061
21098SOL    HW163872   3.875   9.636   4.153 -0.7938 -0.5378  0.2155
21098SOL    HW263873   3.924   9.681   4.016  0.1612 -0.2424  0.6445
21099SOL     OW63874   2.713   7.137   1.256  0.6110 -0.1438  0.2548
21099SOL    HW163875   2.787   7.124   1.317  1.2851 -2.0242 -0.8676
21099SOL    HW263876   2.754   7.153   1.172 -0.3191  1.1597  0.0170
21100SOL     OW63877   9.402   5.660   1.785  0.6534 -0.6074  0.2362
21100SOL    HW163878   9.314   5.649   1.820  0.4463  0.1651 -0.0263
21100SOL    HW263879   9.453   5.696   1.857  0.5876 -0.4047  0.1808
21101SOL     OW63880   9.510   4.863   5.483 -0.1298 -0.5168  0.1791
21101SOL    HW163881   9.502   4.842   5.576 -0.5973 -0.3049  0.1943
21101SOL    HW263882   9.422   4.846   5.448 -0.5001  1.1978  0.1603
21102SOL     OW63883   4.534   4.863   5.830  0.9194  0.5343  0.0138
21102SOL    HW163884   4.586   4.828   5.902  0.6349 -0.5437 -0.2755
21102SOL    HW263885   4.533   4.792   5.765 -0.8604  0.5108  0.0014
21103SOL     OW63886   3.120   2.092   8.139 -0.2272  0.4636 -0.2528
21103SOL    HW163887   3.154   2.013   8.182  0.0735  1.3259  1.1376
21103SOL    HW263888   3.026   2.075   8.132 -0.5045  0.7628  1.8933
21104SOL     OW63889   9.257   2.042   4.800  0.6060  0.1219  0.6564
21104SOL    HW163890   9.237   1.952   4.827 -1.1913  0.6390  1.1660
21104SOL    HW263891   9.234   2.044   4.707 -0.4706  0.3179  0.9034
21105SOL     OW63892   9.848   6.828   5.739  0.2477  1.1175  0.0587
21105SOL    HW163893   9.927   6.782   5.709  0.8148  1.7803  0.5114
21105SOL    HW263894   9.881   6.906   5.783 -0.6126  0.8055  1.3109
21106SOL     OW63895   4.640   4.499   5.426  0.1270 -0.9022  0.3768
21106SOL    HW163896   4.716   4.449   5.398 -0.6234 -0.7792 -2.1254
21106SOL    HW263897   4.587   4.438   5.477  0.6941 -1.7241 -0.0123
21107SOL     OW63898   2.699   8.335   5.731 -0.5903 -0.0068 -0.1605
21107SOL    HW163899   2.736   8.407   5.782 -1.0776 -0.3724  0.7444
21107SOL    HW263900   2.628   8.374   5.682 -1.0955  0.0749  0.6150
21108SOL     OW63901   2.039   6.039   0.178  0.1544 -0.3682 -0.3768
21108SOL    HW163902   2.068   6.129   0.165 -0.5852 -0.1833 -0.8045
21108SOL    HW263903   1.978   6.023   0.106 -1.3247 -0.5168  0.8515
21109SOL     OW63904   4.284   5.810   6.125 -0.4197  0.2034  0.0875
21109SOL    HW163905   4.226   5.741   6.092 -0.9674  0.6035  0.1942
21109SOL    HW263906   4.245   5.891   6.093  0.4597  0.4449 -0.3999
21110SOL     OW63907   9.825   2.403   4.494 -0.3029  0.2620  0.0011
21110SOL    HW163908   9.783   2.489   4.489  0.1978  0.6437  1.5832
21110SOL    HW263909   9.914   2.417   4.462 -0.3062  0.2726 -0.0040
21111SOL     OW63910   6.800   7.611   6.536  0.8367 -0.0871  0.1268
21111SOL    HW163911   6.707   7.590   6.549  0.5826  0.2129 -1.0776
21111SOL    HW263912   6.803   7.657   6.452  2.2888 -1.5516 -0.6757
21112SOL     OW63913   7.823   0.857   9.374 -0.7646 -0.0413 -0.3884
21112SOL    HW163914   7.883   0.782   9.384 -1.5603 -0.8557 -1.5393
21112SOL    HW263915   7.839   0.910   9.453  1.3482 -0.2963 -0.5772
21113SOL     OW63916   9.055   0.611   8.455 -0.3951 -0.5386  0.0135
21113SOL    HW163917   9.127   0.672   8.434  0.1869  0.2606  3.5656
21113SOL    HW263918   8.976   0.661   8.437 -0.1169 -0.8665 -2.4636
21114SOL     OW63919   3.334   3.454   1.640 -0.2473  0.1410  0.2471
21114SOL    HW163920   3.405   3.453   1.704 -0.5493 -2.1246  0.6542
21114SOL    HW263921   3.257   3.482   1.690 -0.0703  0.4249  0.3598
21115SOL     OW63922   8.993   0.169   7.318  0.3370 -1.1982 -0.0486
21115SOL    HW163923   8.960   0.141   7.233 -1.0016  1.2830 -0.4421
21115SOL    HW263924   8.951   0.111   7.381 -1.3526 -0.9018 -0.8705
21116SOL     OW63925   4.971   1.319   6.538  0.1425 -0.3272 -0.0696
21116SOL    HW163926   4.923   1.241   6.510  0.7746 -0.4936 -0.7232
21116SOL    HW263927   5.011   1.294   6.622 -0.3458 -0.4113  0.1421
21117SOL     OW63928   8.559   1.845   4.409 -0.1660  0.3550  0.1590
21117SOL    HW163929   8.591   1.772   4.463 -0.7569  0.9051  1.2878
21117SOL    HW263930   8.557   1.810   4.320 -0.6124 -1.0719  0.7029
21118SOL     OW63931   4.060   9.115   9.668 -0.2154  0.3774  0.3216
21118SOL    HW163932   4.152   9.097   9.683 -0.0808  1.0601  0.3330
21118SOL    HW263933   4.037   9.180   9.735 -0.4055  1.0854 -0.4265
21119SOL     OW63934   8.761   2.887   3.834  0.6750 -0.3187  0.0918
21119SOL    HW163935   8.760   2.945   3.758  0.6471  0.3310  0.5787
21119SOL    HW263936   8.770   2.946   3.909  1.4700 -1.0001  0.5462
21120SOL     OW63937   2.989   3.505   9.278  0.1687 -0.3732  0.1243
21120SOL    HW163938   3.005   3.456   9.198  1.3131  0.3426 -0.1200
21120SOL    HW263939   2.981   3.439   9.347  0.1086 -0.9559 -0.4412
21121SOL     OW63940   3.740   9.044   8.642 -0.3559  0.1788 -0.1871
21121SOL    HW163941   3.683   8.987   8.693 -0.0180  0.8892  1.0457
21121SOL    HW263942   3.809   9.070   8.704 -0.2315  1.5103 -0.8425
21122SOL     OW63943   8.244   5.447   3.756 -0.1627  0.0177 -0.2733
21122SOL    HW163944   8.278   5.506   3.689  1.9808 -2.2766 -1.3461
21122SOL    HW263945   8.151   5.438   3.735 -0.0875  1.3678 -1.3072
21123SOL     OW63946   4.501   9.229   9.829  0.2544  0.5177 -0.0677
21123SOL    HW163947   4.583   9.180   9.837 -0.4425 -0.6366  0.2216
21123SOL    HW263948   4.528   9.316   9.799  1.4304 -0.3732 -1.7657
21124SOL     OW63949   3.190   4.638   5.245 -0.4777  0.0381  0.5441
21124SOL    HW163950   3.275   4.611   5.211 -0.2707  0.8441  0.4048
21124SOL    HW263951   3.192   4.734   5.243 -1.4061  0.0677  0.4991
21125SOL     OW63952   8.235   2.080   7.886 -0.1197  0.0286  0.0857
21125SOL    HW163953   8.191   2.029   7.818  0.8346  0.5044 -0.9248
21125SOL    HW263954   8.259   2.162   7.843 -1.4368  1.2873  1.6262
21126SOL     OW63955   4.536   1.825   1.946  0.0502 -0.0116 -1.1059
21126SOL    HW163956   4.464   1.881   1.918 -0.1498 -0.1501 -0.8720
21126SOL    HW263957   4.497   1.738   1.957  0.1586  0.0036 -0.5697
21127SOL     OW63958   6.555   2.426   9.161  0.4333  0.1731 -0.0919
21127SOL    HW163959   6.638   2.435   9.115  0.0684 -0.7065 -0.9690
21127SOL    HW263960   6.508   2.358   9.113 -0.4021 -0.0316  0.9641
21128SOL     OW63961   6.220   0.366   4.518 -0.3743 -0.4055 -0.0973
21128SOL    HW163962   6.185   0.404   4.437 -1.3829 -0.3770  0.3360
21128SOL    HW263963   6.302   0.325   4.491  1.2997  2.8182 -0.4298
21129SOL     OW63964   5.532   9.703   0.536  0.0757  0.2329  0.3473
21129SOL    HW163965   5.438   9.701   0.517  0.2967  0.7419 -0.8842
21129SOL    HW263966   5.546   9.786   0.581  0.1381  0.8415 -0.7492
21130SOL     OW63967   2.251   0.282   1.652 -0.0354 -0.2191 -0.0145
21130SOL    HW163968   2.222   0.370   1.629  0.7611  0.5680  1.7301
21130SOL    HW263969   2.247   0.232   1.571  0.2423  1.6488 -1.2250
21131SOL     OW63970   9.525   2.904   0.027 -0.2139  0.5194 -0.3426
21131SOL    HW163971   9.552   2.815   0.004  0.1496  0.7766 -0.9401
21131SOL    HW263972   9.456   2.892   0.092 -0.5545 -0.2093 -0.8261
21132SOL     OW63973   6.837   2.607   6.182 -0.2734 -0.0696  0.2209
21132SOL    HW163974   6.832   2.641   6.271 -0.9690  0.7894 -0.1345
21132SOL    HW263975   6.750   2.623   6.144  0.3453  0.6503 -0.9795
21133SOL     OW63976   8.593   4.621   3.048 -0.3226 -0.6584 -0.1311
21133SOL    HW163977   8.607   4.549   2.988 -0.2780 -2.9508  2.4246
21133SOL    HW263978   8.524   4.590   3.107  0.0385  1.1806  1.3698
21134SOL     OW63979   3.437   5.899   6.793 -0.4328 -0.4619  0.2026
21134SOL    HW163980   3.362   5.890   6.734 -0.4362 -1.6118  0.3508
21134SOL    HW263981   3.411   5.968   6.854  0.2286  1.9389 -2.0702
21135SOL     OW63982   5.843   8.310   3.058  0.1533  0.4282  0.1289
21135SOL    HW163983   5.898   8.358   2.997  0.6652 -0.1385  0.1359
21135SOL    HW263984   5.805   8.378   3.114  0.9520  0.8216  0.2109
21136SOL     OW63985   1.077   7.989   7.070 -0.4912 -0.2852 -0.0602
21136SOL    HW163986   1.100   7.960   6.982  0.9403  2.7870 -0.8413
21136SOL    HW263987   1.161   7.998   7.115 -0.8298  2.0445  0.2235
21137SOL     OW63988   6.696   9.882   2.941  0.2233  0.3956 -0.2394
21137SOL    HW163989   6.761   9.825   2.981  1.8017  2.1048 -0.2251
21137SOL    HW263990   6.639   9.908   3.013 -0.1459 -0.6191 -0.1403
21138SOL     OW63991   3.769   6.787   7.770  0.3104 -0.4574  0.1976
21138SOL    HW163992   3.732   6.756   7.852 -0.0376  2.9228  1.4845
21138SOL    HW263993   3.848   6.835   7.796 -0.2480  1.4061 -1.2666
21139SOL     OW63994   1.778   3.472   8.771  0.1979  0.1830 -0.0701
21139SOL    HW163995   1.797   3.395   8.718 -0.7358  0.5667 -1.0044
21139SOL    HW263996   1.701   3.447   8.823 -1.0601  0.9450 -1.4845
21140SOL     OW63997   1.468   8.286   2.923 -0.0473  0.1527  0.7037
21140SOL    HW163998   1.373   8.282   2.911 -0.5960  2.2805  3.2555
21140SOL    HW263999   1.491   8.376   2.899  1.9873 -1.1327 -2.8959
21141SOL     OW64000   0.109   2.756   4.188 -0.6356 -0.4785  0.0080
21141SOL    HW164001   0.127   2.850   4.194 -0.1964 -0.5072 -0.6971
21141SOL    HW264002   0.186   2.721   4.143 -1.5003 -0.9473 -1.1238
21142SOL     OW64003   4.453   2.466   2.626 -0.3019  0.1420 -0.0571
21142SOL    HW164004   4.464   2.552   2.667  1.3102  0.0341 -0.1767
21142SOL    HW264005   4.378   2.427   2.670 -0.6680  1.3612  0.4352
21143SOL     OW64006   2.413   1.368   3.744  0.1531  0.3108 -0.1701
21143SOL    HW164007   2.435   1.445   3.796 -1.5495 -0.3576  1.6705
21143SOL    HW264008   2.496   1.340   3.706  1.3374  1.3188  1.5520
21144SOL     OW64009   8.331   0.818   6.644 -0.2236  0.2362 -0.7582
21144SOL    HW164010   8.328   0.741   6.700  2.2262 -1.6727 -2.9937
21144SOL    HW264011   8.396   0.875   6.686 -0.8516  0.3688  0.0530
21145SOL     OW64012   2.795   3.383   0.061 -0.2220 -0.2028  0.1397
21145SOL    HW164013   2.759   3.364  -0.026  0.4005 -1.0287  0.0492
21145SOL    HW264014   2.888   3.397   0.045  0.2442 -2.1547  0.8917
21146SOL     OW64015   5.007   4.904   4.697 -0.3318  0.5300  0.1567
21146SOL    HW164016   5.042   4.992   4.710  1.6408 -0.3364  1.0630
21146SOL    HW264017   5.061   4.866   4.628 -2.0182  0.4268 -1.1777
21147SOL     OW64018   7.348   1.529   9.841 -0.3984  0.3569  0.0393
21147SOL    HW164019   7.431   1.528   9.792 -0.3219 -0.8557  0.1655
21147SOL    HW264020   7.287   1.573   9.783  0.0009  0.0365 -0.6410
21148SOL     OW64021   0.314   1.982   1.111 -0.5277  0.3269  0.2590
21148SOL    HW164022   0.252   1.960   1.042 -1.9298  0.3559  1.4610
21148SOL    HW264023   0.289   2.070   1.139  0.2108  0.4370  0.5897
21149SOL     OW64024   9.299   8.285   7.327 -0.0001 -0.2377 -0.3859
21149SOL    HW164025   9.229   8.348   7.312  1.2865  1.5401  0.6812
21149SOL    HW264026   9.315   8.290   7.422  2.2738  0.2143 -0.7570
21150SOL     OW64027   8.461   6.962   4.303 -0.1025  0.4462 -0.3282
21150SOL    HW164028   8.436   6.940   4.393  3.1651  0.3599  0.6920
21150SOL    HW264029   8.433   7.053   4.292 -1.7811  0.0365  0.2238
21151SOL     OW64030   8.664   8.880   3.795 -1.1876  0.5101 -0.5810
21151SOL    HW164031   8.707   8.849   3.716  0.2678  0.8747  0.0359
21151SOL    HW264032   8.673   8.976   3.791 -1.1015  0.5327  0.0151
21152SOL     OW64033   5.764   2.447   3.742 -0.2539 -0.3290 -0.4784
21152SOL    HW164034   5.683   2.483   3.705 -1.3552 -1.4388  0.7582
21152SOL    HW264035   5.798   2.390   3.674 -0.1240  0.6659 -1.2715
21153SOL     OW64036   2.893   7.593   2.410 -0.6698 -0.0120 -0.0312
21153SOL    HW164037   2.976   7.555   2.382 -0.7572  0.6792 -1.3114
21153SOL    HW264038   2.865   7.647   2.336 -1.6491  0.7532  0.8601
21154SOL     OW64039   0.721   8.332   1.642 -0.2846 -0.0522 -0.1517
21154SOL    HW164040   0.805   8.320   1.687 -0.8125  0.5340  1.0312
21154SOL    HW264041   0.655   8.314   1.709 -1.0971  1.5757 -0.4722
21155SOL     OW64042   7.021   0.726   7.898  0.2641  0.0872  0.3358
21155SOL    HW164043   6.972   0.751   7.820  3.1739 -0.3299 -1.8210
21155SOL    HW264044   7.012   0.630   7.902 -0.3261  0.1561  0.8890
21156SOL     OW64045   0.247   9.298   5.635  0.6824 -0.0427  0.0103
21156SOL    HW164046   0.332   9.342   5.634  0.5749  0.1662  0.1686
21156SOL    HW264047   0.232   9.274   5.543  1.8412 -1.8772  0.2357
21157SOL     OW64048   8.386   5.079   5.029  0.0568  0.4087 -0.6361
21157SOL    HW164049   8.326   5.087   5.103  0.2897  0.4236 -0.4473
21157SOL    HW264050   8.330   5.086   4.952 -0.3335 -0.7355 -0.4737
21158SOL     OW64051   1.282   4.893   2.202  0.3875  0.0611  0.0445
21158SOL    HW164052   1.234   4.899   2.285 -0.0593  0.8450 -0.2659
21158SOL    HW264053   1.316   4.981   2.187 -1.7470  0.6558 -1.8843
21159SOL     OW64054   1.638   5.649   5.801  0.0765 -0.4718  0.4331
21159SOL    HW164055   1.572   5.717   5.791  0.1273 -0.5446 -0.4950
21159SOL    HW264056   1.651   5.642   5.895  0.5159  1.2332  0.5373
21160SOL     OW64057   1.913   2.828   7.365 -0.2300  0.2830  0.2473
21160SOL    HW164058   1.929   2.735   7.381  0.7245  0.1843 -1.1216
21160SOL    HW264059   2.000   2.865   7.350 -0.6231  1.3621  0.5296
21161SOL     OW64060   4.386   8.187   8.606 -0.0052 -0.5868  0.2243
21161SOL    HW164061   4.387   8.092   8.606  0.3018 -0.5916  1.1300
21161SOL    HW264062   4.478   8.212   8.599 -0.1998 -0.3135 -2.5033
21162SOL     OW64063   4.133   6.146   8.862  0.0458 -0.4893  0.2400
21162SOL    HW164064   4.131   6.071   8.921  0.0192 -0.9739 -0.3729
21162SOL    HW264065   4.226   6.168   8.855  0.1068 -0.8593 -0.0827
21163SOL     OW64066   4.347   5.650   4.648 -0.1850 -0.2110  1.0252
21163SOL    HW164067   4.419   5.596   4.681  0.4156  0.4101  0.7628
21163SOL    HW264068   4.271   5.592   4.648  0.0573 -0.5674  2.3884
21164SOL     OW64069   9.660   6.361   5.593  0.4073  0.3216  0.0597
21164SOL    HW164070   9.701   6.427   5.648  0.3027  0.5819 -0.1741
21164SOL    HW264071   9.723   6.344   5.523  0.3096  0.3916 -0.0467
21165SOL     OW64072   3.292   1.683   3.422  0.2032 -0.1293  0.8655
21165SOL    HW164073   3.251   1.643   3.499  0.6503 -1.4794  0.4295
21165SOL    HW264074   3.259   1.773   3.421 -1.9951 -0.8632  1.0913
21166SOL     OW64075   2.865   4.962   1.060  0.0848  0.3083  0.8456
21166SOL    HW164076   2.846   5.012   0.981 -1.7241 -1.7241 -0.1131
21166SOL    HW264077   2.945   4.913   1.039 -0.0268  0.2704  0.4980
21167SOL     OW64078   0.358   5.936   9.289 -0.5408  0.2797 -0.1989
21167SOL    HW164079   0.294   5.983   9.235  0.5383  0.4551 -1.3884
21167SOL    HW264080   0.397   6.004   9.343  0.3603  0.6344 -1.2525
21168SOL     OW64081   1.935   1.625   5.474 -0.4061 -0.2462 -0.1204
21168SOL    HW164082   1.981   1.557   5.523 -0.6759  0.3241  0.9569
21168SOL    HW264083   1.924   1.697   5.537 -1.9265  0.0025 -0.6270
21169SOL     OW64084   6.843   3.800   4.372  0.2512  0.7926 -0.2253
21169SOL    HW164085   6.814   3.865   4.308  1.0517  1.2597 -0.1233
21169SOL    HW264086   6.795   3.720   4.348 -0.2776  1.2502 -0.7272
21170SOL     OW64087   6.015   3.047   9.091  0.4264  0.3145 -0.0216
21170SOL    HW164088   6.028   3.106   9.018  1.3209 -0.8044 -0.8019
21170SOL    HW264089   6.061   3.089   9.164  0.6117  0.8286 -0.4262
21171SOL     OW64090   1.435   2.623   8.991  0.1862  0.2783  0.3878
21171SOL    HW164091   1.369   2.599   8.926 -0.7186  1.4636  0.8326
21171SOL    HW264092   1.441   2.718   8.986  2.4943  0.1540 -0.2085
21172SOL     OW64093   1.820   3.628   3.312  0.7519  0.0654  0.4223
21172SOL    HW164094   1.802   3.722   3.318  0.8935  0.0598  0.9726
21172SOL    HW264095   1.896   3.614   3.368 -0.4178 -0.6798  1.8800
21173SOL     OW64096   3.075   2.610   0.810  0.1899 -0.2411  0.6155
21173SOL    HW164097   2.982   2.597   0.788 -0.2546  0.6959  1.8690
21173SOL    HW264098   3.085   2.704   0.819  1.1146 -0.3764  1.1309
21174SOL     OW64099   7.712   2.493   8.466  0.1805  0.1719  0.2551
21174SOL    HW164100   7.700   2.404   8.499  1.1527 -0.4954 -1.1130
21174SOL    HW264101   7.623   2.529   8.462 -0.2111 -0.6649  0.9617
21175SOL     OW64102   9.024   4.174   7.637 -0.2519 -0.4679  0.0833
21175SOL    HW164103   9.029   4.193   7.731  2.0031  2.3707 -0.4601
21175SOL    HW264104   9.115   4.158   7.611 -0.5788  0.5220 -1.8793
21176SOL     OW64105   2.286   3.724   6.433 -0.4863  0.1671 -0.2918
21176SOL    HW164106   2.302   3.795   6.371  1.8813  0.4957  0.5723
21176SOL    HW264107   2.191   3.712   6.433 -0.6346  0.4741 -3.5744
21177SOL     OW64108   5.339   4.445   1.374 -0.6978 -0.2695 -0.1784
21177SOL    HW164109   5.274   4.380   1.349 -1.0307 -0.0636  0.1418
21177SOL    HW264110   5.331   4.514   1.308  0.4694 -1.0755 -1.2136
21178SOL     OW64111   2.737   4.918   1.813  0.0443 -0.4694 -0.1687
21178SOL    HW164112   2.643   4.930   1.829 -0.1102 -1.4282 -0.3214
21178SOL    HW264113   2.771   5.007   1.808 -0.2072 -0.0187  3.4974
21179SOL     OW64114   7.141   4.138   2.917  0.4208  0.1598  0.3668
21179SOL    HW164115   7.058   4.183   2.935  0.7042  0.8640 -0.0521
21179SOL    HW264116   7.199   4.207   2.886  1.7344  0.0251  2.3763
21180SOL     OW64117   2.042   1.965   4.110 -0.6240  0.2226  0.8207
21180SOL    HW164118   2.062   2.057   4.091 -2.1313  0.4330  0.1383
21180SOL    HW264119   1.947   1.961   4.112 -0.5940 -1.4830  0.1141
21181SOL     OW64120   1.370   5.956   1.414  0.0699  0.0102 -1.0540
21181SOL    HW164121   1.425   5.878   1.419 -0.5449 -0.3471  1.1501
21181SOL    HW264122   1.408   6.007   1.342  2.3490 -0.9276 -0.6020
21182SOL     OW64123   8.636   4.172   7.264 -0.4851  0.1845  0.0251
21182SOL    HW164124   8.729   4.191   7.275 -0.8074  1.9392 -0.0535
21182SOL    HW264125   8.634   4.099   7.202  0.8366  0.1723 -0.0345
21183SOL     OW64126   7.212   6.804   2.343  0.1035 -0.1959  0.2080
21183SOL    HW164127   7.226   6.717   2.305  0.1957  0.0752 -0.4014
21183SOL    HW264128   7.180   6.787   2.432  0.3357 -0.8496  0.1746
21184SOL     OW64129   1.879   8.999   8.105  0.2839 -0.3877 -0.0822
21184SOL    HW164130   1.896   9.029   8.194 -0.9694  0.2659 -0.0366
21184SOL    HW264131   1.785   9.014   8.092  0.2410 -1.4020 -1.1689
21185SOL     OW64132   7.329   2.408   8.640 -0.7819 -0.1691  0.7279
21185SOL    HW164133   7.301   2.318   8.656  2.0621 -1.1277  0.7499
21185SOL    HW264134   7.306   2.425   8.549  0.2158 -1.5873  0.1787
21186SOL     OW64135   0.488   5.420   5.104  0.3628 -0.0004 -0.3824
21186SOL    HW164136   0.539   5.498   5.084  1.9728 -0.9754 -0.2511
21186SOL    HW264137   0.438   5.444   5.183 -0.1874  1.2926 -1.0780
21187SOL     OW64138   5.607   9.110   7.606  0.3080  0.9678  0.2935
21187SOL    HW164139   5.527   9.086   7.652  0.5557 -2.5832 -0.7919
21187SOL    HW264140   5.673   9.119   7.675 -0.4124  0.9731  0.9881
21188SOL     OW64141   4.873   1.042   6.556 -0.8442 -0.6279 -0.5143
21188SOL    HW164142   4.853   0.979   6.625  1.5117 -0.5446  0.3369
21188SOL    HW264143   4.862   0.993   6.475 -2.0613 -1.1965 -0.0438
21189SOL     OW64144   1.177   0.675   4.639  0.4028 -0.3340  0.0695
21189SOL    HW164145   1.177   0.620   4.561  1.9377 -0.0773 -0.1447
21189SOL    HW264146   1.221   0.624   4.706  1.6222  0.5030 -0.0612
21190SOL     OW64147   2.675   4.757   1.010 -0.2436  0.3572 -0.1963
21190SOL    HW164148   2.739   4.820   1.041 -0.7441  0.3263  0.9583
21190SOL    HW264149   2.725   4.694   0.958  0.3797  1.2368 -0.6819
21191SOL     OW64150   6.978   6.833   0.271 -0.3717 -0.0345  0.3621
21191SOL    HW164151   7.001   6.753   0.319  0.6184  0.8961  1.4738
21191SOL    HW264152   6.928   6.885   0.333 -2.7212 -0.5526 -0.9635
21192SOL     OW64153   4.508   2.193   4.182 -0.2822 -0.7635  1.1783
21192SOL    HW164154   4.434   2.242   4.145  0.6002 -0.3008 -0.0485
21192SOL    HW264155   4.478   2.102   4.182 -0.2503 -0.8222 -0.9702
21193SOL     OW64156   0.011   9.041   9.829 -0.0763  0.2167  0.9396
21193SOL    HW164157   0.046   9.103   9.894 -1.2317 -0.3135  2.1232
21193SOL    HW264158  -0.009   8.963   9.880 -0.2024 -0.5364 -0.2429
21194SOL     OW64159   4.022   7.087   8.234  0.2684  0.7272  0.4989
21194SOL    HW164160   3.996   7.021   8.297  0.3302  0.8885  0.6951
21194SOL    HW264161   4.115   7.070   8.219 -0.3282 -1.0917 -1.6798
21195SOL     OW64162   2.896   7.943   8.085 -0.2278  0.3854 -0.0091
21195SOL    HW164163   2.868   7.860   8.047 -0.1252  0.4267 -0.1771
21195SOL    HW264164   2.921   7.922   8.175 -0.2478  0.2433 -0.0378
21196SOL     OW64165   1.137   4.280   5.984  0.1139  0.1668 -0.0396
21196SOL    HW164166   1.130   4.224   6.061  1.1671 -1.4245 -1.0475
21196SOL    HW264167   1.156   4.367   6.019 -0.8141 -0.2284  1.5359
21197SOL     OW64168   1.984   3.780   2.266  0.0941  0.0044  0.0956
21197SOL    HW164169   1.955   3.868   2.289  1.2159  0.3114  0.4055
21197SOL    HW264170   2.020   3.789   2.177 -0.3329 -0.2707 -0.1074
21198SOL     OW64171   7.051   6.829   3.089  0.1896  0.2761 -0.7380
21198SOL    HW164172   7.009   6.747   3.063  1.3378  0.1142 -2.2206
21198SOL    HW264173   7.144   6.807   3.092  0.3201  0.9731  1.1044
21199SOL     OW64174   2.524   5.081   9.709 -0.6016 -0.1212 -0.4326
21199SOL    HW164175   2.444   5.132   9.721 -0.8240 -1.0743  3.7611
21199SOL    HW264176   2.493   4.993   9.688 -0.9400 -0.9124  2.8712
21200SOL     OW64177   3.948   6.843   4.235 -0.1097  0.3717  0.8112
21200SOL    HW164178   3.931   6.754   4.266  2.5731 -1.0231 -1.3197
21200SOL    HW264179   3.918   6.843   4.144 -1.1938  2.1014  1.1118
21201SOL     OW64180   8.955   2.115   8.436  0.0199  0.1867  0.1649
21201SOL    HW164181   9.049   2.097   8.433  0.0597 -0.1074  2.0250
21201SOL    HW264182   8.926   2.105   8.346  1.5798 -0.7566 -0.2742
21202SOL     OW64183   3.297   1.224   9.151 -0.1518 -0.0942  0.0482
21202SOL    HW164184   3.331   1.247   9.065 -1.5607 -1.8963 -1.0757
21202SOL    HW264185   3.358   1.157   9.183 -0.2891 -0.2829 -0.0844
21203SOL     OW64186   8.716   0.832   1.786  0.3769 -0.0297  0.1718
21203SOL    HW164187   8.751   0.799   1.868 -1.1833 -1.5729  0.2804
21203SOL    HW264188   8.731   0.762   1.723  1.3416  1.0402 -0.8276
21204SOL     OW64189   4.268   0.103   1.989 -0.7414  0.1358  0.1853
21204SOL    HW164190   4.222   0.062   1.916  0.5630 -2.0831  0.5253
21204SOL    HW264191   4.275   0.195   1.965 -0.1818 -0.5442 -2.5779
21205SOL     OW64192   1.515   9.163   0.751 -0.1675 -0.7908 -0.2566
21205SOL    HW164193   1.490   9.222   0.679 -0.6297 -0.1442  0.4192
21205SOL    HW264194   1.608   9.146   0.736 -0.0928 -0.1031 -0.6182
21206SOL     OW64195   1.306   0.214   1.622  0.9319  0.5103  0.5823
21206SOL    HW164196   1.302   0.244   1.713  1.2345  1.6737  0.2309
21206SOL    HW264197   1.368   0.141   1.624 -0.5167 -0.7466  1.6169
21207SOL     OW64198   8.999   5.319   5.436  0.2719 -0.4991  0.0521
21207SOL    HW164199   8.960   5.234   5.414  0.8039 -0.4420 -1.2332
21207SOL    HW264200   9.073   5.297   5.492  0.0260 -0.8304  0.2517
21208SOL     OW64201   1.585   0.984   9.170  0.5057  0.6094 -0.3234
21208SOL    HW164202   1.597   0.889   9.164  1.1341  0.7331 -1.2458
21208SOL    HW264203   1.503   1.001   9.125  1.7502  0.7717 -2.6689
21209SOL     OW64204   5.344   5.186   0.867  0.3857 -0.8968 -0.0720
21209SOL    HW164205   5.349   5.165   0.961 -0.6878 -1.0564 -0.0288
21209SOL    HW264206   5.251   5.175   0.846  0.1771  1.4400 -0.6244
21210SOL     OW64207   2.483   9.515   9.267  0.0120 -0.1520 -0.3237
21210SOL    HW164208   2.419   9.472   9.210  0.0835 -0.8805  0.1243
21210SOL    HW264209   2.557   9.454   9.270 -0.1168 -0.2807  0.7808
21211SOL     OW64210   4.613   0.936   2.746 -0.3265 -0.4472  0.1085
21211SOL    HW164211   4.645   0.957   2.658  0.6272 -0.6842  0.3903
21211SOL    HW264212   4.577   0.848   2.738  1.2478 -1.1301  0.3131
21212SOL     OW64213   3.294   7.731   5.350  0.1416 -0.1484 -0.3921
21212SOL    HW164214   3.351   7.671   5.399  2.1690  2.6334  0.9350
21212SOL    HW264215   3.347   7.759   5.276 -0.8090 -0.0455 -1.0527
21213SOL     OW64216   9.707   1.653   4.900 -0.0277  0.5823  0.0749
21213SOL    HW164217   9.783   1.641   4.957 -1.3706  1.9347  2.2873
21213SOL    HW264218   9.744   1.660   4.812  2.1741 -1.2862  0.7451
21214SOL     OW64219   4.903   4.910   1.874  0.3039  0.5714  0.1441
21214SOL    HW164220   4.901   4.991   1.924  2.5463  0.9816 -0.3250
21214SOL    HW264221   4.879   4.936   1.785 -1.2152  0.2737  0.4323
21215SOL     OW64222   6.462   9.415   6.839 -0.3804 -0.1867 -0.0765
21215SOL    HW164223   6.381   9.451   6.801 -0.5832 -1.1383 -0.5855
21215SOL    HW264224   6.437   9.389   6.927 -0.0092  1.6703  0.6247
21216SOL     OW64225   0.436   8.437   4.918 -0.3984  0.2373  0.7065
21216SOL    HW164226   0.497   8.448   4.845 -0.2372 -0.0211  0.8052
21216SOL    HW264227   0.477   8.372   4.975 -0.8585 -0.0882  0.6722
21217SOL     OW64228   8.143   4.764   1.784  0.3107  0.2388  0.3026
21217SOL    HW164229   8.239   4.771   1.789  0.4424 -1.2954  0.3521
21217SOL    HW264230   8.112   4.829   1.847  1.3072  0.9801  0.0603
21218SOL     OW64231   7.650   8.309   3.408 -0.0301  0.3127 -0.1291
21218SOL    HW164232   7.662   8.271   3.495  0.2496 -4.0116 -1.8045
21218SOL    HW264233   7.560   8.344   3.409 -0.9421 -1.8667  1.2533
21219SOL     OW64234   0.650   3.892   5.521 -0.1773 -0.2751 -0.3230
21219SOL    HW164235   0.723   3.844   5.559 -1.5918 -1.3170  1.2348
21219SOL    HW264236   0.599   3.825   5.474 -1.8273 -0.2784  1.3355
21220SOL     OW64237   3.278   3.303   3.948 -0.1228  0.1610 -0.4283
21220SOL    HW164238   3.304   3.363   4.018  1.1853 -0.8665  0.0246
21220SOL    HW264239   3.196   3.339   3.914  1.3210  3.0677 -1.2018
21221SOL     OW64240   5.684   4.835   1.444 -0.2088  0.1672  0.3942
21221SOL    HW164241   5.721   4.795   1.366 -3.4004  0.6665 -1.5518
21221SOL    HW264242   5.673   4.762   1.506  2.0183 -0.2907  0.3287
21222SOL     OW64243   3.921   8.934   1.466 -0.4927  0.2979  0.4267
21222SOL    HW164244   3.943   8.880   1.541  1.0342 -0.1315 -0.2835
21222SOL    HW264245   3.960   8.888   1.391 -2.5540  0.3385 -0.7529
21223SOL     OW64246   6.842   1.118   7.759  0.1172 -0.5150  0.6368
21223SOL    HW164247   6.784   1.071   7.819  0.4418 -0.0935  1.2881
21223SOL    HW264248   6.922   1.133   7.810  0.5449 -0.4966 -0.0326
21224SOL     OW64249   5.837   5.145   6.892 -0.6932 -0.1440  0.0614
21224SOL    HW164250   5.756   5.163   6.845 -0.6459 -0.0409  0.0214
21224SOL    HW264251   5.899   5.118   6.824 -0.6781 -0.1707  0.0854
21225SOL     OW64252   8.497   3.697   1.526 -0.9587 -0.2074 -0.3182
21225SOL    HW164253   8.415   3.683   1.574 -1.0075 -0.6184 -0.5173
21225SOL    HW264254   8.497   3.790   1.506 -0.4469  0.1926  1.3674
21226SOL     OW64255   5.602   1.660   4.268  0.6342  0.4158  0.1892
21226SOL    HW164256   5.595   1.747   4.230 -1.1452  0.0112 -0.5027
21226SOL    HW264257   5.518   1.647   4.313  0.5992 -1.1822 -0.2866
21227SOL     OW64258   7.688   8.803   6.728  0.0060  1.1224  0.2218
21227SOL    HW164259   7.758   8.770   6.784 -0.6025 -0.2716  0.1980
21227SOL    HW264260   7.731   8.819   6.644 -0.3233 -3.8308 -1.2006
21228SOL     OW64261   5.630   7.358   6.425 -0.1612 -0.2658 -0.3326
21228SOL    HW164262   5.579   7.351   6.506  0.5765  2.7145  0.5118
21228SOL    HW264263   5.585   7.302   6.363 -0.9495 -2.4345  2.0124
21229SOL     OW64264   8.150   8.766   8.134  0.0836 -0.0523  0.1254
21229SOL    HW164265   8.128   8.765   8.227  2.0784  0.9551  0.6756
21229SOL    HW264266   8.242   8.793   8.131 -0.5043  2.1635 -2.2556
21230SOL     OW64267   8.671   4.310   6.955  0.1577  0.1097  0.1732
21230SOL    HW164268   8.684   4.336   6.863  0.7549  0.5538  0.3763
21230SOL    HW264269   8.678   4.215   6.954 -0.4997  0.0568 -0.3455
21231SOL     OW64270   9.624   1.304   0.065 -0.3642 -0.0634 -0.0605
21231SOL    HW164271   9.660   1.375   0.118 -0.8807 -0.5091  0.9222
21231SOL    HW264272   9.559   1.263   0.122 -0.1389 -1.2645 -0.6386
21232SOL     OW64273   2.488   8.195   4.379 -0.6656  0.1858 -0.0798
21232SOL    HW164274   2.553   8.199   4.450 -1.2610 -0.1341  0.4934
21232SOL    HW264275   2.536   8.157   4.306  0.0527  0.8353  0.0366
21233SOL     OW64276   9.023   2.633   1.007 -0.2621 -0.3194 -0.0115
21233SOL    HW164277   8.979   2.707   0.965  0.0238 -0.1475 -0.0112
21233SOL    HW264278   8.993   2.556   0.958 -0.2575 -0.1641 -0.2620
21234SOL     OW64279   9.684   4.548   4.293 -0.1235 -0.2312  0.1274
21234SOL    HW164280   9.645   4.490   4.358  0.5980 -0.1463  0.6387
21234SOL    HW264281   9.778   4.532   4.299  0.1414  1.3808  0.6581
21235SOL     OW64282   7.831   0.366   3.273 -0.2677  0.5624 -0.1814
21235SOL    HW164283   7.895   0.377   3.202 -0.0031  0.0142 -0.0288
21235SOL    HW264284   7.810   0.273   3.273  0.5036  0.3629  1.1155
21236SOL     OW64285   7.767   6.438   5.154  0.2960 -0.7606 -0.2946
21236SOL    HW164286   7.827   6.363   5.152  0.0348 -1.0024  0.4893
21236SOL    HW264287   7.775   6.471   5.243 -1.1452 -1.1327 -0.0079
21237SOL     OW64288   3.040   3.423   0.912  0.4357  0.7675  0.4237
21237SOL    HW164289   2.968   3.443   0.851  0.6811 -0.4534 -0.3212
21237SOL    HW264290   3.038   3.494   0.976 -1.1480  1.0117  0.1615
21238SOL     OW64291   6.182   1.297   9.610 -0.3325  0.0155 -0.1697
21238SOL    HW164292   6.277   1.306   9.615 -0.3891  0.3830  0.2244
21238SOL    HW264293   6.169   1.208   9.577  0.1355 -0.3804  0.6759
21239SOL     OW64294   7.784   0.469   9.001 -0.9922  0.5677 -0.1056
21239SOL    HW164295   7.698   0.462   9.043 -1.2402  2.0797 -0.3101
21239SOL    HW264296   7.846   0.443   9.070 -1.5124  1.0791  0.5612
21240SOL     OW64297   7.451   1.506   9.178  0.3202 -0.2067  0.2659
21240SOL    HW164298   7.376   1.564   9.178  0.2812 -0.2091 -1.5769
21240SOL    HW264299   7.523   1.560   9.210 -0.3059 -0.0390  1.4628
21241SOL     OW64300   9.618   3.350   4.579 -0.9055 -0.0674 -0.9647
21241SOL    HW164301   9.579   3.339   4.665 -0.1699  0.0233 -0.6171
21241SOL    HW264302   9.631   3.261   4.547  0.4439 -0.1496 -0.2368
21242SOL     OW64303   7.631   8.772   5.400  0.0805  0.5761  1.0062
21242SOL    HW164304   7.541   8.740   5.412  0.0117  0.6548  0.6967
21242SOL    HW264305   7.629   8.860   5.439  0.3763  0.0577  2.2248
21243SOL     OW64306   3.011   0.674   7.788  0.0985  0.1603 -0.3638
21243SOL    HW164307   3.070   0.743   7.757  0.8432  0.1846  0.9976
21243SOL    HW264308   3.037   0.597   7.738  2.2765 -0.1677  1.1183
21244SOL     OW64309   4.403   0.898   8.065  0.1651  0.4836  0.0638
21244SOL    HW164310   4.445   0.899   8.151  0.6019 -3.4769  0.0729
21244SOL    HW264311   4.317   0.860   8.080 -0.9689  2.4726 -0.9237
21245SOL     OW64312   8.369   2.519   9.918 -0.4710  0.2931  0.2555
21245SOL    HW164313   8.433   2.506   9.848  2.1669 -0.6953  2.6757
21245SOL    HW264314   8.333   2.607   9.902 -0.6358 -0.2201 -2.7403
21246SOL     OW64315   3.736   6.250   5.812 -0.3699  0.0482  0.1713
21246SOL    HW164316   3.712   6.293   5.894 -0.6242 -1.1848  0.7722
21246SOL    HW264317   3.755   6.321   5.752  0.5702  0.9946  1.5279
21247SOL     OW64318   0.242   2.460   7.293 -0.1320  0.0305 -0.4779
21247SOL    HW164319   0.179   2.515   7.340 -1.3043 -0.3909 -1.5119
21247SOL    HW264320   0.256   2.385   7.351  0.5367  0.7962  0.3917
21248SOL     OW64321   4.526   4.361   5.884 -0.3383 -0.3199  0.2321
21248SOL    HW164322   4.433   4.380   5.895 -0.2594  0.7861 -0.7284
21248SOL    HW264323   4.548   4.401   5.800  1.1478 -0.0115  0.7455
21249SOL     OW64324   0.181   6.462   3.645 -0.0387 -0.2145  0.0873
21249SOL    HW164325   0.213   6.552   3.644  1.0692 -0.5884  0.5004
21249SOL    HW264326   0.112   6.462   3.711  1.6348 -0.1887  1.9426
21250SOL     OW64327   4.205   1.105   8.370  0.5703  0.5383 -0.2748
21250SOL    HW164328   4.229   1.049   8.296 -0.0256  1.9337 -1.5746
21250SOL    HW264329   4.120   1.140   8.346  0.0099  0.4452  1.4527
21251SOL     OW64330   8.227   2.960   8.918  0.2045  0.6618  0.0567
21251SOL    HW164331   8.196   2.892   8.858  3.6549 -1.8489  0.8014
21251SOL    HW264332   8.318   2.976   8.891 -0.0434  4.1315  0.7821
21252SOL     OW64333   6.237   9.130   0.093 -0.1721 -0.2337  0.8115
21252SOL    HW164334   6.171   9.187   0.133  0.3265  0.1776  1.0637
21252SOL    HW264335   6.282   9.090   0.168 -1.7564 -2.4781  0.6755
21253SOL     OW64336   9.468   6.891   5.789  0.0669  0.4519 -0.2847
21253SOL    HW164337   9.451   6.892   5.884  0.1020 -0.3530 -0.2651
21253SOL    HW264338   9.481   6.983   5.767 -0.9215  0.7519  0.3136
21254SOL     OW64339   0.525   6.745   1.468  0.3128 -0.2196  0.4035
21254SOL    HW164340   0.463   6.703   1.408  2.1222 -1.4646 -0.6676
21254SOL    HW264341   0.518   6.694   1.549 -0.8172  0.3301  0.6711
21255SOL     OW64342   3.892   8.757   2.678 -0.1714  0.1841  0.6267
21255SOL    HW164343   3.845   8.792   2.753  0.3334 -1.4318  1.7635
21255SOL    HW264344   3.957   8.824   2.656 -1.7472  1.6327  0.1930
21256SOL     OW64345   9.191   4.071   0.342 -0.1327 -0.1305  0.6742
21256SOL    HW164346   9.237   4.143   0.386  1.5906  0.2682 -1.5804
21256SOL    HW264347   9.113   4.112   0.305  1.0507  0.7616 -0.9586
21257SOL     OW64348   8.156   6.256   3.512 -0.1912 -0.3172  0.4958
21257SOL    HW164349   8.161   6.188   3.579  0.0072 -0.1623  0.6378
21257SOL    HW264350   8.104   6.326   3.551 -2.0496 -1.1735 -0.3361
21258SOL     OW64351   0.194   7.320   2.616  0.4797 -1.1551  0.4136
21258SOL    HW164352   0.134   7.369   2.672  1.1676 -0.7804  0.8490
21258SOL    HW264353   0.138   7.275   2.554 -0.2096 -0.2661  0.3659
21259SOL     OW64354   3.520   0.846   5.499  0.4173  0.1715  0.1535
21259SOL    HW164355   3.563   0.766   5.471 -0.4964 -0.3556  0.2020
21259SOL    HW264356   3.575   0.879   5.570  2.0689  0.8541 -1.3635
21260SOL     OW64357   6.972   8.642   3.755  0.6169 -0.0238  0.9589
21260SOL    HW164358   6.975   8.670   3.664 -0.9631 -3.9142 -0.5259
21260SOL    HW264359   7.048   8.586   3.765  1.1297  0.8700  2.2862
21261SOL     OW64360   2.405   6.374   5.024  0.4966 -0.5451 -0.6050
21261SOL    HW164361   2.313   6.390   5.047  0.6581  2.4943 -1.7020
21261SOL    HW264362   2.412   6.278   5.020 -2.5142 -0.8834 -0.1444
21262SOL     OW64363   3.819   1.838   8.393 -0.0281 -0.1269  0.3101
21262SOL    HW164364   3.814   1.775   8.465 -0.4065  0.7997  1.1016
21262SOL    HW264365   3.744   1.817   8.338  1.5271 -2.3717 -1.1402
21263SOL     OW64366   5.212   0.704   3.384 -0.3642 -0.6771 -0.0593
21263SOL    HW164367   5.181   0.673   3.469 -0.4135  2.0515  1.0113
21263SOL    HW264368   5.294   0.750   3.404 -0.8748  0.8544 -1.3128
21264SOL     OW64369   1.193   8.995   4.331  0.3814  0.0906 -0.0708
21264SOL    HW164370   1.210   9.040   4.413  1.8253 -0.1348 -0.2247
21264SOL    HW264371   1.239   8.911   4.340 -2.7536 -1.7308  0.4849
21265SOL     OW64372   2.170   7.401   8.188 -0.4703 -0.0984  0.0275
21265SOL    HW164373   2.225   7.349   8.247 -0.8628 -0.5280  0.0218
21265SOL    HW264374   2.204   7.382   8.100 -1.6971 -1.7179 -0.1385
21266SOL     OW64375   5.190   7.064   1.673 -0.3450 -0.2361 -0.0466
21266SOL    HW164376   5.186   7.145   1.725 -1.6264 -0.6105  0.4756
21266SOL    HW264377   5.278   7.030   1.689 -0.7259 -0.4101  2.0657
21267SOL     OW64378   9.147   4.409   2.524 -0.1451  0.3495 -0.6067
21267SOL    HW164379   9.144   4.318   2.555  0.7725 -0.3232 -2.3514
21267SOL    HW264380   9.060   4.426   2.488 -0.5510  0.4413  0.3743
21268SOL     OW64381   5.424   6.860   5.837 -0.0011 -0.0480 -0.0997
21268SOL    HW164382   5.430   6.806   5.916 -0.2764  1.1186  0.7428
21268SOL    HW264383   5.444   6.949   5.867 -2.1686  0.7908 -0.8996
21269SOL     OW64384   6.735   9.531   0.136 -0.3648 -0.2504 -0.0300
21269SOL    HW164385   6.805   9.474   0.103  1.7548  2.2473 -0.1473
21269SOL    HW264386   6.683   9.553   0.058  1.6816  1.6810 -0.9558
21270SOL     OW64387   7.333   2.215   0.169 -0.1364 -0.0651  0.0186
21270SOL    HW164388   7.311   2.125   0.196 -0.8268 -0.2222 -1.0318
21270SOL    HW264389   7.249   2.255   0.148  0.1210  0.9944  0.9149
21271SOL     OW64390   7.121   6.980   5.920 -0.4342 -0.0156  0.4329
21271SOL    HW164391   7.170   6.914   5.969 -0.2719 -0.7762 -0.6980
21271SOL    HW264392   7.043   6.996   5.973  0.3418  0.1477  1.5554
21272SOL     OW64393   5.244   8.295   2.444  0.5037 -0.0356 -0.0371
21272SOL    HW164394   5.203   8.285   2.529  0.1775 -1.8309 -0.3637
21272SOL    HW264395   5.338   8.283   2.461  0.5814  0.9116  0.2437
21273SOL     OW64396   4.221   4.152   8.199 -0.3893 -0.1709 -0.3154
21273SOL    HW164397   4.254   4.180   8.284  1.6289  0.3092 -1.2003
21273SOL    HW264398   4.281   4.191   8.135 -3.0763  1.2905 -2.1434
21274SOL     OW64399   2.388   9.037   2.661 -0.4433  0.2038 -0.0394
21274SOL    HW164400   2.360   9.071   2.745 -0.0207  0.5981 -0.0559
21274SOL    HW264401   2.343   9.091   2.596 -2.1217 -1.1685 -0.1103
21275SOL     OW64402   9.401   9.165   3.892  0.3657 -0.1315 -0.1625
21275SOL    HW164403   9.331   9.208   3.939 -0.5157  0.6183 -2.0404
21275SOL    HW264404   9.478   9.219   3.908  0.4150 -0.6447  1.4559
21276SOL     OW64405   4.047   5.832   5.812 -0.0643 -0.5485  0.1740
21276SOL    HW164406   4.074   5.910   5.860 -1.1513 -0.8198  1.2548
21276SOL    HW264407   4.014   5.866   5.729 -0.1382  0.1015  0.4601
21277SOL     OW64408   4.224   3.144   1.113  0.5689 -0.3072 -0.5991
21277SOL    HW164409   4.283   3.119   1.184  0.3291 -1.7139 -0.8672
21277SOL    HW264410   4.136   3.131   1.148  0.4126 -3.0622 -1.7354
21278SOL     OW64411   6.265   1.221   9.140 -0.3232 -0.2961 -0.5162
21278SOL    HW164412   6.211   1.142   9.143 -0.6978 -0.1141 -1.8527
21278SOL    HW264413   6.202   1.293   9.136  0.0087  0.1144  0.9820
21279SOL     OW64414   6.326   2.616   6.577 -0.3304  0.3558 -0.0240
21279SOL    HW164415   6.395   2.670   6.615 -1.6676  1.6671  0.6410
21279SOL    HW264416   6.372   2.543   6.535  1.6194  2.3645 -1.6056
21280SOL     OW64417   1.853   1.042   9.552  0.2387  0.0101 -0.5442
21280SOL    HW164418   1.928   1.047   9.611 -0.4893  0.1048  0.4026
21280SOL    HW264419   1.845   1.130   9.515  0.5461  0.0199 -0.5848
21281SOL     OW64420   5.184   4.023   5.969  0.0314  0.1089  0.6429
21281SOL    HW164421   5.155   4.058   6.053  0.0609  2.9766 -0.4431
21281SOL    HW264422   5.161   4.091   5.906  1.5617 -1.2165 -1.4436
21282SOL     OW64423   3.942   2.624   0.498 -0.1272  0.2300  0.6335
21282SOL    HW164424   4.007   2.629   0.429 -0.1164  1.9856  0.7240
21282SOL    HW264425   3.976   2.557   0.558  0.4499 -0.4633 -0.4377
21283SOL     OW64426   9.061   1.610   4.885 -0.0908  0.9133 -0.1248
21283SOL    HW164427   9.125   1.560   4.833 -0.7706 -2.2444  1.8225
21283SOL    HW264428   9.060   1.567   4.970 -4.1576  1.3377  0.2460
21284SOL     OW64429   3.930   8.421   8.541 -0.4520  0.2498 -0.3751
21284SOL    HW164430   4.021   8.450   8.551 -0.3129  0.7950 -2.7134
21284SOL    HW264431   3.895   8.478   8.473 -2.3556 -0.4361 -0.0026
21285SOL     OW64432   3.056   6.556   0.470  0.2443  0.7795  0.1861
21285SOL    HW164433   3.056   6.631   0.411 -1.5430  0.0952 -0.7592
21285SOL    HW264434   3.075   6.593   0.556  2.2200  1.8977 -0.6739
21286SOL     OW64435   6.756   8.607   7.427  0.1395 -0.0022  0.2803
21286SOL    HW164436   6.836   8.607   7.480  0.5762 -0.0891 -0.3711
21286SOL    HW264437   6.745   8.698   7.399 -0.0818  0.0406  0.5032
21287SOL     OW64438   6.926   6.742   1.125 -0.1861  0.0279  0.3121
21287SOL    HW164439   6.943   6.740   1.219  0.5758 -0.2628  0.1792
21287SOL    HW264440   6.984   6.674   1.089 -0.4923  0.1127 -0.3634
21288SOL     OW64441   6.948   3.117   3.642 -0.2846  0.2349  0.1150
21288SOL    HW164442   6.952   3.191   3.703 -0.7828 -0.2982  0.7923
21288SOL    HW264443   7.020   3.134   3.581  0.0305  0.9296  0.6622
21289SOL     OW64444   8.406   8.854   2.124 -0.0588  0.1702  0.2103
21289SOL    HW164445   8.358   8.926   2.164 -0.4641 -0.7223  1.4096
21289SOL    HW264446   8.383   8.778   2.178  1.2684 -0.6270 -0.3077
21290SOL     OW64447   8.189   0.016   4.902 -0.0122  0.0609  0.2968
21290SOL    HW164448   8.261  -0.039   4.871  0.1437  0.6490 -0.4312
21290SOL    HW264449   8.145   0.044   4.822 -0.1841  0.8634  0.6659
21291SOL     OW64450   5.604   0.789   9.306  0.0244  0.0810  0.1784
21291SOL    HW164451   5.593   0.747   9.221 -0.2380 -0.2806  0.3873
21291SOL    HW264452   5.679   0.745   9.345 -1.0431 -1.1480  0.9463
21292SOL     OW64453   9.281   8.025   2.834  0.2818 -0.5134 -0.3854
21292SOL    HW164454   9.223   8.028   2.758  0.2343 -0.1688 -0.3381
21292SOL    HW264455   9.222   8.034   2.910  0.2966 -1.1823 -0.2957
21293SOL     OW64456   4.490  -0.035   7.977 -0.6770  0.2411  0.0221
21293SOL    HW164457   4.443   0.041   7.943  0.8318  0.7033 -1.1262
21293SOL    HW264458   4.533  -0.003   8.056 -0.7632  0.3227  0.0372
21294SOL     OW64459   2.973   6.755   2.405 -0.9491 -0.3553 -0.1932
21294SOL    HW164460   3.052   6.710   2.436 -0.6324 -0.6461 -1.3673
21294SOL    HW264461   2.960   6.722   2.316 -2.2969 -0.1714 -0.0896
21295SOL     OW64462   1.013   5.510   7.674 -0.5557  0.9050 -0.5551
21295SOL    HW164463   1.016   5.427   7.625 -0.5653  0.8606 -0.4805
21295SOL    HW264464   1.077   5.498   7.744 -1.4050  0.5151  0.1657
21296SOL     OW64465   8.707   3.182   5.120 -0.5048 -0.5018 -0.1965
21296SOL    HW164466   8.710   3.129   5.041 -0.1144 -1.0850  0.2086
21296SOL    HW264467   8.616   3.176   5.150 -0.4470 -0.9922 -0.1182
21297SOL     OW64468   9.007   4.288   4.902  0.1253  0.1987  0.3558
21297SOL    HW164469   8.924   4.307   4.857 -0.1603 -0.4203  0.6118
21297SOL    HW264470   9.060   4.243   4.836  0.4225  0.9634  0.0623
21298SOL     OW64471   4.556   6.433   1.609 -0.1491  0.1253  0.1004
21298SOL    HW164472   4.543   6.339   1.599 -1.2510  0.1632  0.9177
21298SOL    HW264473   4.500   6.472   1.542 -0.7167  0.2024  0.6018
21299SOL     OW64474   3.436   1.048   1.982 -0.6025 -0.3073 -0.0072
21299SOL    HW164475   3.377   1.028   2.055 -0.9220 -0.9870 -0.4441
21299SOL    HW264476   3.509   0.987   1.993 -0.0443  0.4183  0.4345
21300SOL     OW64477   6.814   6.050   9.053 -0.2421 -0.3157  0.2152
21300SOL    HW164478   6.862   6.009   9.125 -0.9050 -1.8158 -0.1567
21300SOL    HW264479   6.789   6.136   9.086 -0.0722 -0.7674  1.5841
21301SOL     OW64480   3.854   3.316   7.387  0.5639  0.3783 -0.1996
21301SOL    HW164481   3.882   3.364   7.465 -1.3136 -0.3427  0.9775
21301SOL    HW264482   3.935   3.301   7.338  1.5209  2.6197  0.5751
21302SOL     OW64483   5.159   1.738   0.067 -0.8037 -0.1289 -0.7383
21302SOL    HW164484   5.123   1.816   0.025  0.2491  0.9534  0.2737
21302SOL    HW264485   5.084   1.697   0.110 -0.9786  1.8027  0.9338
21303SOL     OW64486   0.772   1.997   0.299 -0.2579  0.2888  0.3774
21303SOL    HW164487   0.809   2.085   0.298 -1.6718  0.9191  1.2028
21303SOL    HW264488   0.811   1.955   0.376  2.3590 -0.7403 -1.3718
21304SOL     OW64489   7.263   3.951   8.683  0.0591  0.0778 -0.3851
21304SOL    HW164490   7.343   4.002   8.679 -0.7242  1.2919 -1.5459
21304SOL    HW264491   7.231   3.964   8.772  1.1191 -0.4111  0.0847
21305SOL     OW64492   4.728   1.433   6.789  0.3695 -0.2160  0.1650
21305SOL    HW164493   4.653   1.492   6.779  1.3240  0.7901 -1.3037
21305SOL    HW264494   4.793   1.465   6.727  1.0249 -2.6690 -0.5202
21306SOL     OW64495   5.156   0.342   8.117 -0.0413  0.1999 -0.4614
21306SOL    HW164496   5.113   0.273   8.066  3.0113 -0.8448 -1.8619
21306SOL    HW264497   5.135   0.423   8.070 -0.4850 -0.2425 -1.0430
21307SOL     OW64498   4.181   1.598   1.511  0.4509 -0.0488 -0.6158
21307SOL    HW164499   4.109   1.596   1.574  0.0027 -1.2595 -1.1351
21307SOL    HW264500   4.200   1.691   1.500 -0.0560  0.2314  0.6216
21308SOL     OW64501   9.390   2.666   3.176 -0.0197 -0.0755 -0.5640
21308SOL    HW164502   9.366   2.746   3.129  1.5855 -0.5538 -2.3313
21308SOL    HW264503   9.307   2.621   3.191 -0.7037  0.6583 -1.9412
21309SOL     OW64504   7.200   5.595   9.780 -0.4524  0.1438  0.2438
21309SOL    HW164505   7.240   5.574   9.865 -0.0968  1.4179  0.4240
21309SOL    HW264506   7.254   5.548   9.716 -0.8084 -0.9375  0.7295
21310SOL     OW64507   6.568   5.145   9.365 -0.1155 -0.6801 -0.4871
21310SOL    HW164508   6.659   5.171   9.348  0.3874  0.9421  3.5410
21310SOL    HW264509   6.523   5.228   9.383 -1.5171 -1.6801  0.8704
21311SOL     OW64510   5.981   5.148   7.498  0.0093  0.0254 -0.3469
21311SOL    HW164511   6.070   5.132   7.529 -0.0073  0.1405 -0.2369
21311SOL    HW264512   5.955   5.066   7.456  0.3405  0.1531 -0.8077
21312SOL     OW64513   9.702   8.771   6.327 -0.0584 -0.2161  0.0658
21312SOL    HW164514   9.681   8.820   6.407  0.3317  1.6467 -0.9124
21312SOL    HW264515   9.729   8.838   6.264  0.2135 -1.6862 -1.4630
21313SOL     OW64516   5.026   8.761   3.023 -0.0759  0.0150 -0.3787
21313SOL    HW164517   5.079   8.751   3.102 -0.6208 -3.0636 -0.2829
21313SOL    HW264518   4.971   8.838   3.041  1.2477  0.6464  1.3180
21314SOL     OW64519   6.114   5.160   3.712  0.0684 -0.4311  0.1482
21314SOL    HW164520   6.114   5.169   3.617 -1.3351  0.4570  0.2071
21314SOL    HW264521   6.180   5.221   3.743  1.4270 -1.6222 -0.2967
21315SOL     OW64522   0.039   0.060   6.315 -0.2541  0.5958  0.3266
21315SOL    HW164523   0.040   0.145   6.358 -2.3387  0.6058  0.4547
21315SOL    HW264524   0.010   0.079   6.225 -1.1939 -0.0003  0.4860
21316SOL     OW64525   5.447   9.716   5.543  0.3729 -0.0925 -0.4967
21316SOL    HW164526   5.478   9.675   5.463 -0.8365 -0.9314 -0.5588
21316SOL    HW264527   5.523   9.764   5.577  1.1339 -0.4393 -1.6754
21317SOL     OW64528   2.214   6.031   8.825  0.2474 -0.5000  0.1109
21317SOL    HW164529   2.199   5.939   8.803  0.8896 -0.9338  1.3877
21317SOL    HW264530   2.187   6.039   8.916  0.9199  0.3933  0.2491
21318SOL     OW64531   8.245   5.045   9.201 -0.5350  0.1335 -0.1865
21318SOL    HW164532   8.229   5.139   9.188 -1.0216 -0.1155 -1.5496
21318SOL    HW264533   8.185   5.021   9.272  1.0012  1.2193  1.5653
21319SOL     OW64534   6.765   5.648   1.638 -0.2253  0.1226 -0.6845
21319SOL    HW164535   6.762   5.616   1.729 -0.8581  0.6815 -0.5008
21319SOL    HW264536   6.858   5.662   1.621 -0.0604 -0.4043 -0.2746
21320SOL     OW64537   7.803   0.814   0.814  0.4318 -0.4447 -0.3113
21320SOL    HW164538   7.717   0.827   0.774 -0.2086  0.9120  1.3773
21320SOL    HW264539   7.784   0.776   0.900  1.5080 -0.1318  0.0822
21321SOL     OW64540   9.530   8.472   8.113 -0.0329  0.0593  0.3079
21321SOL    HW164541   9.453   8.420   8.136  1.1349 -1.2528  1.4130
21321SOL    HW264542   9.529   8.544   8.176 -1.4082  1.2036 -0.9435
21322SOL     OW64543   2.156   4.623   9.875  0.0327  1.2213  0.4598
21322SOL    HW164544   2.248   4.601   9.864 -0.0631  0.3530  1.3695
21322SOL    HW264545   2.119   4.615   9.787 -0.8429 -6.2476  0.9311
21323SOL     OW64546   5.962   4.139   6.197 -0.1564 -0.1979 -0.1402
21323SOL    HW164547   5.884   4.088   6.177 -0.3643 -0.2129  0.6468
21323SOL    HW264548   5.929   4.215   6.246 -0.0052  1.3919 -2.3656
21324SOL     OW64549   8.766   9.532   9.520  0.0991  0.4187  0.9799
21324SOL    HW164550   8.796   9.534   9.429 -1.4816  0.9251  0.4445
21324SOL    HW264551   8.671   9.539   9.515 -0.0736 -0.1078  2.6594
21325SOL     OW64552   0.530   5.216   2.348 -0.1019 -0.1126  0.2911
21325SOL    HW164553   0.596   5.271   2.305 -1.2988  0.1085 -1.3642
21325SOL    HW264554   0.538   5.131   2.305  0.3842 -0.6566  1.4330
21326SOL     OW64555   6.070   0.983   8.383 -0.1467  0.0105  0.2904
21326SOL    HW164556   5.988   1.019   8.417 -0.3034  0.2628 -0.3485
21326SOL    HW264557   6.104   1.050   8.325 -0.0423 -0.5339 -0.2945
21327SOL     OW64558   7.651   3.410   3.608 -0.4119  0.0542  0.2045
21327SOL    HW164559   7.681   3.470   3.539  0.9094 -0.3901  0.3589
21327SOL    HW264560   7.585   3.355   3.565 -1.4633  1.4198 -0.0076
21328SOL     OW64561   4.350   5.167   8.018 -0.5787 -0.1707  0.3550
21328SOL    HW164562   4.396   5.090   7.984 -0.3339 -0.6790  1.7610
21328SOL    HW264563   4.259   5.137   8.029 -0.6522 -0.0170  0.1624
21329SOL     OW64564   2.079   4.837   7.628 -0.0004  0.1056  0.2062
21329SOL    HW164565   2.057   4.823   7.720 -0.4020  0.2006  0.1268
21329SOL    HW264566   2.173   4.856   7.628  0.0999 -0.3681  0.5454
21330SOL     OW64567   7.214   4.418   2.854 -0.6587 -0.0245 -0.0754
21330SOL    HW164568   7.119   4.433   2.859 -0.7872 -1.0248  0.8095
21330SOL    HW264569   7.247   4.452   2.937 -0.0232  1.6351 -0.9678
21331SOL     OW64570   3.441   0.796   9.743 -0.0206 -0.2360 -0.0563
21331SOL    HW164571   3.524   0.840   9.727 -0.9234  1.4968 -0.2004
21331SOL    HW264572   3.454   0.748   9.825  0.7233  1.0906  0.6179
21332SOL     OW64573   9.781   4.078   4.539 -0.0003  0.5117 -0.4627
21332SOL    HW164574   9.741   4.026   4.608 -0.4195 -0.6721 -1.5460
21332SOL    HW264575   9.826   4.014   4.483 -0.0160  1.3683 -1.5011
21333SOL     OW64576   7.698   3.316   8.439 -0.0546  0.7154  0.2839
21333SOL    HW164577   7.748   3.379   8.388  0.9216  2.0376  2.6904
21333SOL    HW264578   7.611   3.356   8.447  0.2216  1.2172  0.8437
21334SOL     OW64579   5.633   3.744   8.512 -0.1684  0.1228  0.5504
21334SOL    HW164580   5.581   3.669   8.485  2.3271 -1.6706  0.3785
21334SOL    HW264581   5.627   3.745   8.608  0.9810 -1.3045  0.6731
21335SOL     OW64582   0.350   8.218   3.304  0.1599  0.3554  0.0973
21335SOL    HW164583   0.420   8.199   3.367  1.0763  2.7347 -0.1008
21335SOL    HW264584   0.289   8.274   3.351 -0.2728  0.3997 -0.4976
21336SOL     OW64585   9.138   7.539   3.036 -0.5765  0.1247  0.4043
21336SOL    HW164586   9.128   7.448   3.065 -1.3864  0.5121  1.3761
21336SOL    HW264587   9.225   7.564   3.066 -0.1987 -0.4337 -0.1903
21337SOL     OW64588   6.989   3.921   2.936  0.3122 -0.0115 -0.8005
21337SOL    HW164589   6.932   3.969   2.997  0.7685 -1.4469  0.8329
21337SOL    HW264590   7.061   3.982   2.917  0.8642  0.0097  1.1836
21338SOL     OW64591   4.737   4.517   8.572  0.4215  0.1460  0.1029
21338SOL    HW164592   4.676   4.478   8.509  0.3387 -0.2152  0.4009
21338SOL    HW264593   4.714   4.609   8.574 -0.2038 -0.0083  0.3017
21339SOL     OW64594   6.491   7.413   2.379  0.6245  0.0926 -0.1066
21339SOL    HW164595   6.480   7.490   2.436 -1.5675  0.3661 -0.7835
21339SOL    HW264596   6.520   7.344   2.438 -1.6128  0.3569  1.4659
21340SOL     OW64597   0.392   3.876   5.737 -0.1596 -0.1852  0.7326
21340SOL    HW164598   0.456   3.899   5.669 -1.8167  1.1769 -0.4685
21340SOL    HW264599   0.328   3.821   5.691 -1.9513  1.7368  0.8133
21341SOL     OW64600   5.359   7.453   2.337 -0.2266 -0.1271 -0.7786
21341SOL    HW164601   5.352   7.392   2.411  1.7983  0.6341  0.0820
21341SOL    HW264602   5.380   7.397   2.262 -0.4081 -0.6954 -0.4123
21342SOL     OW64603   3.813   4.679   9.036 -0.2280 -0.2783  0.0780
21342SOL    HW164604   3.844   4.765   9.009 -1.2064  0.3883  0.9598
21342SOL    HW264605   3.801   4.630   8.955 -0.3776  0.6789 -0.4844
21343SOL     OW64606   2.081   1.799   7.506 -0.7437  0.7467  0.0941
21343SOL    HW164607   1.987   1.808   7.522 -0.3947  1.5390  2.0151
21343SOL    HW264608   2.121   1.823   7.589  1.1704  0.3885 -0.6852
21344SOL     OW64609   8.795   3.927   8.024  0.2063  0.7349  0.2020
21344SOL    HW164610   8.745   3.861   8.072  0.4850 -0.6752 -1.3926
21344SOL    HW264611   8.789   3.901   7.933  2.4662  1.4871 -0.2189
21345SOL     OW64612   1.780   6.693   2.616 -0.2834 -0.2011 -0.6452
21345SOL    HW164613   1.872   6.680   2.641  0.0879  2.6860 -0.1920
21345SOL    HW264614   1.733   6.623   2.662  1.5782 -1.4204 -0.4563
21346SOL     OW64615   0.642   6.544   8.094 -0.0056  0.5443 -0.4273
21346SOL    HW164616   0.642   6.605   8.167 -0.6361  0.1916 -0.1316
21346SOL    HW264617   0.630   6.600   8.017 -0.1494  0.8367 -0.1964
21347SOL     OW64618   7.214   7.172   1.751  0.7286 -0.2766 -1.1824
21347SOL    HW164619   7.216   7.125   1.835  0.9496  0.2081 -0.9082
21347SOL    HW264620   7.292   7.142   1.705  1.2052  0.2770 -0.7494
21348SOL     OW64621   4.193   7.486   4.091  0.3037 -0.0059  0.2330
21348SOL    HW164622   4.199   7.393   4.068  1.4061 -0.5637  2.4798
21348SOL    HW264623   4.101   7.507   4.082  0.0806 -1.2484 -0.5960
21349SOL     OW64624   7.330   4.976   9.343  0.3648 -0.4693  0.6021
21349SOL    HW164625   7.326   5.071   9.338  1.4885 -0.3690  1.2482
21349SOL    HW264626   7.312   4.956   9.435 -0.5325 -0.9352  0.3366
21350SOL     OW64627   7.462   2.007   5.721  0.5789  0.2214 -0.1165
21350SOL    HW164628   7.432   1.934   5.774 -0.3880 -0.1002 -1.0738
21350SOL    HW264629   7.527   1.970   5.662  0.4576  0.2308 -0.2578
21351SOL     OW64630   6.852   0.180   4.397 -0.7065  0.0755  0.1816
21351SOL    HW164631   6.851   0.086   4.409 -2.2785  0.0284 -0.0790
21351SOL    HW264632   6.776   0.198   4.341  1.4074  1.1395 -2.5741
21352SOL     OW64633   7.579   7.815   1.817 -0.1705  0.3251 -0.0201
21352SOL    HW164634   7.636   7.859   1.754  0.0280  1.2407  0.7713
21352SOL    HW264635   7.639   7.764   1.871 -0.3815 -0.8053 -0.8090
21353SOL     OW64636   6.807   6.996   8.568  0.0798 -0.4616  0.2955
21353SOL    HW164637   6.744   6.935   8.530 -0.2794  0.8259 -1.2651
21353SOL    HW264638   6.756   7.049   8.629  0.0758 -0.7046  0.5049
21354SOL     OW64639   4.410   6.349   4.081 -0.1503  0.0349  0.5915
21354SOL    HW164640   4.326   6.312   4.053 -0.2140  0.3513  0.3673
21354SOL    HW264641   4.475   6.307   4.024  0.2271 -2.4865  2.6613
21355SOL     OW64642   4.878   8.761   4.499  0.4809  0.4481 -0.0107
21355SOL    HW164643   4.924   8.702   4.440 -0.6605 -1.6358  1.0968
21355SOL    HW264644   4.805   8.795   4.446  0.9332  0.6225 -0.5410
21356SOL     OW64645   0.231   3.233   0.235  0.3121 -0.1649 -0.3287
21356SOL    HW164646   0.276   3.310   0.270  1.0150 -1.0350  0.7564
21356SOL    HW264647   0.140   3.244   0.263  0.6683 -0.3553  0.9849
21357SOL     OW64648   5.784   0.435   8.231 -0.0041 -0.4981 -0.2568
21357SOL    HW164649   5.877   0.414   8.224  0.1817 -0.3786  1.4463
21357SOL    HW264650   5.741   0.377   8.168  1.1307 -1.1804 -0.4213
21358SOL     OW64651   1.072   0.330   2.749  0.5186 -0.0767 -0.2009
21358SOL    HW164652   1.054   0.368   2.663 -0.1935  0.2904  0.1030
21358SOL    HW264653   0.989   0.336   2.795  0.1653 -2.6725 -0.3838
21359SOL     OW64654   9.387   5.372   7.258 -0.6255 -0.0005 -0.5782
21359SOL    HW164655   9.482   5.357   7.257 -0.5523  0.3885  0.0634
21359SOL    HW264656   9.350   5.292   7.294 -0.3113  0.8692  1.8497
21360SOL     OW64657   7.966   9.956   4.142  0.3782  0.3663 -0.2907
21360SOL    HW164658   7.934   9.939   4.053 -1.5629 -0.4313  0.5064
21360SOL    HW264659   8.056   9.924   4.142 -0.2908 -1.6804 -1.3806
21361SOL     OW64660   1.992   8.789   4.704 -0.5697 -0.0658  0.7072
21361SOL    HW164661   2.057   8.826   4.644 -1.8718  0.2298 -0.5762
21361SOL    HW264662   2.030   8.801   4.791  0.3852  1.5592  0.1095
21362SOL     OW64663   0.984   3.049   3.174  0.3612 -0.1581  0.3723
21362SOL    HW164664   1.003   3.120   3.112 -2.0140  0.6662  0.4758
21362SOL    HW264665   0.974   3.094   3.258  1.7572 -1.0463  1.0482
21363SOL     OW64666   1.626   3.254   0.866 -0.1527  0.5598  0.1684
21363SOL    HW164667   1.676   3.219   0.793 -1.3763 -1.3735  0.1647
21363SOL    HW264668   1.651   3.198   0.940  2.1531  3.3551  1.6916
21364SOL     OW64669   1.386   1.526   3.644  0.0829 -0.8912  0.6860
21364SOL    HW164670   1.451   1.596   3.636  0.3542 -1.2753 -0.7430
21364SOL    HW264671   1.326   1.541   3.571 -1.3023 -0.7121  1.8193
21365SOL     OW64672   6.549   9.759   9.708 -0.0813  0.0082  0.4332
21365SOL    HW164673   6.464   9.718   9.697 -0.3462 -0.0257  2.3113
21365SOL    HW264674   6.540   9.846   9.669 -0.4339 -0.6092 -0.8859
21366SOL     OW64675   1.122   3.563   6.006 -0.1769 -0.0927  0.4886
21366SOL    HW164676   1.192   3.571   6.070  0.3702  3.3427 -0.3261
21366SOL    HW264677   1.062   3.499   6.044  2.0622 -1.1653  2.4634
21367SOL     OW64678   4.010   8.239   2.410  0.4823 -0.5953 -0.0056
21367SOL    HW164679   3.985   8.318   2.363  1.1148 -1.0577 -1.1741
21367SOL    HW264680   3.967   8.246   2.495 -1.1987 -0.0128 -0.8676
21368SOL     OW64681   2.729   4.064   8.914 -0.1530 -0.5717  0.1191
21368SOL    HW164682   2.822   4.065   8.938 -0.1448  0.8977  0.1557
21368SOL    HW264683   2.727   4.022   8.828  0.5782 -0.4473  0.0307
21369SOL     OW64684   2.061   5.029   8.822  0.0751 -0.2856 -0.0534
21369SOL    HW164685   1.975   5.069   8.832 -0.3758 -0.8912 -1.2559
21369SOL    HW264686   2.094   5.063   8.739  0.1645 -1.4978 -0.5414
21370SOL     OW64687   0.970   6.818   7.792 -0.0471 -0.2433 -0.7237
21370SOL    HW164688   0.937   6.740   7.746 -0.1502 -1.2401  0.9377
21370SOL    HW264689   1.040   6.851   7.737 -0.8915 -0.7127 -2.1330
21371SOL     OW64690   0.258   1.628   8.980 -0.7433  0.1744 -0.5782
21371SOL    HW164691   0.224   1.649   9.068  1.9354 -0.8108  0.7982
21371SOL    HW264692   0.220   1.543   8.960 -0.8064  0.0709 -0.0515
21372SOL     OW64693   6.716   3.885   7.268  0.2935 -0.5801 -0.7143
21372SOL    HW164694   6.719   3.869   7.362 -2.3182 -0.8880 -0.6195
21372SOL    HW264695   6.765   3.812   7.229  2.2385  0.0720  0.3839
21373SOL     OW64696   6.140   9.677   7.785  0.5873 -0.2730 -0.2339
21373SOL    HW164697   6.058   9.658   7.739  2.0601 -2.7961 -2.1256
21373SOL    HW264698   6.131   9.767   7.815 -1.2619  1.0477 -4.0776
21374SOL     OW64699   6.098   2.514   7.555  0.3201 -0.1268 -0.1335
21374SOL    HW164700   6.080   2.591   7.609 -0.1996  0.1861 -0.7390
21374SOL    HW264701   6.135   2.450   7.616 -0.0355  0.3027  0.5475
21375SOL     OW64702   8.362   9.207   8.057  0.3875 -0.1616 -0.5090
21375SOL    HW164703   8.338   9.224   7.966  0.5438 -0.5058 -0.6166
21375SOL    HW264704   8.446   9.252   8.068  1.2001 -1.4865 -1.0265
21376SOL     OW64705   6.910   1.087   6.094  0.2174  0.2201 -0.6317
21376SOL    HW164706   6.869   1.084   6.007  0.9186 -1.4077 -0.9288
21376SOL    HW264707   6.836   1.082   6.155 -0.2241  0.5877 -1.1237
21377SOL     OW64708   2.662   9.712   6.213 -0.0849  0.3721 -0.4108
21377SOL    HW164709   2.686   9.669   6.295  0.0173  0.0762 -0.5925
21377SOL    HW264710   2.619   9.793   6.239 -1.0063 -0.2201 -0.0483
21378SOL     OW64711   9.707   0.272   8.548  0.5927 -0.8078 -0.5473
21378SOL    HW164712   9.761   0.338   8.504  1.2038 -0.7117  0.3234
21378SOL    HW264713   9.746   0.189   8.524  0.0229 -0.8543 -1.3739
21379SOL     OW64714   3.187   2.190   3.731  0.1691 -0.6052 -0.3464
21379SOL    HW164715   3.183   2.207   3.637  0.7572 -2.0941 -0.6789
21379SOL    HW264716   3.169   2.096   3.739  0.5085 -0.5772  0.9829
21380SOL     OW64717   8.224   0.239   1.199 -0.5598 -0.1134 -0.2548
21380SOL    HW164718   8.244   0.178   1.270 -1.6513  0.7192  0.8419
21380SOL    HW264719   8.133   0.265   1.216 -1.3140 -0.8577 -2.7294
21381SOL     OW64720   1.266   3.282   4.087  0.1173  0.6865  0.1148
21381SOL    HW164721   1.266   3.314   3.996 -0.5076 -0.1440 -0.1851
21381SOL    HW264722   1.211   3.345   4.134  0.3590  1.0623 -0.0968
21382SOL     OW64723   8.177   4.640   9.678  0.6105  0.1333  0.5170
21382SOL    HW164724   8.251   4.615   9.623  0.7542 -0.6066  1.0147
21382SOL    HW264725   8.101   4.598   9.637  0.5642  0.3966  0.3364
21383SOL     OW64726   0.765   7.579   1.022  0.2619  0.6797 -0.3975
21383SOL    HW164727   0.804   7.658   0.985 -0.0199  0.2314 -1.7133
21383SOL    HW264728   0.721   7.537   0.948 -0.2721 -0.2989  0.4476
21384SOL     OW64729   7.741   5.982   5.988 -0.4603 -0.5231 -0.0068
21384SOL    HW164730   7.783   5.904   5.952 -1.2690 -1.7687  1.6015
21384SOL    HW264731   7.648   5.971   5.968 -0.5556  0.1748  0.0157
21385SOL     OW64732   6.750   6.233   2.521 -0.5876 -0.8156 -0.2195
21385SOL    HW164733   6.773   6.260   2.432  1.1100 -3.1521 -0.5664
21385SOL    HW264734   6.825   6.258   2.574 -0.4436 -1.7974  0.0535
21386SOL     OW64735   3.600   7.083   9.352 -0.2939  0.0010 -0.0267
21386SOL    HW164736   3.643   7.039   9.425 -0.6317 -1.7880 -0.8664
21386SOL    HW264737   3.662   7.074   9.279 -0.9580 -0.2805 -0.5590
21387SOL     OW64738   5.657   4.722   7.332  0.3772 -0.4299 -0.2596
21387SOL    HW164739   5.748   4.717   7.303  0.4428 -0.2628 -0.0775
21387SOL    HW264740   5.625   4.806   7.299  0.6172  0.0245  0.6238
21388SOL     OW64741   0.368   9.354   4.826  0.1298 -0.1528  0.0202
21388SOL    HW164742   0.355   9.268   4.865 -0.4685  0.1587  0.5485
21388SOL    HW264743   0.359   9.415   4.900  0.0637  0.3870 -0.4242
21389SOL     OW64744   5.561   6.856   9.621  0.2558  0.2829  0.1014
21389SOL    HW164745   5.615   6.777   9.627 -1.3478 -0.7862  1.3808
21389SOL    HW264746   5.533   6.873   9.711 -0.2621  1.7161 -0.3030
21390SOL     OW64747   9.819   6.255   0.399 -0.2838  0.2467  0.2658
21390SOL    HW164748   9.894   6.306   0.426 -0.6668 -0.3433  2.6371
21390SOL    HW264749   9.745   6.316   0.401 -0.1991  0.3702 -0.2009
21391SOL     OW64750   5.489   3.671   9.952 -0.1460  0.1449  0.8055
21391SOL    HW164751   5.426   3.631   9.892  1.0504 -1.3034  0.4625
21391SOL    HW264752   5.463   3.763   9.956 -0.0085  0.4123 -2.3002
21392SOL     OW64753   3.711   0.885   5.692 -0.0232  0.0403 -0.1654
21392SOL    HW164754   3.732   0.948   5.622 -0.0314  0.2761  0.0447
21392SOL    HW264755   3.733   0.931   5.773  0.2729 -0.3449 -0.0226
21393SOL     OW64756   0.881   4.190   9.112 -0.2676  0.0731  0.5073
21393SOL    HW164757   0.962   4.154   9.075 -0.0337  1.3505 -0.2841
21393SOL    HW264758   0.855   4.126   9.178  1.0826 -0.6485  0.3868
21394SOL     OW64759   1.567   5.455   0.645 -0.5239 -0.2273  1.3933
21394SOL    HW164760   1.608   5.457   0.731  1.2134  1.1830  0.6034
21394SOL    HW264761   1.626   5.401   0.592  0.8131  2.2853  0.0967
21395SOL     OW64762   7.745   7.373   9.487  0.2983 -0.3591  0.6374
21395SOL    HW164763   7.831   7.346   9.456  0.4990  0.4099  0.4977
21395SOL    HW264764   7.683   7.320   9.436  0.6763 -0.7242  0.5530
21396SOL     OW64765   8.063   9.573   5.589  0.2225 -0.4196  0.2596
21396SOL    HW164766   8.029   9.624   5.663 -0.6900 -0.2657 -0.2490
21396SOL    HW264767   8.113   9.636   5.537  0.8615 -0.5274  0.7382
21397SOL     OW64768   7.159   3.821   8.136 -0.2813 -0.3613  0.4321
21397SOL    HW164769   7.246   3.796   8.168 -0.7215 -2.1152  0.3950
21397SOL    HW264770   7.175   3.891   8.073  0.9037  0.7086  1.8573
21398SOL     OW64771   6.976   8.328   2.702  0.1804  0.0868  0.0628
21398SOL    HW164772   7.007   8.336   2.612  1.2643 -0.0285  0.4121
21398SOL    HW264773   7.046   8.280   2.747 -0.8649 -0.8858  0.7028
21399SOL     OW64774   9.588   6.012   0.934 -0.0025  0.7507 -0.3585
21399SOL    HW164775   9.547   5.935   0.894  0.8256 -0.4377  0.9828
21399SOL    HW264776   9.575   6.082   0.870 -2.3753 -0.0346 -0.8410
21400SOL     OW64777   2.625   0.583   9.637 -0.3078 -0.3654  0.2217
21400SOL    HW164778   2.638   0.489   9.630  0.9381 -0.1220 -1.3509
21400SOL    HW264779   2.595   0.610   9.550  1.2667  0.9399  0.0262
21401SOL     OW64780   5.661   1.497   1.972 -0.2173  0.3911 -0.0064
21401SOL    HW164781   5.719   1.493   2.048  1.0533  0.3569 -0.9431
21401SOL    HW264782   5.573   1.507   2.009 -0.0248 -2.7428  1.5546
21402SOL     OW64783   4.140   1.252   2.815 -0.1314  0.1002  0.6035
21402SOL    HW164784   4.218   1.198   2.810  0.0227  0.4108 -0.8031
21402SOL    HW264785   4.153   1.307   2.892  0.9377 -0.0013  0.5081
21403SOL     OW64786   8.913   2.466   6.022 -0.0629 -0.7161 -0.0283
21403SOL    HW164787   8.964   2.385   6.018 -1.5114 -1.6240 -1.4813
21403SOL    HW264788   8.825   2.439   5.996 -1.0820  0.9641  1.4359
21404SOL     OW64789   8.712   0.492   0.121  0.3736 -0.3494  0.5524
21404SOL    HW164790   8.748   0.580   0.109  0.4064  0.1224  3.5024
21404SOL    HW264791   8.769   0.452   0.186 -1.5623 -1.3646  1.6917
21405SOL     OW64792   7.274   6.778   7.857 -0.0264 -0.0716  0.4823
21405SOL    HW164793   7.308   6.839   7.792  0.4621 -1.0341 -0.1920
21405SOL    HW264794   7.301   6.691   7.825 -3.4660 -0.9889 -0.3329
21406SOL     OW64795   3.624   9.455   0.242 -0.5596 -0.0210 -0.1700
21406SOL    HW164796   3.567   9.497   0.178 -0.4148 -0.2494 -0.4489
21406SOL    HW264797   3.600   9.496   0.326 -1.0825 -0.0683 -0.2930
21407SOL     OW64798   7.087   7.685   0.557 -0.0306  0.5657  0.0908
21407SOL    HW164799   7.096   7.664   0.650 -1.8516  3.1534  1.0039
21407SOL    HW264800   6.996   7.715   0.549  0.1236  0.5201 -2.5146
21408SOL     OW64801   8.649   0.898   6.422 -0.6962  0.4727  0.0324
21408SOL    HW164802   8.616   0.919   6.509 -1.1703  1.0455 -0.2750
21408SOL    HW264803   8.571   0.882   6.369 -0.5183  1.9306 -0.7277
21409SOL     OW64804   0.130   7.170   6.484 -0.1186  0.2692  0.2101
21409SOL    HW164805   0.086   7.119   6.553  1.4412 -0.6630  0.5503
21409SOL    HW264806   0.221   7.173   6.511  0.7336 -0.9084 -2.2646
21410SOL     OW64807   3.549   5.844   4.471  0.5247 -0.0314 -0.1237
21410SOL    HW164808   3.476   5.782   4.479 -0.3437  0.2578 -3.7288
21410SOL    HW264809   3.627   5.788   4.471  0.4249 -0.3754  3.4020
21411SOL     OW64810   3.060   2.049   6.964 -0.5076 -0.2544 -0.4848
21411SOL    HW164811   3.043   2.138   6.933 -1.0959 -0.7324 -1.6222
21411SOL    HW264812   3.040   1.993   6.888 -0.0226 -1.3455  0.1610
21412SOL     OW64813   9.422   4.315   3.814 -0.5048  0.6220 -0.0417
21412SOL    HW164814   9.496   4.375   3.819  0.0137 -0.0761  0.8253
21412SOL    HW264815   9.453   4.242   3.760 -1.4272  1.5129 -1.8564
21413SOL     OW64816   7.287   5.002   9.600  0.4709  0.0366  0.2958
21413SOL    HW164817   7.363   5.042   9.642 -0.0390  1.8203 -0.3951
21413SOL    HW264818   7.231   5.076   9.576 -0.9235 -1.1640 -0.2853
21414SOL     OW64819   8.574   3.078   2.377  0.2277 -0.8943  0.1752
21414SOL    HW164820   8.529   3.028   2.308 -0.1913 -1.1153  0.6017
21414SOL    HW264821   8.507   3.090   2.445 -0.2391  1.8351 -0.6680
21415SOL     OW64822   9.360   5.761   6.917  0.0890  0.2279  0.4554
21415SOL    HW164823   9.452   5.772   6.938  0.8903 -3.8454 -0.0789
21415SOL    HW264824   9.319   5.737   7.001  0.1218 -0.7425  0.2022
21416SOL     OW64825   6.286   2.022   6.518 -0.3976  0.2419  0.0003
21416SOL    HW164826   6.192   2.005   6.519 -0.6595  1.5569  0.9328
21416SOL    HW264827   6.292   2.118   6.521  0.9423  0.3889 -3.4948
21417SOL     OW64828   3.661   7.147   4.486 -0.1332  0.4991  0.5366
21417SOL    HW164829   3.724   7.127   4.417 -0.3592  1.2879  0.0955
21417SOL    HW264830   3.599   7.074   4.483 -0.3694  0.7265 -0.3667
21418SOL     OW64831   2.646   7.753   7.612  0.0376  0.0056  0.2199
21418SOL    HW164832   2.574   7.792   7.662  0.4915  0.1298  0.7955
21418SOL    HW264833   2.631   7.659   7.617 -0.8272  0.0636 -0.8134
21419SOL     OW64834   4.097   5.254   8.986  0.5911 -0.4744  0.2352
21419SOL    HW164835   4.038   5.291   8.920 -0.8829 -1.5129  0.8941
21419SOL    HW264836   4.114   5.165   8.957  1.8529 -0.1951  0.0737
21420SOL     OW64837   8.525   2.398   4.756 -0.0468 -0.7017 -0.5367
21420SOL    HW164838   8.571   2.331   4.807  1.0688 -0.0304 -0.6293
21420SOL    HW264839   8.504   2.466   4.819 -0.6340 -0.8580 -0.5595
21421SOL     OW64840   7.685   4.414   6.027 -0.7905  0.1223 -0.1325
21421SOL    HW164841   7.686   4.499   6.070 -0.7648 -0.0558  0.2213
21421SOL    HW264842   7.594   4.386   6.031 -1.0798  0.7646 -1.5140
21422SOL     OW64843   6.058   4.885   6.131 -0.2906  0.5781  0.1951
21422SOL    HW164844   6.145   4.906   6.165 -0.6991 -1.1814  2.6261
21422SOL    HW264845   6.010   4.851   6.207 -2.3414 -0.7360 -1.5532
21423SOL     OW64846   0.597   5.395   7.033 -0.1158 -0.0755 -0.5248
21423SOL    HW164847   0.674   5.339   7.043 -0.1048  0.0979  0.4354
21423SOL    HW264848   0.524   5.334   7.021 -0.4242 -0.4444  2.4969
21424SOL     OW64849   4.031   3.445   0.002 -0.1111 -0.3793 -0.3465
21424SOL    HW164850   4.010   3.501   0.077 -1.3273 -1.7046  0.3657
21424SOL    HW264851   4.117   3.475  -0.028  1.0825 -0.6525  2.4504
21425SOL     OW64852   0.490   2.301   1.528 -0.3868 -0.5523  0.4872
21425SOL    HW164853   0.465   2.257   1.446 -1.2838 -0.6386  0.7943
21425SOL    HW264854   0.578   2.269   1.546 -0.1371 -0.4526 -0.5017
21426SOL     OW64855   2.498   9.734   0.064  0.5434  0.1389 -0.1339
21426SOL    HW164856   2.442   9.722  -0.012 -1.2639  1.0655  0.9528
21426SOL    HW264857   2.519   9.828   0.063  0.3631  0.1961  0.5516
21427SOL     OW64858   7.088   5.529   0.717 -0.1422  0.2263  0.2043
21427SOL    HW164859   7.052   5.539   0.806 -0.6228 -1.0203  0.1674
21427SOL    HW264860   7.075   5.614   0.676  1.3898  1.2940  1.7789
21428SOL     OW64861   7.130   5.373   5.060 -0.1624  0.0104  0.2487
21428SOL    HW164862   7.076   5.357   4.983  1.1749  1.8078 -1.1755
21428SOL    HW264863   7.083   5.331   5.132 -2.2572 -0.4125 -1.2632
21429SOL     OW64864   3.873   9.184   1.370  0.4793 -0.0392  0.4182
21429SOL    HW164865   3.863   9.241   1.446 -1.3529  0.4554 -0.1426
21429SOL    HW264866   3.897   9.099   1.407  0.1192  0.3127  1.5028
21430SOL     OW64867   8.977   7.632   9.686  0.3732 -0.5291 -0.4249
21430SOL    HW164868   8.937   7.571   9.748  0.8033 -0.8195 -0.4316
21430SOL    HW264869   8.906   7.692   9.663 -0.3811 -1.6957 -1.2894
21431SOL     OW64870   1.328   7.458   6.538 -0.1611 -0.1088 -0.0957
21431SOL    HW164871   1.299   7.492   6.454  0.6878 -1.3675 -0.9460
21431SOL    HW264872   1.419   7.431   6.522  0.5241  1.0062  1.6465
21432SOL     OW64873   2.922   2.723   3.684 -0.2947  0.3040 -0.0594
21432SOL    HW164874   2.948   2.684   3.768 -0.5221 -1.8425 -0.9126
21432SOL    HW264875   2.899   2.813   3.705  1.3517  0.3434  1.8702
21433SOL     OW64876   1.967   9.771   5.834 -0.7033 -0.3797  0.3251
21433SOL    HW164877   2.037   9.780   5.769  1.7030  0.6723  2.8468
21433SOL    HW264878   1.910   9.846   5.818 -0.3530 -0.3308 -0.7656
21434SOL     OW64879   1.548   5.569   8.994 -0.3498 -0.1000 -0.4942
21434SOL    HW164880   1.495   5.647   8.982  0.1193  0.1946 -0.6815
21434SOL    HW264881   1.494   5.511   9.047 -1.2591 -0.2125 -1.5140
21435SOL     OW64882   9.285   4.907   2.688 -0.3471  0.2184  0.0178
21435SOL    HW164883   9.321   4.824   2.721  0.0507  0.4463  0.1600
21435SOL    HW264884   9.197   4.884   2.658  0.0102 -0.3960 -0.5777
21436SOL     OW64885   7.235   4.478   5.723  0.3469  0.3996 -0.5272
21436SOL    HW164886   7.245   4.549   5.787  0.2756  1.0561 -1.2303
21436SOL    HW264887   7.143   4.455   5.726  0.3932  0.2570 -0.2114
21437SOL     OW64888   7.634   8.392   0.238  0.0556 -0.2528  0.1254
21437SOL    HW164889   7.560   8.446   0.265  0.7267  0.6094  0.2786
21437SOL    HW264890   7.598   8.335   0.169 -0.8477 -0.1584  0.5064
21438SOL     OW64891   6.471   2.418   2.572 -0.2937  0.1691  0.4292
21438SOL    HW164892   6.440   2.329   2.585  2.4920 -0.8292  0.8236
21438SOL    HW264893   6.545   2.410   2.513 -1.0614  2.4963 -1.0251
21439SOL     OW64894   0.575   2.825   4.812 -0.8188  0.1094 -0.2539
21439SOL    HW164895   0.512   2.891   4.840  0.3381  0.9725  0.3642
21439SOL    HW264896   0.647   2.833   4.874 -0.4210 -1.3793 -0.4942
21440SOL     OW64897   5.420   8.548   3.263  0.4866 -0.7818  0.1023
21440SOL    HW164898   5.381   8.471   3.222  0.6783 -0.5721 -0.4789
21440SOL    HW264899   5.370   8.622   3.228  1.1447 -0.5436 -0.3584
21441SOL     OW64900   4.662   1.683   9.326  0.3934  0.0375 -0.0848
21441SOL    HW164901   4.569   1.680   9.305 -0.0132  2.4289  1.0255
21441SOL    HW264902   4.706   1.693   9.242 -0.3168 -1.2158 -0.6263
21442SOL     OW64903   4.891   5.575   3.744 -0.2721  0.7062 -0.2408
21442SOL    HW164904   4.901   5.597   3.652 -2.2640 -0.4621 -0.7940
21442SOL    HW264905   4.962   5.622   3.788 -0.1304  2.4571 -2.1751
21443SOL     OW64906   1.848   4.508   8.801 -0.1871  0.2180 -0.3856
21443SOL    HW164907   1.800   4.474   8.725 -0.3514  0.1603 -0.2568
21443SOL    HW264908   1.936   4.528   8.767 -0.4452  0.7850 -0.7387
21444SOL     OW64909   7.602   2.336   0.157 -0.0459 -0.1491 -0.2352
21444SOL    HW164910   7.599   2.301   0.068 -0.7706 -1.0768  0.1393
21444SOL    HW264911   7.526   2.297   0.201  0.9099 -0.5736  1.1065
21445SOL     OW64912   5.473   3.172   6.564  0.3571 -0.1598  0.2166
21445SOL    HW164913   5.480   3.172   6.468  1.7420  0.2285  0.2985
21445SOL    HW264914   5.560   3.144   6.594  0.3953  1.1522  1.3804
21446SOL     OW64915   5.557   4.785   6.099 -0.3382  0.0699  0.3796
21446SOL    HW164916   5.519   4.852   6.042 -0.5591  0.1112  0.5763
21446SOL    HW264917   5.649   4.780   6.072 -0.5117 -0.1249 -0.1800
21447SOL     OW64918   1.802   1.223   5.522  0.2002  0.0636 -0.2444
21447SOL    HW164919   1.889   1.183   5.525 -0.0413 -0.4126  0.5349
21447SOL    HW264920   1.743   1.150   5.502 -0.1281  0.1941  0.2293
21448SOL     OW64921   1.860   0.419   7.243 -0.0888  1.0141 -0.1808
21448SOL    HW164922   1.952   0.443   7.228  0.2469 -0.0637  0.0255
21448SOL    HW264923   1.829   0.481   7.309  0.6220  1.1218  0.0618
21449SOL     OW64924   6.054   4.190   5.033 -0.1971 -0.2279  0.1596
21449SOL    HW164925   6.068   4.134   4.956  1.8870  0.4599 -0.0305
21449SOL    HW264926   6.113   4.153   5.099  1.1572  1.6219  0.0590
21450SOL     OW64927   1.529   8.986   9.552  0.5210 -0.1854  0.7808
21450SOL    HW164928   1.436   8.965   9.544  0.7628 -0.8746 -0.4490
21450SOL    HW264929   1.565   8.915   9.606  0.3861 -0.0998  0.9818
21451SOL     OW64930   5.437   1.523   2.136  0.2763  0.2200 -0.2541
21451SOL    HW164931   5.449   1.466   2.212 -1.8156 -1.5351 -1.1240
21451SOL    HW264932   5.353   1.565   2.151  1.3999  2.5238 -0.0452
21452SOL     OW64933   2.103   2.763   8.697 -0.1417 -0.6250  0.2824
21452SOL    HW164934   2.175   2.705   8.671  0.2666 -0.3746  0.8188
21452SOL    HW264935   2.024   2.720   8.666  0.2121 -1.1215  0.0620
21453SOL     OW64936   3.762   5.569   7.656 -0.3750  0.0186 -0.3323
21453SOL    HW164937   3.843   5.592   7.610 -0.7547  0.5247 -0.7726
21453SOL    HW264938   3.783   5.580   7.749 -0.2293  1.1756 -0.4823
21454SOL     OW64939   0.032   6.116   7.630  0.3350  0.3927  0.5687
21454SOL    HW164940   0.086   6.092   7.555  0.6820  1.9349  0.2758
21454SOL    HW264941   0.032   6.039   7.686  0.4769 -0.6121 -0.7805
21455SOL     OW64942   7.170   1.284   4.702 -0.0265 -0.2539  0.9644
21455SOL    HW164943   7.238   1.282   4.769  0.2389 -1.5424  0.6769
21455SOL    HW264944   7.187   1.207   4.649  0.2173  1.1104 -1.0504
21456SOL     OW64945   0.058   4.670   5.753  0.4471 -0.0733  0.0255
21456SOL    HW164946   0.025   4.608   5.687 -0.5081 -0.3141  0.6980
21456SOL    HW264947   0.142   4.699   5.719  0.6490 -1.3120 -0.5885
21457SOL     OW64948   8.295   3.536   9.100  0.3732  0.0414 -0.1328
21457SOL    HW164949   8.310   3.500   9.187 -0.7494 -0.1219  0.0064
21457SOL    HW264950   8.276   3.628   9.115  2.6317  0.6192 -0.4379
21458SOL     OW64951   0.194   7.669   2.219  0.0257  0.4572  0.0062
21458SOL    HW164952   0.280   7.627   2.214 -0.6796 -1.1622  0.7281
21458SOL    HW264953   0.132   7.599   2.200 -1.2227  1.1214  1.4106
21459SOL     OW64954   0.332   0.123   1.791 -0.0207  0.1357  0.0934
21459SOL    HW164955   0.306   0.137   1.882  1.6703 -1.3319  0.8645
21459SOL    HW264956   0.426   0.107   1.795 -0.0890 -1.0385 -1.7798
21460SOL     OW64957   2.317   9.133   8.390  0.1560 -0.8096  0.6262
21460SOL    HW164958   2.309   9.082   8.471  2.5703 -1.1611  0.7069
21460SOL    HW264959   2.411   9.140   8.375 -0.1649 -1.7764 -2.8017
21461SOL     OW64960   8.813   4.997   3.022 -0.0416  0.3377  0.2112
21461SOL    HW164961   8.777   5.055   2.955  0.0242 -0.7157 -0.7706
21461SOL    HW264962   8.885   4.951   2.978  0.5224  0.1950  1.2463
21462SOL     OW64963   1.070   8.248   9.787 -0.7805 -0.8182 -0.2640
21462SOL    HW164964   1.009   8.261   9.859 -2.2880 -1.9230 -1.2574
21462SOL    HW264965   1.049   8.317   9.724 -1.1941 -1.3375 -0.7090
21463SOL     OW64966   3.323   9.016   6.779  0.0528 -0.0404 -0.5740
21463SOL    HW164967   3.275   9.055   6.706 -1.0647 -0.3151 -0.0093
21463SOL    HW264968   3.387   8.958   6.738 -0.0139  0.4191 -1.3441
21464SOL     OW64969   6.329   2.313   3.607 -0.1879  0.8664 -0.0225
21464SOL    HW164970   6.366   2.323   3.519 -0.2395 -1.2558 -0.3294
21464SOL    HW264971   6.401   2.335   3.666  0.1104  1.4389 -0.5901
21465SOL     OW64972   0.209   0.154   2.057  0.2658  0.2528  0.1265
21465SOL    HW164973   0.240   0.212   2.127  1.1667 -0.4502  0.3244
21465SOL    HW264974   0.127   0.194   2.028  0.3298  1.0411  0.9783
21466SOL     OW64975   4.613   7.694   6.807 -0.1253 -0.5397  0.1664
21466SOL    HW164976   4.667   7.646   6.743  1.4513 -1.3916  2.0394
21466SOL    HW264977   4.623   7.786   6.783 -0.2707 -0.8833 -1.3157
21467SOL     OW64978   6.552   1.439   8.294  0.0934  0.2137 -0.1058
21467SOL    HW164979   6.618   1.491   8.248  1.5060 -0.5201  0.9927
21467SOL    HW264980   6.593   1.418   8.378 -1.0749 -1.2859  0.1376
21468SOL     OW64981   9.616   1.573   1.879  0.4101  0.0466  0.5955
21468SOL    HW164982   9.706   1.542   1.863 -0.7010 -2.1370 -2.3105
21468SOL    HW264983   9.576   1.503   1.931 -0.0140  0.2985  0.6078
21469SOL     OW64984   6.865   5.524   2.160  0.1682 -0.6692 -0.3212
21469SOL    HW164985   6.803   5.578   2.209 -0.0299 -0.2920 -0.9826
21469SOL    HW264986   6.863   5.439   2.205  1.4074  0.2089  1.4990
21470SOL     OW64987   0.862   0.937   1.745  0.1805  0.4835 -0.1523
21470SOL    HW164988   0.783   0.888   1.721 -0.0408  1.2255 -1.0278
21470SOL    HW264989   0.829   1.018   1.784  0.4199  1.6119 -2.1417
21471SOL     OW64990   2.268   2.848   3.053  0.1780  0.0560 -0.0361
21471SOL    HW164991   2.266   2.888   2.966  0.0602 -0.0709 -0.0915
21471SOL    HW264992   2.361   2.844   3.075  0.3718 -1.7385 -1.0037
21472SOL     OW64993   4.177   7.097   2.902 -0.0888  0.1472 -0.1261
21472SOL    HW164994   4.167   7.002   2.906  0.8013  0.0878  1.3467
21472SOL    HW264995   4.089   7.129   2.881 -0.5643 -0.9623  0.0725
21473SOL     OW64996   4.829   0.395   6.031 -0.0663 -0.0515  0.2599
21473SOL    HW164997   4.779   0.401   5.949 -0.2148  0.8121  0.3967
21473SOL    HW264998   4.852   0.303   6.039  0.3410 -0.0830 -0.9929
21474SOL     OW64999   9.594   4.961   9.605  0.2322  0.0500  0.4820
21474SOL    HW165000   9.649   4.891   9.640 -0.3751 -0.9574 -0.5151
21474SOL    HW265001   9.596   4.948   9.510 -1.7803 -0.0819  0.4174
21475SOL     OW65002   5.672   1.787   8.303  0.0715  0.0454  0.2603
21475SOL    HW165003   5.655   1.710   8.250  0.0503  0.2247  0.0032
21475SOL    HW265004   5.618   1.776   8.381  0.0831 -0.2067  0.2309
21476SOL     OW65005   0.661   0.970   2.195 -0.7685 -0.0933  0.0725
21476SOL    HW165006   0.617   0.951   2.277  0.8944  0.5409  1.1778
21476SOL    HW265007   0.731   0.905   2.189 -0.7773 -0.0411 -0.7831
21477SOL     OW65008   0.730   0.702   5.605 -0.4437 -0.2347  0.3665
21477SOL    HW165009   0.743   0.795   5.625 -1.5644 -0.0062  0.1260
21477SOL    HW265010   0.635   0.691   5.604 -0.4249 -0.8101 -2.1415
21478SOL     OW65011   1.767   6.367   5.607  0.2507 -0.2066 -0.2033
21478SOL    HW165012   1.761   6.434   5.675 -0.9853  2.4369 -2.7095
21478SOL    HW265013   1.714   6.401   5.535  0.3611 -3.4840 -2.0227
21479SOL     OW65014   1.897   9.794   0.903 -0.3280 -0.1514  0.3820
21479SOL    HW165015   1.893   9.799   0.807 -0.5547  1.7302  0.4386
21479SOL    HW265016   1.982   9.755   0.922  1.3483  2.6852 -0.6065
21480SOL     OW65017   4.890   8.118   6.857  0.2203  0.3193 -0.1301
21480SOL    HW165018   4.934   8.155   6.934  0.8542  0.1605 -0.4138
21480SOL    HW265019   4.959   8.104   6.794  0.0379 -1.4940  0.0035
21481SOL     OW65020   4.760   2.917   2.194 -0.0780  0.1015 -0.4021
21481SOL    HW165021   4.670   2.928   2.223  0.6179  0.7054  1.7505
21481SOL    HW265022   4.790   2.837   2.237  0.1929 -0.5826 -1.7903
21482SOL     OW65023   0.756   4.392   5.424 -0.1012 -0.5084  0.2954
21482SOL    HW165024   0.728   4.312   5.467 -0.1178  0.4716  2.2139
21482SOL    HW265025   0.678   4.447   5.421 -0.4200 -0.9981 -2.1843
21483SOL     OW65026   4.910   6.803   8.904  0.9796  0.5517 -0.4611
21483SOL    HW165027   5.001   6.817   8.879  0.9908  0.5045 -0.4458
21483SOL    HW265028   4.863   6.799   8.821  0.8953  1.2347 -0.4588
21484SOL     OW65029   9.742   0.069   1.951  0.1887  0.2427  0.2916
21484SOL    HW165030   9.665   0.107   1.908 -0.4111  1.8140  2.5497
21484SOL    HW265031   9.705   0.014   2.020  1.1003 -0.3673  0.2990
21485SOL     OW65032   1.562   9.535   2.564 -0.1987 -0.8025 -0.2317
21485SOL    HW165033   1.603   9.608   2.609 -2.1242 -0.5089  1.1558
21485SOL    HW265034   1.549   9.566   2.474  1.8742 -0.6742 -0.5466
21486SOL     OW65035   5.321   1.333   7.828 -0.3736 -0.5406 -0.6211
21486SOL    HW165036   5.306   1.413   7.877 -1.5553 -2.1923  1.9613
21486SOL    HW265037   5.238   1.315   7.785 -0.6822 -1.2233  0.2250
21487SOL     OW65038   2.390   7.244   0.126 -0.6882  0.0099 -0.7057
21487SOL    HW165039   2.478   7.240   0.164 -0.8113 -0.5804 -0.4755
21487SOL    HW265040   2.339   7.295   0.189 -1.3267 -2.3847  0.8600
21488SOL     OW65041   5.974   5.116  -0.002  0.3970 -0.0090 -0.0669
21488SOL    HW165042   5.951   5.205   0.021  0.1164  0.1065 -0.7448
21488SOL    HW265043   6.037   5.088   0.064 -0.9196  0.0308  1.2456
21489SOL     OW65044   9.516   1.815   8.979 -0.4758 -0.1435  0.8899
21489SOL    HW165045   9.453   1.840   8.911 -0.7069 -0.2047  1.0813
21489SOL    HW265046   9.493   1.724   9.001 -0.9535  0.1509  1.6554
21490SOL     OW65047   8.152   1.261   5.156 -0.3246 -0.4194  0.0904
21490SOL    HW165048   8.100   1.181   5.151  1.5073 -1.6557 -0.1264
21490SOL    HW265049   8.114   1.318   5.089 -1.2459 -1.3586 -0.2142
21491SOL     OW65050   0.094   3.571   1.502  0.8679  0.2663  0.1667
21491SOL    HW165051   0.138   3.539   1.424  1.3130 -0.4431  0.6997
21491SOL    HW265052   0.054   3.494   1.541 -1.3594  0.9728 -0.5936
21492SOL     OW65053   2.247   4.134   5.484  0.1903  0.3435  0.1535
21492SOL    HW165054   2.176   4.072   5.465  0.4116  0.2185 -0.2787
21492SOL    HW265055   2.202   4.215   5.510 -0.1886  0.9308 -2.0956
21493SOL     OW65056   8.941   4.640   1.486  0.0065 -0.0862  0.3975
21493SOL    HW165057   8.965   4.607   1.400  1.4087 -0.0482  0.7485
21493SOL    HW265058   8.941   4.736   1.476 -0.3963 -0.0940  0.3035
21494SOL     OW65059   4.492   0.660   8.223  0.1522  0.0424 -0.1341
21494SOL    HW165060   4.579   0.625   8.207  0.3313 -0.0657  0.9983
21494SOL    HW265061   4.506   0.753   8.240 -0.1102  0.2958 -1.2029
21495SOL     OW65062   5.391   4.287   8.914  0.3945  0.1511 -0.2922
21495SOL    HW165063   5.362   4.301   8.824 -0.1927 -0.7593 -0.2501
21495SOL    HW265064   5.407   4.375   8.948  0.1304  0.5256 -1.1248
21496SOL     OW65065   0.690   4.415   1.110  0.3893  0.4321  0.2565
21496SOL    HW165066   0.697   4.449   1.022  1.0828 -1.3356 -0.4258
21496SOL    HW265067   0.597   4.394   1.121  0.4249 -0.0520 -0.3426
21497SOL     OW65068   9.853   1.202   1.469  0.2998  0.3457  0.4047
21497SOL    HW165069   9.939   1.235   1.495  1.4648 -1.0321 -1.4490
21497SOL    HW265070   9.856   1.201   1.373 -1.7135  0.0801  0.3127
21498SOL     OW65071   7.279   5.245   8.684  0.5841 -0.2996 -0.3847
21498SOL    HW165072   7.220   5.312   8.717  1.1606 -0.2857  0.6564
21498SOL    HW265073   7.281   5.259   8.589 -0.3469  0.2796 -0.3287
21499SOL     OW65074   7.204   5.587   1.883  0.1785  0.2663  0.0278
21499SOL    HW165075   7.206   5.596   1.979 -0.7719  0.0111  0.0827
21499SOL    HW265076   7.291   5.615   1.855  1.4024 -2.1378  1.1562
21500SOL     OW65077   1.843   4.037   4.315  0.1108  0.1129 -0.0375
21500SOL    HW165078   1.806   4.124   4.297 -3.2177 -1.0508  0.4510
21500SOL    HW265079   1.855   3.999   4.228  1.6641  1.0323 -0.2595
21501SOL     OW65080   1.469   1.781   4.475 -0.4294 -0.2164  0.0510
21501SOL    HW165081   1.404   1.732   4.426  0.2693 -1.6393  0.5025
21501SOL    HW265082   1.545   1.786   4.416  0.3228 -1.7187  0.8325
21502SOL     OW65083   8.330   6.718   2.574 -0.5157  0.0358  0.2876
21502SOL    HW165084   8.348   6.702   2.482  1.4083 -0.8779  0.7665
21502SOL    HW265085   8.238   6.744   2.577 -0.7831 -0.5220 -1.8002
21503SOL     OW65086   9.106   6.960   7.830  0.4499  0.1058  0.5507
21503SOL    HW165087   9.200   6.954   7.850  0.4069 -0.5474  0.5697
21503SOL    HW265088   9.092   7.053   7.812  0.7212  0.5694  2.4495
21504SOL     OW65089   2.342   6.502   6.703 -0.1949  0.4359 -0.4261
21504SOL    HW165090   2.369   6.584   6.744  0.2865  1.2932 -2.3381
21504SOL    HW265091   2.247   6.507   6.700 -0.2748  0.1637  0.8885
21505SOL     OW65092   9.370   6.351   0.176  0.2705 -0.3680 -0.0646
21505SOL    HW165093   9.367   6.413   0.249 -0.4570  0.5023 -0.8067
21505SOL    HW265094   9.281   6.317   0.170  0.1995 -0.0458 -0.8659
21506SOL     OW65095   9.328   2.180   5.872 -0.3623  0.4913 -0.0318
21506SOL    HW165096   9.353   2.091   5.845 -0.1629  0.5185  0.0616
21506SOL    HW265097   9.396   2.206   5.934 -0.3690  0.7453 -0.1309
21507SOL     OW65098   9.359   8.696   8.483  0.2373  0.0878 -0.3815
21507SOL    HW165099   9.354   8.791   8.473  1.3662  0.3995  1.5529
21507SOL    HW265100   9.409   8.682   8.564  0.2237 -2.1604 -0.6802
21508SOL     OW65101   8.048   7.277   5.141 -0.3468 -0.5121 -0.4462
21508SOL    HW165102   8.019   7.364   5.113 -0.2657 -0.2788  0.1826
21508SOL    HW265103   8.142   7.277   5.127 -0.3116 -0.4090 -0.2110
21509SOL     OW65104   6.761   7.409   8.607 -0.9109  0.8416  0.1030
21509SOL    HW165105   6.698   7.421   8.536 -1.1841 -0.1014  0.1687
21509SOL    HW265106   6.844   7.391   8.563 -1.0970  0.1729  0.0058
21510SOL     OW65107   8.869   6.026   4.784  0.1675 -0.0387  0.4177
21510SOL    HW165108   8.951   6.063   4.753  1.1019 -0.1430  2.5541
21510SOL    HW265109   8.893   5.977   4.862 -1.9925  0.4078  1.4557
21511SOL     OW65110   2.256   2.611   2.052  0.6567 -0.4278 -0.2139
21511SOL    HW165111   2.348   2.637   2.046  0.1924  1.4078 -0.1447
21511SOL    HW265112   2.208   2.694   2.055 -0.9548 -1.3377  0.6020
21512SOL     OW65113   1.458   2.388   6.977  0.1085 -0.2312  0.3429
21512SOL    HW165114   1.486   2.331   7.049  1.7722  0.7789  0.5436
21512SOL    HW265115   1.531   2.448   6.964 -1.1191  1.1173 -0.6401
21513SOL     OW65116   0.649   8.221   3.951  0.1551  0.3808 -0.7102
21513SOL    HW165117   0.733   8.204   3.994  1.5024 -0.3520 -3.4604
21513SOL    HW265118   0.586   8.223   4.023  2.2744 -0.5741  1.3046
21514SOL     OW65119   6.476   1.326   4.202 -0.5377  0.3561 -0.3324
21514SOL    HW165120   6.382   1.338   4.209 -0.3225  1.1509  2.0979
21514SOL    HW265121   6.487   1.232   4.188 -1.6594  0.1755 -0.1075
21515SOL     OW65122   3.644   8.093   8.913 -0.0912  0.2514 -0.2042
21515SOL    HW165123   3.705   8.133   8.851 -0.1210  1.0159  0.2392
21515SOL    HW265124   3.699   8.053   8.979 -0.0630  0.1413 -0.2952
21516SOL     OW65125   4.226   6.382   2.586 -0.4254 -0.0588  0.2159
21516SOL    HW165126   4.139   6.341   2.592 -0.3275 -0.3766 -0.4139
21516SOL    HW265127   4.286   6.308   2.573 -0.1719  0.2296 -0.3046
21517SOL     OW65128   1.272   0.248   6.094  0.4379 -0.1241 -0.1873
21517SOL    HW165129   1.238   0.168   6.053 -0.2879  0.2531 -0.3430
21517SOL    HW265130   1.209   0.316   6.069  1.6038  0.7096 -0.9243
21518SOL     OW65131   5.460   1.099   5.120  0.1233  0.4188 -0.2595
21518SOL    HW165132   5.523   1.064   5.184 -1.0212 -0.5845  0.3548
21518SOL    HW265133   5.403   1.025   5.099 -0.5316  1.1706 -1.2139
21519SOL     OW65134   7.378   3.869   6.731  0.2706  0.1747  0.8377
21519SOL    HW165135   7.357   3.910   6.647  2.5201 -0.2774 -0.0120
21519SOL    HW265136   7.299   3.880   6.784 -1.1271  0.6530 -1.2548
21520SOL     OW65137   8.441   2.878   3.250  0.0784 -0.6716 -0.0232
21520SOL    HW165138   8.372   2.811   3.241  0.8058 -1.5415  0.7208
21520SOL    HW265139   8.488   2.854   3.330 -0.1281  1.2000  0.7097
21521SOL     OW65140   2.377   3.964   5.154 -0.0811  0.2665 -0.1419
21521SOL    HW165141   2.299   3.936   5.106  0.1566  0.1608 -0.4716
21521SOL    HW265142   2.355   4.051   5.187 -1.5078 -0.9620  2.4480
21522SOL     OW65143   6.822   3.891   6.643 -0.1690  0.1236 -0.0265
21522SOL    HW165144   6.828   3.985   6.665 -0.2502  0.0955  0.1150
21522SOL    HW265145   6.816   3.847   6.728  0.8383 -0.0805 -0.0452
21523SOL     OW65146   0.658   3.141   5.621 -0.0835 -0.1611  0.5109
21523SOL    HW165147   0.745   3.179   5.609  0.3751 -1.1613  0.5737
21523SOL    HW265148   0.647   3.137   5.716 -0.4438  0.5036  0.4988
21524SOL     OW65149   6.174   1.725   4.216  0.1343  0.0307  0.2911
21524SOL    HW165150   6.140   1.639   4.192 -0.2439  0.4521 -0.7225
21524SOL    HW265151   6.269   1.715   4.210  0.1005  0.5017 -3.0374
21525SOL     OW65152   0.683   9.711   6.568  0.0796  0.1393 -0.3814
21525SOL    HW165153   0.650   9.636   6.518 -0.7557  0.8272 -0.9006
21525SOL    HW265154   0.622   9.720   6.641  0.6633 -0.1953  0.1464
21526SOL     OW65155   1.134   1.828   6.711 -0.1247 -0.8004 -0.1910
21526SOL    HW165156   1.209   1.804   6.657  1.5896  1.3367  1.0386
21526SOL    HW265157   1.096   1.905   6.667 -1.3937 -1.6043 -0.5720
21527SOL     OW65158   6.626   5.366   2.858 -0.1125 -0.0897  0.0218
21527SOL    HW165159   6.674   5.332   2.934  1.6815 -1.3574 -1.5817
21527SOL    HW265160   6.655   5.457   2.850 -0.0646 -0.0437  0.6418
21528SOL     OW65161   9.071   2.159   2.425  0.1919 -0.3562 -0.6415
21528SOL    HW165162   9.048   2.101   2.353 -0.6580 -0.5485 -0.2260
21528SOL    HW265163   9.045   2.112   2.504  1.3458 -0.2553 -0.1832
21529SOL     OW65164   8.495   2.401   9.102  0.1752 -0.2147 -0.2085
21529SOL    HW165165   8.500   2.335   9.171  0.8532  0.2740  0.2195
21529SOL    HW265166   8.495   2.351   9.021 -3.1975 -0.9874  0.0981
21530SOL     OW65167   3.305   9.632   2.361  1.0442 -0.2009  0.2960
21530SOL    HW165168   3.395   9.660   2.381  0.3082  3.4341 -0.6948
21530SOL    HW265169   3.251   9.705   2.391 -1.7249 -2.5282  1.3746
21531SOL     OW65170   0.350   2.668   0.198  0.2484  0.5345 -0.1231
21531SOL    HW165171   0.342   2.726   0.122 -3.0217 -0.2501 -0.5431
21531SOL    HW265172   0.284   2.699   0.259  0.7458 -0.7050  1.1085
21532SOL     OW65173   3.812   5.650   9.760  0.1302  0.0263 -0.0133
21532SOL    HW165174   3.814   5.651   9.855 -0.8528 -1.1296  0.0549
21532SOL    HW265175   3.902   5.631   9.734  0.3717  0.1945  0.6856
21533SOL     OW65176   5.502   3.165   2.491 -0.2175 -0.1898  0.6921
21533SOL    HW165177   5.551   3.216   2.426 -2.7094  0.4967 -0.8307
21533SOL    HW265178   5.469   3.090   2.441 -1.6276 -0.0049  1.3044
21534SOL     OW65179   7.232   0.335   5.912 -0.1786 -0.3610  0.3323
21534SOL    HW165180   7.314   0.375   5.940 -0.1299 -0.3218  0.1342
21534SOL    HW265181   7.166   0.403   5.927 -0.0416 -0.0674 -0.3581
21535SOL     OW65182   7.813   3.520   9.044  0.1546 -0.0829 -0.7096
21535SOL    HW165183   7.881   3.462   9.078  0.1494 -0.0897 -0.7111
21535SOL    HW265184   7.738   3.506   9.102 -0.0828 -0.5940 -1.1386
21536SOL     OW65185   9.550   1.609   5.311  0.1271 -0.0658 -0.0813
21536SOL    HW165186   9.570   1.527   5.356  3.9448 -0.2192 -1.6489
21536SOL    HW265187   9.549   1.586   5.218  0.8844  1.5399 -0.5243
21537SOL     OW65188   2.738   5.088   8.886 -0.0667 -0.1947 -1.0231
21537SOL    HW165189   2.666   5.132   8.840  0.2875  0.6160 -0.8310
21537SOL    HW265190   2.797   5.059   8.816  0.6301  1.3172 -1.1047
21538SOL     OW65191   8.758   4.027   8.682  0.2114 -0.4345  0.6669
21538SOL    HW165192   8.824   3.964   8.655  0.3243 -0.5209  1.1345
21538SOL    HW265193   8.806   4.109   8.694  0.3094 -0.6002  1.4194
21539SOL     OW65194   2.692   9.405   4.890 -0.4948 -0.0739  0.0745
21539SOL    HW165195   2.775   9.357   4.895 -0.1956  0.5489  1.9960
21539SOL    HW265196   2.714   9.485   4.842  0.7818  1.3692  2.7992
21540SOL     OW65197   5.335   7.541   4.782 -0.4687 -0.2183  0.2748
21540SOL    HW165198   5.269   7.578   4.723  1.2380 -0.0203 -1.6541
21540SOL    HW265199   5.417   7.583   4.755  0.5717 -0.9095  2.1485
21541SOL     OW65200   3.608   1.697   2.933  0.4109  0.0261  0.4786
21541SOL    HW165201   3.655   1.670   2.854 -0.5597 -0.8140  0.1636
21541SOL    HW265202   3.675   1.737   2.989  1.1962  0.2215 -0.5718
21542SOL     OW65203   8.172   5.719   1.719  0.5907 -0.0617  0.2022
21542SOL    HW165204   8.224   5.779   1.772  0.8517 -0.7674  0.7683
21542SOL    HW265205   8.157   5.766   1.637  0.7012  0.8081  0.6641
21543SOL     OW65206   7.622   6.058   2.811  0.2810 -0.1540 -0.0908
21543SOL    HW165207   7.668   6.087   2.732  0.2931 -1.0138 -0.4067
21543SOL    HW265208   7.609   5.964   2.798 -0.9701 -0.0487  0.3008
21544SOL     OW65209   2.118   1.292   5.328  0.5891  0.0279  0.1726
21544SOL    HW165210   2.079   1.211   5.361 -0.5166  0.2820 -0.4821
21544SOL    HW265211   2.175   1.264   5.257 -0.0085 -0.1562 -0.2378
21545SOL     OW65212   9.005   1.875   9.888 -0.1864  0.4642  0.4655
21545SOL    HW165213   8.912   1.849   9.891 -0.0236 -0.0821  2.1864
21545SOL    HW265214   9.047   1.806   9.837 -0.4764 -0.2514  1.1609
21546SOL     OW65215   8.479   0.794   7.764 -0.6708 -0.3777 -0.3629
21546SOL    HW165216   8.443   0.881   7.783  0.2441  0.0199 -0.3820
21546SOL    HW265217   8.539   0.776   7.837 -1.5033 -1.3906  0.1043
21547SOL     OW65218   9.584   7.112   0.642 -0.1992  0.8616  0.5002
21547SOL    HW165219   9.643   7.148   0.709  0.9612 -0.2844  0.1427
21547SOL    HW265220   9.595   7.017   0.649  0.4920  0.7091 -1.7255
21548SOL     OW65221   8.037   0.034   5.629 -0.3778  0.2034 -0.2621
21548SOL    HW165222   8.113   0.025   5.572  0.3209  0.5029  0.6062
21548SOL    HW265223   7.962   0.013   5.573  0.0195  2.9927 -2.0002
21549SOL     OW65224   7.264   2.115   3.142 -0.4251  0.0435 -0.2968
21549SOL    HW165225   7.346   2.087   3.183  0.4964  0.6171 -1.6836
21549SOL    HW265226   7.239   2.043   3.085  0.0625  0.5574 -1.1863
21550SOL     OW65227   8.379   3.977   5.469  0.6939 -0.3181  0.5119
21550SOL    HW165228   8.392   3.882   5.464  1.0487 -0.2177 -1.0413
21550SOL    HW265229   8.286   3.987   5.491  0.2912 -1.0526 -0.7178
21551SOL     OW65230   5.979   9.254   1.800 -0.2343  0.1608 -0.2394
21551SOL    HW165231   5.958   9.327   1.859  0.5695  0.5060 -0.3668
21551SOL    HW265232   5.988   9.295   1.714 -0.0666 -0.1367 -0.3633
21552SOL     OW65233   1.166   4.948   9.562 -0.5418 -0.3151 -0.5371
21552SOL    HW165234   1.190   4.987   9.646  1.4757 -1.2918 -0.5961
21552SOL    HW265235   1.178   5.019   9.498  0.1102 -0.1637 -0.2603
21553SOL     OW65236   3.809   0.474   5.197 -0.4233 -0.2449  0.1522
21553SOL    HW165237   3.816   0.379   5.204  2.3951 -0.1098  0.4671
21553SOL    HW265238   3.861   0.507   5.270 -2.3141  1.5978  0.7705
21554SOL     OW65239   9.640   2.391   7.579 -0.0125  0.4319 -0.0704
21554SOL    HW165240   9.656   2.430   7.493  0.4016 -0.7734 -0.5648
21554SOL    HW265241   9.556   2.346   7.570 -0.0671  0.4696  0.2226
21555SOL     OW65242   4.100   2.798   7.294  0.6477 -0.6324 -0.3883
21555SOL    HW165243   4.115   2.865   7.361  0.8276 -1.5097  0.4700
21555SOL    HW265244   4.104   2.715   7.341 -1.7286 -1.1891 -1.0233
21556SOL     OW65245   4.404   3.855   5.330  0.1876 -0.0216 -0.0275
21556SOL    HW165246   4.440   3.805   5.257 -0.0360 -1.2570  0.6808
21556SOL    HW265247   4.453   3.826   5.406 -1.3970 -0.8264  0.7519
21557SOL     OW65248   1.510   2.604   8.668  0.3953 -1.0179  0.1880
21557SOL    HW165249   1.446   2.548   8.711 -1.3376  1.8697  1.6231
21557SOL    HW265250   1.486   2.693   8.693  2.3038  0.5376 -2.8511
21558SOL     OW65251   2.215   5.927   7.004 -0.1330 -0.3822  0.2822
21558SOL    HW165252   2.241   5.969   7.086 -0.3541  0.3388 -0.0152
21558SOL    HW265253   2.137   5.975   6.976  1.7425  1.5664 -2.0404
21559SOL     OW65254   0.775   8.363   2.068  0.8165 -0.0833 -0.2621
21559SOL    HW165255   0.763   8.431   2.134  3.0793 -0.5453  0.7248
21559SOL    HW265256   0.741   8.401   1.987 -0.4404  1.1482  0.8015
21560SOL     OW65257   6.914   8.847   2.366  0.2090  0.0849  0.4001
21560SOL    HW165258   6.964   8.792   2.305  0.1862  0.0220  0.4380
21560SOL    HW265259   6.978   8.877   2.430 -0.0425 -1.1404  1.2727
21561SOL     OW65260   3.031   6.372   3.821 -0.6545  0.8126  0.3180
21561SOL    HW165261   3.108   6.403   3.773 -2.3412  1.2926 -2.2911
21561SOL    HW265262   3.014   6.285   3.784 -1.1928  0.5859  1.0847
21562SOL     OW65263   9.005   1.999   6.040 -0.1705  0.1192 -0.1354
21562SOL    HW165264   8.949   2.063   6.084 -0.5863  1.0584 -1.9167
21562SOL    HW265265   9.092   2.011   6.079 -0.9737 -0.7537  2.0413
21563SOL     OW65266   6.327   4.308   4.854  0.3707  0.2009 -0.6852
21563SOL    HW165267   6.342   4.297   4.760 -2.5283  0.9607 -1.3579
21563SOL    HW265268   6.308   4.220   4.886  2.2392 -0.1980 -0.5548
21564SOL     OW65269   0.655   2.290   5.962  0.1037  0.0061 -0.0676
21564SOL    HW165270   0.562   2.267   5.963 -0.1931  1.1423 -0.3570
21564SOL    HW265271   0.688   2.252   5.880 -0.1663 -0.1452 -0.1073
21565SOL     OW65272   9.645   8.121   7.211 -0.5300 -0.0717  0.3066
21565SOL    HW165273   9.623   8.151   7.299  1.7998  0.4576  0.7760
21565SOL    HW265274   9.687   8.196   7.170  0.5575 -1.0310 -0.3975
21566SOL     OW65275   0.046   2.240   8.039  0.2406 -0.5445 -1.0115
21566SOL    HW165276   0.014   2.299   8.107  0.8619  0.5387 -1.6330
21566SOL    HW265277  -0.009   2.259   7.963 -0.2345 -1.5185 -0.9297
21567SOL     OW65278   3.501   0.711   3.911  0.5480  0.1078  0.2288
21567SOL    HW165279   3.472   0.793   3.952 -1.1090 -0.1759 -0.3122
21567SOL    HW265280   3.510   0.733   3.818 -0.4961 -0.4503 -0.0171
21568SOL     OW65281   8.849   8.741   5.287 -0.2002  0.1841  0.1461
21568SOL    HW165282   8.941   8.723   5.267  0.2240  2.2223  0.0651
21568SOL    HW265283   8.838   8.834   5.267 -2.1944  0.0648  0.5105
21569SOL     OW65284   0.401   3.643   0.663  0.6117  0.1186 -0.2774
21569SOL    HW165285   0.355   3.562   0.685 -0.9352  1.2793  1.0120
21569SOL    HW265286   0.494   3.623   0.677  0.3607 -1.6776 -0.9178
21570SOL     OW65287   2.066   1.727   4.839  0.5482 -0.2989  0.9590
21570SOL    HW165288   2.042   1.789   4.907  2.4826  0.9796  0.5696
21570SOL    HW265289   2.010   1.749   4.765 -0.6596 -0.8513  1.6713
21571SOL     OW65290   7.812   4.213   3.667 -0.5292  0.0836 -0.1693
21571SOL    HW165291   7.822   4.307   3.650 -2.8520  0.4518  0.2474
21571SOL    HW265292   7.745   4.184   3.606  0.0937 -1.3167 -0.2306
21572SOL     OW65293   5.904   5.222   3.472  0.6529  0.0339 -0.1519
21572SOL    HW165294   5.986   5.263   3.446 -0.0668 -0.5017 -3.9671
21572SOL    HW265295   5.837   5.284   3.446 -0.2265 -0.8910 -0.1627
21573SOL     OW65296   3.160   1.621   1.884 -0.1680  0.7163 -0.6050
21573SOL    HW165297   3.188   1.629   1.793  0.4098 -1.1979 -0.6269
21573SOL    HW265298   3.070   1.653   1.883 -0.4435 -0.0032 -2.0245
21574SOL     OW65299   3.410   7.050   6.265  0.2258  0.6507 -0.2295
21574SOL    HW165300   3.383   7.107   6.193  0.7044  0.0382 -0.9066
21574SOL    HW265301   3.389   6.962   6.235 -1.4391  0.5047  1.2106
21575SOL     OW65302   3.028   2.315   8.313 -0.2073  0.1626 -0.2632
21575SOL    HW165303   2.942   2.312   8.356 -0.3976  0.1324 -0.6327
21575SOL    HW265304   3.030   2.236   8.259 -0.0135  0.2481 -0.3822
21576SOL     OW65305   7.747   4.325   8.793 -0.3636 -0.1207 -0.5433
21576SOL    HW165306   7.726   4.252   8.851  0.5846 -0.4405 -0.5834
21576SOL    HW265307   7.842   4.336   8.803 -0.5353  1.3231 -0.2724
21577SOL     OW65308   7.433   7.777   7.360 -0.5678 -0.1769  0.1681
21577SOL    HW165309   7.411   7.724   7.283 -1.7051 -0.4133  0.6320
21577SOL    HW265310   7.378   7.855   7.352  0.3578  0.4738  0.0149
21578SOL     OW65311   9.541   9.547   5.873 -0.5704 -0.3274 -0.6883
21578SOL    HW165312   9.629   9.513   5.887  0.7142  1.5047 -3.3953
21578SOL    HW265313   9.529   9.612   5.942  0.0794 -0.8227 -0.1012
21579SOL     OW65314   0.613   7.850   0.186 -0.4818  0.0330  0.3017
21579SOL    HW165315   0.646   7.783   0.246  2.1589  0.2298 -0.7659
21579SOL    HW265316   0.571   7.801   0.116  1.9350 -0.6839 -0.7737
21580SOL     OW65317   6.626   8.574   2.707  0.1389  0.4662 -0.3644
21580SOL    HW165318   6.583   8.633   2.770  0.0888  0.6399 -0.5603
21580SOL    HW265319   6.685   8.522   2.761  1.4719  1.8702 -0.4073
21581SOL     OW65320   8.130   3.577   5.023  0.3485 -0.3226  0.2368
21581SOL    HW165321   8.173   3.662   5.023 -0.9359  0.3495 -0.1653
21581SOL    HW265322   8.046   3.592   4.979  0.6026 -2.0618 -0.9735
21582SOL     OW65323   6.478   6.291   0.265  0.4730  0.6629  0.0799
21582SOL    HW165324   6.540   6.291   0.338 -2.1901  1.2176  2.5046
21582SOL    HW265325   6.496   6.374   0.219  1.9722  0.4592  0.2381
21583SOL     OW65326   3.456   1.469   7.445 -0.1991  0.5428  0.1181
21583SOL    HW165327   3.461   1.504   7.356 -1.7156  0.1314 -0.1530
21583SOL    HW265328   3.443   1.546   7.500 -0.7929  0.6600 -0.1843
21584SOL     OW65329   9.923   5.598   5.998 -0.0783 -0.1844 -0.2484
21584SOL    HW165330   9.945   5.505   6.004 -0.0871 -0.2537 -1.1500
21584SOL    HW265331   9.831   5.603   6.021 -0.6762 -0.7181 -2.2765
21585SOL     OW65332   5.535   6.700   0.126  0.2887  0.7425  0.1353
21585SOL    HW165333   5.511   6.608   0.112 -0.7025  0.9485  0.4176
21585SOL    HW265334   5.511   6.744   0.044 -2.2753  1.3161  1.1226
21586SOL     OW65335   2.199   3.450   8.258  0.3838  0.1217 -0.2533
21586SOL    HW165336   2.285   3.457   8.217  0.8204  2.0757  0.8827
21586SOL    HW265337   2.216   3.461   8.352 -1.0273 -0.2112  0.0657
21587SOL     OW65338   7.952   3.053   8.550 -0.5258 -0.4128 -0.1351
21587SOL    HW165339   7.910   3.010   8.475  0.3647 -1.6183  0.0274
21587SOL    HW265340   7.970   2.981   8.611  1.2163  0.1574  0.0592
21588SOL     OW65341   7.442   1.234   4.486  0.5221 -0.5551  0.5693
21588SOL    HW165342   7.352   1.205   4.472  1.2149 -2.2504 -0.6793
21588SOL    HW265343   7.490   1.201   4.410  1.8351  2.1365  0.0961
21589SOL     OW65344   6.310   2.710   6.064 -0.2612  0.0272  0.2759
21589SOL    HW165345   6.275   2.777   6.123 -2.5121  1.1312 -2.1027
21589SOL    HW265346   6.262   2.630   6.087  0.2284 -0.0337  1.1214
21590SOL     OW65347   6.995   5.153   8.566  0.1942 -0.3157  0.3122
21590SOL    HW165348   7.077   5.149   8.517  0.3456 -0.3001  0.5625
21590SOL    HW265349   6.955   5.236   8.540  1.2922  0.7416  1.8282
21591SOL     OW65350   5.392   3.975   9.615  0.1035 -0.2337 -0.0190
21591SOL    HW165351   5.315   3.962   9.670 -0.2657 -1.5916 -0.8153
21591SOL    HW265352   5.438   4.049   9.655 -1.0948 -0.0322  1.0358
21592SOL     OW65353   3.724   8.654   2.439 -0.1367  0.0644  0.0468
21592SOL    HW165354   3.698   8.567   2.471  0.5073 -0.2828 -0.3465
21592SOL    HW265355   3.781   8.688   2.508  0.9872 -0.5481 -0.5481
21593SOL     OW65356   0.750   7.524   3.685  0.0058  0.6351 -0.1445
21593SOL    HW165357   0.819   7.536   3.620 -0.4297 -0.5747 -0.8853
21593SOL    HW265358   0.711   7.610   3.695  1.7367  1.3910  0.4537
21594SOL     OW65359   4.164   4.131   2.093 -0.2557 -0.2888  0.2675
21594SOL    HW165360   4.106   4.089   2.156  1.1533  0.1564  1.9547
21594SOL    HW265361   4.172   4.221   2.124 -1.0601  0.5021 -1.7027
21595SOL     OW65362   1.565   6.302   2.978 -0.5534 -0.2228  0.5087
21595SOL    HW165363   1.475   6.292   3.009 -0.9525  2.2805  0.3512
21595SOL    HW265364   1.619   6.267   3.050 -1.6129 -0.8589  1.0105
21596SOL     OW65365   4.185   9.829   4.578 -0.1357 -0.6921 -0.3628
21596SOL    HW165366   4.264   9.884   4.581  0.0879 -1.0252 -0.0314
21596SOL    HW265367   4.117   9.887   4.545  0.0035 -0.1005  0.3581
21597SOL     OW65368   8.244   3.742   9.548  0.6828 -0.1632  0.2185
21597SOL    HW165369   8.334   3.772   9.545  1.3081 -1.9241 -2.4966
21597SOL    HW265370   8.197   3.800   9.487 -0.0431  0.6296  1.4772
21598SOL     OW65371   4.397   9.689   9.243  0.5871 -0.3296 -0.3108
21598SOL    HW165372   4.393   9.750   9.169  2.3642  1.0922  0.6803
21598SOL    HW265373   4.453   9.733   9.307  1.1248 -2.6055  0.8718
21599SOL     OW65374   8.788   7.681   7.634 -0.2345 -0.1130  0.5787
21599SOL    HW165375   8.729   7.735   7.581 -0.0870 -0.7153 -0.2094
21599SOL    HW265376   8.734   7.608   7.664  0.5061 -1.7332 -1.7475
21600SOL     OW65377   4.926   9.665   8.710 -0.3469  0.0750  0.0254
21600SOL    HW165378   4.854   9.728   8.707 -0.5373 -0.0805  1.0298
21600SOL    HW265379   4.955   9.657   8.619 -1.2396  0.5543 -0.3084
21601SOL     OW65380   3.010   9.439   0.689 -0.1742  0.2340  1.4390
21601SOL    HW165381   2.967   9.387   0.757 -1.6527 -0.5692 -0.0661
21601SOL    HW265382   2.938   9.480   0.641  0.8909  1.8178  1.1183
21602SOL     OW65383   5.094   8.562   4.386  0.6481  0.6333  0.2766
21602SOL    HW165384   5.175   8.512   4.374  1.0484  1.0194  1.2580
21602SOL    HW265385   5.119   8.653   4.369 -0.0943  0.5278 -1.5701
21603SOL     OW65386   3.626   4.269   5.362  0.9383 -0.3507 -0.3162
21603SOL    HW165387   3.613   4.294   5.271 -1.7573  0.5867  0.2202
21603SOL    HW265388   3.634   4.173   5.360 -1.9784 -0.6873 -1.3981
21604SOL     OW65389   9.284   0.527   0.817 -0.0467 -0.1495  0.1380
21604SOL    HW165390   9.321   0.597   0.872 -1.3136  0.7261 -0.0710
21604SOL    HW265391   9.249   0.573   0.740  1.9208 -1.3822 -1.5766
21605SOL     OW65392   1.359   6.849   6.353 -0.1693  0.5228  0.1053
21605SOL    HW165393   1.376   6.802   6.271  0.9019 -1.7701  1.5490
21605SOL    HW265394   1.432   6.910   6.361  0.8409 -0.6739  0.2968
21606SOL     OW65395   0.257   6.087   6.291  0.1992 -0.0171  0.0073
21606SOL    HW165396   0.186   6.073   6.354  1.1486 -1.1994  0.8913
21606SOL    HW265397   0.296   6.000   6.280  0.4169  0.2694 -1.8188
21607SOL     OW65398   2.028   5.129   9.627  0.4182  0.1347  0.2853
21607SOL    HW165399   1.992   5.084   9.551 -1.7067 -0.7905  1.7322
21607SOL    HW265400   2.058   5.059   9.684 -0.1091  0.6690  1.2502
21608SOL     OW65401   6.457   1.928   9.909  0.3254  0.2964 -0.1715
21608SOL    HW165402   6.495   2.016   9.909 -0.0929  0.5182  1.4667
21608SOL    HW265403   6.365   1.943   9.887  0.4308  0.1591 -0.7212
21609SOL     OW65404   1.288   4.908   0.463 -0.2829  0.1446  0.4410
21609SOL    HW165405   1.277   4.991   0.510  2.4754  0.1992  1.1600
21609SOL    HW265406   1.335   4.932   0.383 -1.0905 -0.5184 -0.2467
21610SOL     OW65407   3.661   5.215   1.206 -0.4717 -0.2743 -0.4412
21610SOL    HW165408   3.720   5.265   1.262  0.4553 -0.0059 -1.6266
21610SOL    HW265409   3.705   5.132   1.191 -1.2832 -0.8392  0.2222
21611SOL     OW65410   3.484   5.783   2.076  0.2635  0.0281  0.9968
21611SOL    HW165411   3.492   5.718   2.145  1.6010  0.3460  1.1613
21611SOL    HW265412   3.573   5.798   2.046 -0.1592  0.8604  0.1000
21612SOL     OW65413   7.875   2.901   8.228  0.1714  0.9925 -0.4958
21612SOL    HW165414   7.809   2.941   8.285 -0.3814  0.2012 -0.5699
21612SOL    HW265415   7.900   2.821   8.273  0.2752  0.7365 -1.0055
21613SOL     OW65416   1.874   6.222   2.082 -0.0334  0.2980 -0.2759
21613SOL    HW165417   1.859   6.180   2.167 -0.7452  1.5079  0.2155
21613SOL    HW265418   1.819   6.173   2.021  0.1359 -0.2900  0.0328
21614SOL     OW65419   9.489   5.555   2.458  0.4892  0.3691 -0.4718
21614SOL    HW165420   9.504   5.551   2.552 -2.1593 -1.0676 -0.0136
21614SOL    HW265421   9.445   5.639   2.444 -1.0473 -0.3329 -0.0410
21615SOL     OW65422   5.846   7.018   8.208  0.0869  0.4576 -0.2941
21615SOL    HW165423   5.876   7.108   8.203 -0.6538  0.6330 -1.9547
21615SOL    HW265424   5.765   7.016   8.158 -1.0288 -0.7057  1.4259
21616SOL     OW65425   3.235   0.194   5.297  0.3546  0.3450 -0.3049
21616SOL    HW165426   3.149   0.166   5.266 -0.2690 -1.0094  2.3209
21616SOL    HW265427   3.222   0.284   5.326 -0.8398 -0.4771  1.9884
21617SOL     OW65428   0.766   1.054   0.791  0.0250  0.0829 -0.3236
21617SOL    HW165429   0.693   1.086   0.738  0.1102 -0.5890 -0.8715
21617SOL    HW265430   0.828   1.127   0.795  0.4854 -0.1602 -2.0290
21618SOL     OW65431   5.375   2.673   9.466  0.2727 -0.5719 -0.1049
21618SOL    HW165432   5.459   2.643   9.430  0.6528  0.2506  0.0557
21618SOL    HW265433   5.316   2.599   9.456  1.3624 -1.6296  0.9370
21619SOL     OW65434   3.503   9.086   9.024  0.1490  0.1458  0.2777
21619SOL    HW165435   3.580   9.062   8.973 -0.8643  0.9947 -1.7547
21619SOL    HW265436   3.470   9.002   9.057  2.3973 -0.1528  2.0017
21620SOL     OW65437   0.556   2.757   9.677 -0.7117  0.0190  0.2627
21620SOL    HW165438   0.510   2.674   9.665  0.9478 -0.7979 -0.8598
21620SOL    HW265439   0.599   2.749   9.762  0.2032 -0.6934 -0.2469
21621SOL     OW65440   2.023   5.099   4.891  0.3497  0.3846  0.1497
21621SOL    HW165441   2.096   5.087   4.829  0.5655 -1.2574  0.6701
21621SOL    HW265442   2.049   5.174   4.944  1.1016  0.5607 -0.4418
21622SOL     OW65443   9.942   8.559   3.399  0.2352 -0.0136 -0.3252
21622SOL    HW165444   9.981   8.592   3.479 -0.3264 -2.2636  0.9744
21622SOL    HW265445   9.982   8.610   3.329  1.9731  0.9024  1.2652
21623SOL     OW65446   8.381   5.599   9.597  0.4484 -0.2671  0.3946
21623SOL    HW165447   8.397   5.511   9.562 -0.4271  0.0653 -0.8995
21623SOL    HW265448   8.432   5.657   9.540 -2.0134  0.4096 -1.2640
21624SOL     OW65449   8.374   7.447   8.823 -0.1832  0.7688  0.4859
21624SOL    HW165450   8.450   7.494   8.856  0.2304  0.2709  0.2578
21624SOL    HW265451   8.374   7.463   8.728  0.4710 -0.3866  0.2710
21625SOL     OW65452   6.350   9.538   4.933 -0.3393 -0.1223 -0.3522
21625SOL    HW165453   6.311   9.599   4.996  0.6331 -0.7476  0.9155
21625SOL    HW265454   6.281   9.521   4.870 -0.8121  1.8550 -0.4466
21626SOL     OW65455   1.880   3.982   8.188 -0.0801 -0.6538  0.0154
21626SOL    HW165456   1.856   3.953   8.275  0.9162  0.7936  0.8323
21626SOL    HW265457   1.955   3.928   8.164  0.6800  0.0358  0.7816
21627SOL     OW65458   2.753   2.047   2.960  0.3101 -0.8345 -0.1355
21627SOL    HW165459   2.677   2.022   2.906 -0.6746 -0.9320  1.2414
21627SOL    HW265460   2.768   2.139   2.938  0.8449 -1.2433 -1.6069
21628SOL     OW65461   5.721   7.969   1.016 -0.5030  0.0114 -0.1530
21628SOL    HW165462   5.718   8.061   0.989 -1.1701  0.4506  1.2925
21628SOL    HW265463   5.653   7.926   0.963 -0.6840  0.5077 -0.3264
21629SOL     OW65464   1.628   9.780   9.172  0.2861  0.4777 -0.6740
21629SOL    HW165465   1.601   9.750   9.259 -0.5580  2.1097 -0.3230
21629SOL    HW265466   1.627   9.701   9.117  0.8161 -0.5771  0.7710
21630SOL     OW65467   0.739   3.170   4.673 -0.1997  0.1145  0.3379
21630SOL    HW165468   0.806   3.137   4.734 -0.0308  2.1489  1.3549
21630SOL    HW265469   0.689   3.233   4.725 -1.7339  0.0107 -0.9418
21631SOL     OW65470   9.329   4.912   9.566  0.2982 -0.0165 -0.2984
21631SOL    HW165471   9.423   4.925   9.574 -0.0938  2.9656  0.6949
21631SOL    HW265472   9.303   4.967   9.492 -0.6969 -0.6704 -0.4606
21632SOL     OW65473   6.645   7.353   0.520  0.0416 -0.4591  0.1840
21632SOL    HW165474   6.554   7.359   0.489 -0.0251 -0.1796  0.4250
21632SOL    HW265475   6.696   7.392   0.449  0.0223 -1.0727 -0.1691
21633SOL     OW65476   0.569   9.242   5.942 -0.3586 -0.0447 -0.3304
21633SOL    HW165477   0.655   9.237   5.984  0.3627 -0.6472 -1.7936
21633SOL    HW265478   0.543   9.334   5.951  1.9673  0.9702 -2.6310
21634SOL     OW65479   0.087   1.409   9.271  0.0906 -0.1049 -0.5512
21634SOL    HW165480   0.118   1.500   9.269 -0.6524  0.1728 -0.0249
21634SOL    HW265481   0.161   1.360   9.308  1.0854  0.0187 -2.2852
21635SOL     OW65482   6.312   7.637   6.403 -0.2571 -0.2248 -0.1158
21635SOL    HW165483   6.285   7.680   6.322 -0.0725 -1.0700 -0.6365
21635SOL    HW265484   6.231   7.600   6.438 -0.0639 -1.3933 -0.8546
21636SOL     OW65485   3.958   2.411   0.689  0.3773  0.5311  0.2530
21636SOL    HW165486   4.022   2.341   0.702  1.4923  1.2957 -0.8705
21636SOL    HW265487   3.958   2.459   0.772  2.2657  1.2809 -0.1340
21637SOL     OW65488   6.823   6.229   8.726  0.3073  0.1620 -0.2184
21637SOL    HW165489   6.737   6.260   8.699  0.2196 -0.7805 -1.0977
21637SOL    HW265490   6.884   6.290   8.685  0.1387 -0.7523 -1.9172
21638SOL     OW65491   9.782   6.374   1.084 -0.4816  0.2564  0.1713
21638SOL    HW165492   9.766   6.332   1.000 -1.0146  1.7108 -0.4895
21638SOL    HW265493   9.832   6.453   1.062 -1.2831  1.0547  1.1271
21639SOL     OW65494   8.693   7.697   5.186 -0.1561  0.2216  0.2243
21639SOL    HW165495   8.607   7.701   5.228 -0.7967 -0.6853 -0.9767
21639SOL    HW265496   8.719   7.605   5.191  0.1611  0.2587 -0.5561
21640SOL     OW65497   3.020   2.326   0.772  0.7251 -0.3312  0.0120
21640SOL    HW165498   3.083   2.354   0.839 -0.3173 -0.7201  1.1822
21640SOL    HW265499   3.075   2.298   0.698  1.8799  2.4367 -0.3314
21641SOL     OW65500   4.666   2.826   9.486  0.3366  0.6859  0.4697
21641SOL    HW165501   4.580   2.856   9.516  0.3865  0.7557  0.5439
21641SOL    HW265502   4.723   2.838   9.562  0.2256 -0.1514  0.7049
21642SOL     OW65503   9.105   3.357   0.202 -0.9745  0.1238 -0.1489
21642SOL    HW165504   9.171   3.370   0.271  0.3137  0.0144 -1.3220
21642SOL    HW265505   9.023   3.388   0.241 -0.9355 -2.7080  2.5502
21643SOL     OW65506   1.147   9.190   8.533  0.2577 -0.0695  0.1315
21643SOL    HW165507   1.069   9.171   8.482  1.5576 -1.2547 -1.5244
21643SOL    HW265508   1.191   9.105   8.541  2.6305  0.9577 -1.1797
21644SOL     OW65509   6.555   2.688   4.457  0.1962  0.5018  0.5749
21644SOL    HW165510   6.537   2.613   4.514 -0.2428 -1.1566 -1.6238
21644SOL    HW265511   6.530   2.659   4.370  0.6409  3.0118 -0.4817
21645SOL     OW65512   8.514   8.475   3.106  0.0904  0.4251  0.1310
21645SOL    HW165513   8.571   8.530   3.159 -0.4396  0.9489  0.1735
21645SOL    HW265514   8.491   8.402   3.163  1.6768 -0.4547 -0.2842
21646SOL     OW65515   5.089   0.350   8.401 -0.7487 -0.0343 -0.2534
21646SOL    HW165516   5.119   0.378   8.315 -0.7250  1.3645  0.1873
21646SOL    HW265517   5.086   0.254   8.395 -0.3721  0.0140 -1.6703
21647SOL     OW65518   5.599   1.938   7.243 -0.4270  0.1034  0.1551
21647SOL    HW165519   5.652   2.009   7.277  2.0145 -2.1559  1.4303
21647SOL    HW265520   5.595   1.952   7.149 -0.2845  2.0404  0.4114
21648SOL     OW65521   6.245   8.626   2.513  0.2441 -0.1733 -0.2919
21648SOL    HW165522   6.219   8.621   2.606  0.9440 -0.7922 -0.1173
21648SOL    HW265523   6.179   8.575   2.467 -0.5154  0.7325 -0.2349
21649SOL     OW65524   4.150   9.245   7.550 -0.1340  0.2770 -0.3577
21649SOL    HW165525   4.172   9.173   7.491  0.9121  0.2895 -0.0101
21649SOL    HW265526   4.066   9.278   7.518 -1.6530 -2.3099  0.6115
21650SOL     OW65527   0.847   2.799   3.158  0.0728  0.0848  0.6082
21650SOL    HW165528   0.755   2.822   3.143  0.0308 -0.0656  0.6302
21650SOL    HW265529   0.892   2.883   3.168 -0.0556  0.1598  0.5572
21651SOL     OW65530   0.088   4.823   9.402  0.0352  0.4057  0.0062
21651SOL    HW165531   0.096   4.859   9.491  2.0055  1.2526 -0.4606
21651SOL    HW265532   0.171   4.845   9.360 -0.1351 -1.5654 -1.4938
21652SOL     OW65533   0.033   9.017   3.888  0.3140 -0.2499  0.3374
21652SOL    HW165534   0.089   9.095   3.880  0.1641 -0.3054 -1.5780
21652SOL    HW265535   0.092   8.944   3.870  0.2895 -0.5631  1.4315
21653SOL     OW65536   3.793   1.380   3.039  0.2326 -0.2590  0.4561
21653SOL    HW165537   3.726   1.397   3.106  0.2918  1.3182  0.1569
21653SOL    HW265538   3.744   1.348   2.964  0.1156 -1.5914  1.0702
21654SOL     OW65539   6.658   0.407   1.554 -0.2992  0.6963 -0.1232
21654SOL    HW165540   6.584   0.364   1.513 -0.3339  0.5782  0.0617
21654SOL    HW265541   6.634   0.500   1.555  0.2404  0.8674 -1.4936
21655SOL     OW65542   4.503   3.535   0.143  0.1516  0.1177 -0.1369
21655SOL    HW165543   4.507   3.517   0.237 -1.6243  1.4172  0.2483
21655SOL    HW265544   4.547   3.461   0.102 -0.2017 -1.1506  1.6673
21656SOL     OW65545   3.013   9.511   9.950 -0.9727 -0.2090 -0.4747
21656SOL    HW165546   2.942   9.454   9.921  1.2091 -3.2750 -0.3472
21656SOL    HW265547   3.048   9.548   9.869 -0.5810 -1.4903 -0.9178
21657SOL     OW65548   2.720   0.955   4.516  0.5154 -0.4305 -0.6564
21657SOL    HW165549   2.723   1.002   4.433 -0.3860  2.1098  0.6291
21657SOL    HW265550   2.665   0.878   4.499  1.8727 -0.9958 -2.7967
21658SOL     OW65551   1.024   1.014   1.165  0.3286  0.4081 -0.0281
21658SOL    HW165552   0.960   0.997   1.096  0.9329 -0.3684 -0.4186
21658SOL    HW265553   1.003   0.951   1.233  0.1924  0.6775  0.1791
21659SOL     OW65554   6.005   8.098   7.158 -0.1795 -0.0247  0.1451
21659SOL    HW165555   6.013   8.165   7.091 -1.4656  0.0470  0.0450
21659SOL    HW265556   5.993   8.016   7.110 -2.9048  0.2463  0.2139
21660SOL     OW65557   8.271   6.849   4.165 -0.5056 -0.1419 -0.0291
21660SOL    HW165558   8.347   6.884   4.210 -0.4622 -0.8295  0.4386
21660SOL    HW265559   8.292   6.859   4.072  0.4037 -0.8481  0.0891
21661SOL     OW65560   5.176   3.081   2.784  0.2279  0.1555  0.1534
21661SOL    HW165561   5.134   3.151   2.734 -2.7671 -3.1521 -2.4539
21661SOL    HW265562   5.118   3.067   2.859  1.0798  0.6593  0.9365
21662SOL     OW65563   2.087   8.753   3.185 -0.1527  0.6717 -0.4505
21662SOL    HW165564   1.997   8.751   3.218 -0.2488 -0.8304 -0.7381
21662SOL    HW265565   2.113   8.661   3.179  0.8822  1.0095 -1.7984
21663SOL     OW65566   3.473   8.650   2.634 -0.2716  0.2851 -0.3648
21663SOL    HW165567   3.467   8.718   2.567 -0.7446 -0.0972 -0.7139
21663SOL    HW265568   3.386   8.609   2.636 -0.1410  0.0148  0.1893
21664SOL     OW65569   9.564   8.479   7.826  0.1982 -0.1540 -0.1146
21664SOL    HW165570   9.549   8.388   7.803  0.5054 -0.4707  0.8843
21664SOL    HW265571   9.542   8.484   7.919  1.5399  0.4523  0.1967
21665SOL     OW65572   0.559   9.695   0.019  0.4609 -0.1327 -0.3205
21665SOL    HW165573   0.590   9.611  -0.014 -0.7269 -0.3977 -0.8117
21665SOL    HW265574   0.532   9.676   0.109  1.1662 -0.0255 -0.0784
21666SOL     OW65575   1.871   9.274   9.441 -0.4518 -0.1810  0.5366
21666SOL    HW165576   1.913   9.207   9.495 -1.2771 -0.6875  0.5697
21666SOL    HW265577   1.808   9.225   9.388 -0.3239  0.4391 -0.1892
21667SOL     OW65578   7.373   0.680   8.310  0.3708  0.0438 -0.7458
21667SOL    HW165579   7.370   0.593   8.349 -0.4600  0.0009 -0.8868
21667SOL    HW265580   7.330   0.670   8.225 -1.1213  0.8879 -0.1315
21668SOL     OW65581   1.589   4.133   0.852 -0.0741  0.2889  0.2744
21668SOL    HW165582   1.622   4.197   0.916 -1.5252  1.4375 -0.0784
21668SOL    HW265583   1.590   4.180   0.769  0.2475 -0.6633 -0.2812
21669SOL     OW65584   3.097   9.731   3.038  0.4041  0.0121  0.8408
21669SOL    HW165585   3.092   9.774   3.123 -1.9787  1.8632 -0.1198
21669SOL    HW265586   3.042   9.653   3.047 -1.5388  1.2863  0.4938
21670SOL     OW65587   7.578   0.208   8.308  0.4369  0.2322  0.1432
21670SOL    HW165588   7.520   0.135   8.333 -0.6996  1.4364  1.2177
21670SOL    HW265589   7.551   0.279   8.366  0.8458  1.8055 -1.5354
21671SOL     OW65590   0.745   3.965   1.894  0.0818 -0.1996 -0.2164
21671SOL    HW165591   0.771   3.899   1.958  2.3187  0.4124 -0.4187
21671SOL    HW265592   0.824   4.017   1.879 -0.3462 -0.2148 -3.3621
21672SOL     OW65593   9.724   7.514   2.850  0.2456  0.4832 -0.1330
21672SOL    HW165594   9.670   7.514   2.771  0.3862  1.8680 -0.2450
21672SOL    HW265595   9.662   7.501   2.922  0.0434 -0.1415 -0.4122
21673SOL     OW65596   8.739   6.908   7.209  0.4439  0.3403  0.2898
21673SOL    HW165597   8.808   6.849   7.176  1.7972  1.0854  1.6606
21673SOL    HW265598   8.659   6.874   7.169  1.6857  0.0180 -2.1861
21674SOL     OW65599   2.188   3.847   9.699  0.0717  0.4255 -0.4472
21674SOL    HW165600   2.208   3.823   9.790  0.4722 -0.8450 -0.8402
21674SOL    HW265601   2.117   3.787   9.674  0.0028  0.7311 -0.9969
21675SOL     OW65602   1.312   6.609   3.366  0.0578 -0.2222 -0.0308
21675SOL    HW165603   1.403   6.590   3.342 -0.0244 -0.3674 -0.2265
21675SOL    HW265604   1.310   6.703   3.381  0.4894 -0.3670  1.0306
21676SOL     OW65605   9.307   3.059   8.654 -0.7083  0.1205 -0.2833
21676SOL    HW165606   9.235   3.038   8.595 -0.4833  1.3007 -1.0050
21676SOL    HW265607   9.299   3.153   8.670 -0.4231 -0.0757  1.1290
21677SOL     OW65608   1.728   9.680   0.267  0.3269  0.4020  0.2322
21677SOL    HW165609   1.667   9.621   0.312  0.3320  0.3458  0.1657
21677SOL    HW265610   1.676   9.758   0.248 -0.2150 -0.2942 -1.3193
21678SOL     OW65611   1.300   5.600   9.777  0.5141 -0.3455 -0.8071
21678SOL    HW165612   1.368   5.641   9.723 -0.0105  1.4840 -0.1709
21678SOL    HW265613   1.335   5.514   9.799  3.3669  1.0824  0.8155
21679SOL     OW65614   8.300   1.740   4.937 -0.4286 -0.0336 -0.5871
21679SOL    HW165615   8.329   1.809   4.877 -2.2577  1.4428  0.1208
21679SOL    HW265616   8.284   1.664   4.880 -0.9926  0.9636 -1.8227
21680SOL     OW65617   8.512   3.273   3.686 -0.8518  0.0530 -0.4791
21680SOL    HW165618   8.525   3.367   3.680  0.4060 -0.1087 -0.4170
21680SOL    HW265619   8.426   3.263   3.728 -0.4348  1.1716  0.6874
21681SOL     OW65620   9.447   7.063   8.766 -0.2063 -0.4771 -0.3586
21681SOL    HW165621   9.452   7.158   8.780 -1.6270 -0.3307 -0.7515
21681SOL    HW265622   9.408   7.029   8.846  0.1671 -0.7290 -0.2789
21682SOL     OW65623   5.668   4.446   4.308  0.3972  0.4119  0.3973
21682SOL    HW165624   5.637   4.504   4.378  0.6324  1.6783 -0.5200
21682SOL    HW265625   5.601   4.452   4.240  1.2034  0.8985 -0.3843
21683SOL     OW65626   3.756   3.724   9.869 -0.1608 -0.2829  0.6245
21683SOL    HW165627   3.769   3.818   9.859  0.3943 -0.5745 -1.9844
21683SOL    HW265628   3.668   3.707   9.837 -0.0117 -0.7432  0.4448
21684SOL     OW65629   1.067   0.193   6.676 -0.1197 -0.0862  0.0785
21684SOL    HW165630   0.983   0.237   6.685 -0.2199 -0.2393 -0.0978
21684SOL    HW265631   1.049   0.118   6.619  0.3119  0.3552 -0.6588
21685SOL     OW65632   7.606   1.059   6.086  0.0696  0.2966 -0.3484
21685SOL    HW165633   7.677   0.995   6.077 -1.6516 -1.6271 -1.3205
21685SOL    HW265634   7.647   1.143   6.069  2.3319 -0.5832  0.3048
21686SOL     OW65635   7.998   5.268   2.504 -0.6421  0.0883  0.1600
21686SOL    HW165636   7.931   5.280   2.571 -1.5218  2.1835 -1.0140
21686SOL    HW265637   8.080   5.260   2.553 -1.4246  0.0848  1.5171
21687SOL     OW65638   5.782   1.723   4.513  0.0235 -0.0965 -0.4966
21687SOL    HW165639   5.693   1.737   4.480  0.7605  2.1781 -1.7381
21687SOL    HW265640   5.814   1.647   4.464 -0.4383  0.5404 -1.8349
21688SOL     OW65641   8.383   3.450   7.095 -0.3557 -0.2080  0.6666
21688SOL    HW165642   8.330   3.483   7.168 -1.4808 -4.0588  1.7856
21688SOL    HW265643   8.320   3.411   7.034  0.8478 -0.1435 -0.6895
21689SOL     OW65644   1.226   4.926   6.132 -0.0997 -0.4088 -0.3779
21689SOL    HW165645   1.133   4.920   6.108 -0.4410 -0.0313  0.7823
21689SOL    HW265646   1.264   4.984   6.067 -1.3310  1.8878  0.8090
21690SOL     OW65647   8.066   8.787   6.772 -0.0538  0.0092  0.2487
21690SOL    HW165648   8.083   8.854   6.706 -1.1541  0.2588  0.1938
21690SOL    HW265649   8.024   8.715   6.724 -3.7782  1.4260  1.0399
21691SOL     OW65650   1.827   3.663   0.137  0.1678 -0.2323 -0.5784
21691SOL    HW165651   1.910   3.683   0.181 -0.1963 -0.5042  0.2457
21691SOL    HW265652   1.772   3.625   0.205 -0.5113 -0.4009 -1.2079
21692SOL     OW65653   5.341   0.928   1.601  0.9316 -0.0198 -0.1755
21692SOL    HW165654   5.280   0.857   1.623  0.9989  0.2023  0.7491
21692SOL    HW265655   5.332   0.991   1.672  0.2352  1.3351 -1.4160
21693SOL     OW65656   1.238   3.319   8.803 -0.2711  0.1556 -0.1534
21693SOL    HW165657   1.151   3.289   8.829 -0.3319 -0.1648 -0.7040
21693SOL    HW265658   1.221   3.387   8.737 -0.1139 -0.9880 -1.4345
21694SOL     OW65659   2.523   3.612   4.886  0.6270  0.2739  0.2137
21694SOL    HW165660   2.583   3.633   4.814  2.0335  0.0552  1.2914
21694SOL    HW265661   2.462   3.685   4.888 -1.2334 -0.9530 -2.9497
21695SOL     OW65662   9.571   4.699   2.532 -0.0158  0.3186  0.0390
21695SOL    HW165663   9.536   4.717   2.619  0.4999 -2.3471  0.8850
21695SOL    HW265664   9.617   4.616   2.541 -0.8059 -0.6048 -2.9971
21696SOL     OW65665   1.702   2.088   2.388  0.7781  0.1731 -0.7930
21696SOL    HW165666   1.757   2.141   2.331  1.0357  1.9359  0.9932
21696SOL    HW265667   1.754   2.076   2.467 -0.2631 -0.6972 -0.2087
21697SOL     OW65668   9.205   0.448   0.447 -0.4387 -0.1360  0.4110
21697SOL    HW165669   9.286   0.397   0.451 -0.5980 -0.3745  0.6292
21697SOL    HW265670   9.216   0.515   0.516 -1.3358 -1.5269  1.9786
21698SOL     OW65671   0.707   5.164   3.582 -0.0874 -0.1918 -0.1363
21698SOL    HW165672   0.658   5.144   3.503  2.0587 -1.3736 -1.2602
21698SOL    HW265673   0.691   5.257   3.597  0.7125  0.4992 -2.9440
21699SOL     OW65674   8.797   0.608   5.707 -0.3351  0.6928  0.0634
21699SOL    HW165675   8.757   0.671   5.766  1.5885 -1.0511  3.5692
21699SOL    HW265676   8.859   0.660   5.655  1.7560  1.7826  3.3480
21700SOL     OW65677   5.528   1.981   0.895  0.3628 -0.1520  0.7744
21700SOL    HW165678   5.515   1.938   0.810  0.5804 -0.4466  0.8888
21700SOL    HW265679   5.439   1.999   0.926  0.2943  0.6247  0.1522
21701SOL     OW65680   3.977   9.903   7.583 -0.7715  0.1900 -0.0110
21701SOL    HW165681   3.981   9.846   7.660  0.3829  0.4098  0.1165
21701SOL    HW265682   3.907   9.966   7.604 -3.6137 -2.3903 -1.0812
21702SOL     OW65683   4.482   9.519   7.820 -0.9862 -0.0436 -0.3557
21702SOL    HW165684   4.479   9.453   7.889 -1.8973  0.7303  0.3782
21702SOL    HW265685   4.431   9.483   7.748 -2.0409  0.1222  0.2946
21703SOL     OW65686   0.622   9.370   4.449 -0.2646 -0.1150 -0.1568
21703SOL    HW165687   0.545   9.366   4.505 -1.1219  2.0620 -1.0446
21703SOL    HW265688   0.654   9.460   4.458  2.0599 -0.8857  0.0006
21704SOL     OW65689   0.389   7.368   3.385 -0.0339 -0.2138 -0.8975
21704SOL    HW165690   0.478   7.334   3.392  0.2281  0.4562 -0.8229
21704SOL    HW265691   0.385   7.405   3.296  0.0686  0.5710 -0.5832
21705SOL     OW65692   6.179   7.345   3.963  0.2291  0.0681  0.4998
21705SOL    HW165693   6.247   7.282   3.940 -0.4708 -0.3713 -0.4534
21705SOL    HW265694   6.105   7.291   3.990  0.0859  0.5305  1.0430
21706SOL     OW65695   4.721   5.552   6.528 -0.0544 -0.2141  0.2908
21706SOL    HW165696   4.748   5.619   6.591  1.8745 -0.4758 -0.2067
21706SOL    HW265697   4.736   5.469   6.574 -0.9903 -0.3729  0.3454
21707SOL     OW65698   7.304   0.992   1.583  0.3946 -0.3538  0.3820
21707SOL    HW165699   7.275   1.029   1.500  0.4458  0.2765  0.6381
21707SOL    HW265700   7.223   0.975   1.631  0.3905  0.0589  0.5270
21708SOL     OW65701   4.486   3.426   0.438 -0.6553 -0.0543  0.3802
21708SOL    HW165702   4.423   3.493   0.465 -1.3569 -0.9761  1.0941
21708SOL    HW265703   4.543   3.415   0.514 -0.0633  0.2545 -0.0074
21709SOL     OW65704   7.186   7.663   9.865  0.0133 -0.3593  0.1477
21709SOL    HW165705   7.109   7.656   9.809  0.3749  1.4702 -0.6528
21709SOL    HW265706   7.206   7.573   9.891 -1.3439 -1.0357 -1.0523
21710SOL     OW65707   7.855   6.104   9.336  0.6747  0.1178  0.3431
21710SOL    HW165708   7.851   6.053   9.255 -1.9803 -0.5377  0.7768
21710SOL    HW265709   7.946   6.099   9.364  1.3754 -0.7283 -1.9168
21711SOL     OW65710   5.940   7.358   4.363  0.3371 -0.3147  0.2989
21711SOL    HW165711   5.941   7.439   4.312  0.0150 -0.1533  0.5422
21711SOL    HW265712   5.849   7.330   4.363  0.5835 -1.1894 -0.5688
21712SOL     OW65713   7.890   9.409   7.269  0.1243 -0.2268  0.4542
21712SOL    HW165714   7.961   9.345   7.279  1.0999  0.6416 -0.5388
21712SOL    HW265715   7.911   9.454   7.187 -0.4708  1.4189  1.1599
21713SOL     OW65716   8.979   0.885   6.993  0.0133  0.4398 -0.0849
21713SOL    HW165717   9.047   0.819   6.976  1.8471  1.9797  0.8261
21713SOL    HW265718   8.978   0.939   6.915  0.9360  1.2912  0.4696
21714SOL     OW65719   7.181   5.834   7.726 -0.1119 -1.0853  0.1903
21714SOL    HW165720   7.088   5.857   7.725  0.0162 -0.5606 -0.4312
21714SOL    HW265721   7.193   5.780   7.648  0.4402  0.2755 -0.7026
21715SOL     OW65722   9.769   3.059   3.420 -0.3947 -0.1782 -0.2450
21715SOL    HW165723   9.694   3.115   3.399 -1.4221 -0.8094  1.5378
21715SOL    HW265724   9.757   2.981   3.366 -1.0506 -0.2983  0.0749
21716SOL     OW65725   3.614   4.490   9.896 -0.5012  0.1550  0.0858
21716SOL    HW165726   3.660   4.425   9.948 -1.4758 -1.4548 -0.9919
21716SOL    HW265727   3.600   4.563   9.956  0.2269 -0.8017  1.4642
21717SOL     OW65728   1.640   6.338   7.263  0.0390  0.5132 -0.3148
21717SOL    HW165729   1.713   6.395   7.240 -0.0555  0.4468 -0.7919
21717SOL    HW265730   1.585   6.338   7.185  0.3078 -0.6681 -0.5163
21718SOL     OW65731   1.738   7.110   1.767  0.4316  0.1349 -0.1728
21718SOL    HW165732   1.755   7.204   1.761 -0.1764  0.2235 -0.5999
21718SOL    HW265733   1.652   7.099   1.727 -0.2975 -0.3640  1.4452
21719SOL     OW65734   2.904   2.913   3.884 -0.1130 -0.1660  0.2816
21719SOL    HW165735   2.997   2.915   3.907 -0.3181  1.0909  1.0971
21719SOL    HW265736   2.860   2.947   3.962 -1.1051  0.9759 -0.7327
21720SOL     OW65737   9.331   5.068   7.881 -0.2146  0.2162  0.4593
21720SOL    HW165738   9.269   5.103   7.817  0.1151  0.9114  0.5100
21720SOL    HW265739   9.290   4.987   7.912 -1.1495  0.7121  0.5613
21721SOL     OW65740   2.561   2.937   0.708 -0.5343  0.1050  0.1401
21721SOL    HW165741   2.524   2.870   0.767  0.7747 -0.7530  0.0184
21721SOL    HW265742   2.620   2.889   0.651 -0.5090  1.1974 -0.7924
21722SOL     OW65743   3.230   9.236   2.949 -0.0497  0.4098 -0.7424
21722SOL    HW165744   3.314   9.190   2.940 -0.0425  0.3351 -0.2999
21722SOL    HW265745   3.168   9.167   2.973  0.2588  0.8421  1.5126
21723SOL     OW65746   8.217   3.766   5.997  0.4984  0.0801  0.6386
21723SOL    HW165747   8.207   3.684   5.948  0.0253 -0.4350  1.5656
21723SOL    HW265748   8.230   3.738   6.087 -0.8518  1.0375  1.1687
21724SOL     OW65749   8.142   7.656   5.289 -0.1311  0.0795 -0.4161
21724SOL    HW165750   8.156   7.722   5.221  1.0390  0.6637  0.3638
21724SOL    HW265751   8.224   7.654   5.339 -1.6456  1.2883  2.3620
21725SOL     OW65752   5.342   7.747   4.410 -0.0608 -0.6827  0.3730
21725SOL    HW165753   5.348   7.743   4.315 -2.2206 -3.6032  0.2337
21725SOL    HW265754   5.300   7.832   4.427  2.8102  1.1692 -0.9478
21726SOL     OW65755   2.200   7.764   1.866 -0.0594 -0.5635  0.0534
21726SOL    HW165756   2.120   7.728   1.906  0.2912 -1.5934 -0.1371
21726SOL    HW265757   2.248   7.687   1.836  0.0909  0.1310 -1.6125
21727SOL     OW65758   8.843   4.891   8.979 -0.0147 -0.2492 -0.6856
21727SOL    HW165759   8.929   4.853   8.996 -0.2626  0.0588  1.5592
21727SOL    HW265760   8.820   4.935   9.061 -2.0996  0.0960 -1.4063
21728SOL     OW65761   7.122   6.621   0.412  0.5470  0.1279  0.3105
21728SOL    HW165762   7.071   6.547   0.381 -0.2646  1.3228 -1.3451
21728SOL    HW265763   7.212   6.600   0.387  0.2124  0.0425 -0.8898
21729SOL     OW65764   1.722   8.429   7.428  0.1597 -0.6719 -0.3535
21729SOL    HW165765   1.796   8.373   7.450  0.6907  0.2054  0.1375
21729SOL    HW265766   1.691   8.461   7.513  1.3665  1.6771 -0.7276
21730SOL     OW65767   4.759   5.545   6.980  0.0202  0.4765  0.4702
21730SOL    HW165768   4.747   5.467   7.034 -0.6707 -0.8091 -1.4049
21730SOL    HW265769   4.678   5.594   6.991  0.6647  1.2386  2.0613
21731SOL     OW65770   5.938   5.556   1.534  0.2828 -0.5277  0.0685
21731SOL    HW165771   5.919   5.505   1.612 -0.5014 -1.1113 -0.4899
21731SOL    HW265772   5.852   5.577   1.497  0.5080  2.0892  0.8070
21732SOL     OW65773   4.485   4.967   5.058 -0.0488  0.0671 -0.3426
21732SOL    HW165774   4.512   4.960   5.150 -0.1879  0.3196 -0.2834
21732SOL    HW265775   4.536   4.899   5.013  0.5628  0.4270 -0.1995
21733SOL     OW65776   8.599   5.939   4.862  0.3401  0.2127 -0.0778
21733SOL    HW165777   8.639   5.983   4.938  2.4050 -0.8208 -0.4761
21733SOL    HW265778   8.657   5.961   4.789 -1.1844  0.5496 -1.2333
21734SOL     OW65779   7.379   9.670   9.244  0.3201 -0.0653  0.8753
21734SOL    HW165780   7.411   9.745   9.295 -0.7525  1.2567 -0.2961
21734SOL    HW265781   7.443   9.661   9.173 -1.6690  2.6146 -1.4994
21735SOL     OW65782   1.712   8.237   8.690 -0.1528 -0.2597 -0.0245
21735SOL    HW165783   1.690   8.318   8.644  2.4751 -0.1773 -1.3265
21735SOL    HW265784   1.656   8.171   8.650 -0.8884  0.5553 -0.3663
21736SOL     OW65785   8.327   4.812   9.101 -0.3877 -0.0457 -0.5209
21736SOL    HW165786   8.416   4.797   9.131 -0.4770 -0.0523 -0.2630
21736SOL    HW265787   8.300   4.894   9.143 -1.1517 -0.9713  0.8536
21737SOL     OW65788   7.642   2.512   8.072 -0.3256  0.0194  0.3764
21737SOL    HW165789   7.735   2.498   8.058 -0.5956 -0.1440 -1.3684
21737SOL    HW265790   7.599   2.435   8.035 -1.1753  0.1947  0.9619
21738SOL     OW65791   8.168   1.159   8.994 -0.0688  0.2647  0.4702
21738SOL    HW165792   8.212   1.097   8.936  0.5499  1.0589  0.0557
21738SOL    HW265793   8.176   1.122   9.081 -0.4567 -0.6440  0.1275
21739SOL     OW65794   5.060   9.433   5.512 -0.0585  0.3014 -0.0221
21739SOL    HW165795   5.107   9.508   5.475 -0.7552  0.3059 -0.9235
21739SOL    HW265796   5.003   9.472   5.579  1.3195  0.2742  1.2318
21740SOL     OW65797   2.198   3.707   7.956  0.0617  0.3106 -0.1061
21740SOL    HW165798   2.158   3.630   7.918 -2.1552  0.0118  2.5683
21740SOL    HW265799   2.156   3.781   7.911  1.2067  0.0612 -1.6999
21741SOL     OW65800   3.485   1.261   3.527 -0.3135  0.1553  0.0519
21741SOL    HW165801   3.458   1.320   3.597 -2.8526  0.9290 -1.4526
21741SOL    HW265802   3.546   1.312   3.474 -1.2521  0.8889 -0.3424
21742SOL     OW65803   9.827   6.559   9.796 -0.3528 -0.1734  0.5971
21742SOL    HW165804   9.795   6.632   9.742 -0.8512 -0.9545 -0.1957
21742SOL    HW265805   9.847   6.598   9.881 -0.5563  0.8927  0.1649
21743SOL     OW65806   8.829   2.228   5.645 -0.8283  0.2430 -0.0402
21743SOL    HW165807   8.788   2.166   5.705  1.2963 -0.0546  1.1833
21743SOL    HW265808   8.895   2.176   5.599  0.6946  1.4541  0.7060
21744SOL     OW65809   2.417   8.360   5.892 -0.2926 -0.4602 -0.0726
21744SOL    HW165810   2.381   8.326   5.975  1.0159 -0.5463  0.4844
21744SOL    HW265811   2.512   8.355   5.904 -0.0894  0.2190 -1.3112
21745SOL     OW65812   5.473   8.837   7.743  0.5508  0.0511 -0.4377
21745SOL    HW165813   5.546   8.843   7.682 -0.3185  0.4653 -1.4720
21745SOL    HW265814   5.425   8.759   7.716  0.3168  0.0650 -0.0810
21746SOL     OW65815   5.009   4.841   0.839  0.1811 -0.2001  0.1337
21746SOL    HW165816   5.071   4.776   0.808  2.5383  0.9065  2.1906
21746SOL    HW265817   4.955   4.794   0.903 -1.3438 -1.2168 -1.8057
21747SOL     OW65818   4.650   8.154   1.053 -0.2601 -0.2821 -0.2203
21747SOL    HW165819   4.653   8.109   1.138  0.4090 -0.4222 -0.3179
21747SOL    HW265820   4.669   8.246   1.074 -0.0124 -0.3314 -0.2290
21748SOL     OW65821   1.237   9.345   0.342  0.0069  0.0302  0.1995
21748SOL    HW165822   1.276   9.350   0.255 -0.8200  0.0217 -0.1895
21748SOL    HW265823   1.173   9.417   0.343  0.0916  0.0992  0.8422
21749SOL     OW65824   2.985   4.899   6.302  0.1420 -0.2946 -0.2419
21749SOL    HW165825   3.057   4.907   6.240 -0.0085  0.8005 -0.2914
21749SOL    HW265826   2.921   4.842   6.258 -0.0255  0.5826 -1.1666
21750SOL     OW65827   9.602   3.026   1.064 -0.0173 -0.0406  0.4603
21750SOL    HW165828   9.576   3.039   1.155  0.2035  1.0352  0.3905
21750SOL    HW265829   9.523   2.995   1.020 -0.2495 -0.1155  0.9287
21751SOL     OW65830   7.920   7.909   0.259  0.9580  0.6785  0.7479
21751SOL    HW165831   7.875   7.933   0.178 -1.8988  0.7126  2.2257
21751SOL    HW265832   7.949   7.993   0.297  2.8233  0.6239 -0.4272
21752SOL     OW65833   1.455   8.218   2.380 -0.1134  0.1232 -0.0260
21752SOL    HW165834   1.489   8.188   2.295 -0.5155  0.0283 -0.1524
21752SOL    HW265835   1.441   8.139   2.430  0.4166  0.1958  0.2457
21753SOL     OW65836   9.160   6.320   2.920 -0.5572 -0.5970  0.2319
21753SOL    HW165837   9.080   6.320   2.867 -0.7824  0.0149  0.5651
21753SOL    HW265838   9.206   6.241   2.892 -1.3215 -1.0161  0.1020
21754SOL     OW65839   1.566   4.594   0.290 -0.3837  0.0516 -0.1984
21754SOL    HW165840   1.637   4.582   0.353 -0.8917  1.9582  0.8212
21754SOL    HW265841   1.601   4.558   0.208  0.8693 -1.1160  0.7924
21755SOL     OW65842   2.280   4.398   4.187 -0.5641  0.0992  0.0923
21755SOL    HW165843   2.297   4.311   4.223 -0.8258 -0.4437 -1.0541
21755SOL    HW265844   2.347   4.410   4.120  0.0731  1.1989  0.8834
21756SOL     OW65845   8.031   1.893   1.759 -0.0683  0.0014  0.2437
21756SOL    HW165846   8.006   1.968   1.813  0.3290  0.8191 -0.6860
21756SOL    HW265847   8.023   1.924   1.669 -0.6468 -1.3158 -0.1856
21757SOL     OW65848   6.613   0.949   9.589  0.6070  0.0692  0.6116
21757SOL    HW165849   6.566   0.985   9.515 -3.5369 -1.6313  2.1387
21757SOL    HW265850   6.633   1.025   9.644 -2.4281  0.8069  0.8713
21758SOL     OW65851   8.768   8.724   8.639 -0.1066 -0.3456  0.1569
21758SOL    HW165852   8.861   8.743   8.628 -0.3366  0.3214 -0.7277
21758SOL    HW265853   8.740   8.693   8.553 -0.7301 -0.4627  0.3981
21759SOL     OW65854   5.353   0.873   3.842  0.2977  0.1359  0.4998
21759SOL    HW165855   5.295   0.927   3.788  0.5349  0.3913  0.4965
21759SOL    HW265856   5.441   0.904   3.821  0.3036  2.7288  3.5754
21760SOL     OW65857   0.237   5.887   4.585 -0.4561  0.1619  0.9128
21760SOL    HW165858   0.330   5.887   4.607 -0.3995  0.6765  0.6868
21760SOL    HW265859   0.229   5.949   4.513 -1.1571  1.1079  1.7628
21761SOL     OW65860   9.803   2.304   0.929  0.1810 -0.3379 -0.6888
21761SOL    HW165861   9.877   2.359   0.902  0.6193  0.1776  1.3138
21761SOL    HW265862   9.822   2.283   1.021 -1.9895 -0.4829 -0.2120
21762SOL     OW65863   9.455   3.863   7.656  0.1379  0.2475 -0.3824
21762SOL    HW165864   9.503   3.840   7.735 -0.7196 -1.1613 -0.2328
21762SOL    HW265865   9.363   3.850   7.678 -0.0925 -0.7836 -1.7626
21763SOL     OW65866   2.028   4.546   7.813  0.0518  0.9988 -0.5162
21763SOL    HW165867   2.031   4.622   7.870  1.7971  2.3656 -2.2673
21763SOL    HW265868   1.938   4.514   7.819 -0.2806  2.1786  1.5275
21764SOL     OW65869   7.229   8.203   0.785 -0.2067  0.5778 -0.1977
21764SOL    HW165870   7.265   8.167   0.866 -1.5279  0.7161  0.4649
21764SOL    HW265871   7.139   8.225   0.806 -0.9290 -0.4222 -2.0331
21765SOL     OW65872   4.469   7.736   2.504 -0.3856 -0.2778 -0.7598
21765SOL    HW165873   4.432   7.806   2.557  1.9692  0.2875  0.2925
21765SOL    HW265874   4.424   7.657   2.534 -0.6148  0.3324  0.5995
21766SOL     OW65875   3.223   7.806   8.010  0.4435  0.2440  0.3515
21766SOL    HW165876   3.147   7.748   8.006  1.6471 -1.4801  0.8587
21766SOL    HW265877   3.298   7.746   8.002  1.7577  2.0299 -1.9115
21767SOL     OW65878   4.151   5.814   8.584  0.1205 -0.3373 -0.7287
21767SOL    HW165879   4.229   5.864   8.609 -0.5246  0.2582  0.1638
21767SOL    HW265880   4.099   5.874   8.531 -0.3257 -0.2847 -0.2437
21768SOL     OW65881   2.120   3.581   4.413 -0.4285  0.1016 -0.4334
21768SOL    HW165882   2.065   3.608   4.339 -0.8114  1.4525  0.2981
21768SOL    HW265883   2.197   3.637   4.407  0.1583 -0.7021 -0.5500
21769SOL     OW65884   7.509   9.055   9.423 -0.4469  0.7054  0.3289
21769SOL    HW165885   7.419   9.028   9.440 -0.0300 -1.6851 -0.8600
21769SOL    HW265886   7.507   9.089   9.333  0.0744 -0.8673 -0.3127
21770SOL     OW65887   7.367   2.931   0.528 -0.2315 -0.6562  1.3129
21770SOL    HW165888   7.404   2.965   0.446 -0.7428 -0.7283  1.0479
21770SOL    HW265889   7.290   2.881   0.500 -0.4366 -0.6421  1.8438
21771SOL     OW65890   7.731   8.094   3.196  0.3130 -0.0815 -0.8388
21771SOL    HW165891   7.821   8.105   3.166  0.1074  0.6780 -1.2079
21771SOL    HW265892   7.709   8.176   3.239 -0.6782  0.3202 -2.0409
21772SOL     OW65893   7.789   9.061   9.445 -0.2256 -0.3024  0.4424
21772SOL    HW165894   7.751   9.072   9.357 -1.3166 -1.2713  0.7593
21772SOL    HW265895   7.715   9.030   9.498  1.0831 -2.6420  1.0143
21773SOL     OW65896   9.210   8.591   2.878  0.0452  0.2583  0.1222
21773SOL    HW165897   9.214   8.642   2.959 -0.5365 -0.4271  0.5955
21773SOL    HW265898   9.159   8.514   2.901  1.9504 -1.1743 -0.2428
21774SOL     OW65899   5.084   4.823   1.424  0.1078 -0.0330  0.4683
21774SOL    HW165900   5.070   4.749   1.485  1.3929  0.3933  1.3174
21774SOL    HW265901   5.158   4.871   1.461  0.0852  0.9927 -0.7531
21775SOL     OW65902   4.912   7.457   5.544  0.1280  0.6490  0.8610
21775SOL    HW165903   4.853   7.439   5.618  1.3370 -0.3564  1.6122
21775SOL    HW265904   4.971   7.382   5.541 -1.1942 -0.4715 -2.5133
21776SOL     OW65905   7.316   0.600   5.510 -0.3319  0.8454 -0.0457
21776SOL    HW165906   7.268   0.659   5.452  0.0607  2.2110  0.9719
21776SOL    HW265907   7.326   0.649   5.591  1.4996  0.0240  0.2680
21777SOL     OW65908   6.107   9.464   9.063 -0.7298 -0.0058 -0.1020
21777SOL    HW165909   6.140   9.419   8.986 -0.4392 -0.5052  0.3063
21777SOL    HW265910   6.022   9.423   9.080 -0.5617 -0.2642  0.1419
21778SOL     OW65911   0.325   4.654   7.734 -0.2986 -0.2590 -0.3970
21778SOL    HW165912   0.310   4.744   7.704  0.8963 -0.6357 -2.3157
21778SOL    HW265913   0.303   4.600   7.657  1.7836 -1.3862 -0.2611
21779SOL     OW65914   2.828   6.610   0.056 -0.4264 -0.2799 -0.0956
21779SOL    HW165915   2.744   6.574   0.027 -0.3349 -0.4611 -0.1372
21779SOL    HW265916   2.805   6.691   0.101 -0.4055  1.3335 -2.7823
21780SOL     OW65917   1.180   2.550   9.778 -0.0059  0.1022  0.3041
21780SOL    HW165918   1.272   2.556   9.801  0.3601  2.2564 -1.4033
21780SOL    HW265919   1.144   2.636   9.798 -1.3840 -0.3470 -0.1008
21781SOL     OW65920   9.466   0.831   4.039 -0.7529 -0.0858 -0.6812
21781SOL    HW165921   9.545   0.885   4.044 -0.3559 -0.7736  1.4268
21781SOL    HW265922   9.480   0.774   3.963  1.7290 -1.5440  0.7373
21782SOL     OW65923   7.913   1.652   0.263  0.1202  0.1917 -0.4867
21782SOL    HW165924   7.874   1.736   0.238  0.0523  0.7199  1.2933
21782SOL    HW265925   7.841   1.589   0.255 -0.3067  0.6258 -0.1060
21783SOL     OW65926   7.364   9.092   3.324  0.1217 -0.7599  0.3038
21783SOL    HW165927   7.403   9.054   3.403  1.6114 -1.6788 -0.8119
21783SOL    HW265928   7.418   9.058   3.253  0.0056  1.5342 -0.9760
21784SOL     OW65929   3.047   3.040   3.043  0.1045 -0.1015 -0.0466
21784SOL    HW165930   3.085   3.029   3.130  0.6259  0.3424 -0.2077
21784SOL    HW265931   3.114   3.005   2.984 -0.4631 -0.8659 -0.2425
21785SOL     OW65932   0.061   4.194   9.317  0.2079  0.4367 -0.2070
21785SOL    HW165933  -0.023   4.209   9.273  0.5376  1.5040 -0.4938
21785SOL    HW265934   0.087   4.107   9.288 -0.0474  0.7304 -1.3699
21786SOL     OW65935   4.201   6.184   7.244 -0.0373 -0.3656  0.4615
21786SOL    HW165936   4.143   6.150   7.312  1.4644 -0.5952  1.6811
21786SOL    HW265937   4.157   6.161   7.162 -2.1732  0.4064  1.3089
21787SOL     OW65938   6.387   0.247   9.477 -0.0256  0.0723  0.1144
21787SOL    HW165939   6.342   0.311   9.533 -2.0447 -1.4696  0.3780
21787SOL    HW265940   6.317   0.205   9.428  1.2508 -1.7074 -0.2861
21788SOL     OW65941   7.421   2.350   2.678  0.1109  0.2479 -0.4660
21788SOL    HW165942   7.379   2.319   2.758 -0.6549 -0.9070 -1.2736
21788SOL    HW265943   7.424   2.445   2.687  1.5608  0.0532  1.6406
21789SOL     OW65944   6.662   8.728   4.711  0.2906 -0.1883  0.3594
21789SOL    HW165945   6.679   8.818   4.737  0.1798 -0.2219  0.5508
21789SOL    HW265946   6.568   8.717   4.723  0.4892 -0.7209  1.5840
21790SOL     OW65947   2.503   1.790   1.468 -0.4036 -0.4145  0.3425
21790SOL    HW165948   2.446   1.795   1.545 -0.9692 -3.0094  0.1672
21790SOL    HW265949   2.447   1.753   1.400  1.0943 -1.7635 -0.2156
21791SOL     OW65950   0.521   2.499   7.265  0.2576  0.0158 -0.5380
21791SOL    HW165951   0.427   2.514   7.278  0.5159  0.9997  0.2566
21791SOL    HW265952   0.545   2.556   7.192 -0.1172 -1.6367 -2.0275
21792SOL     OW65953   3.583   7.985   4.884 -0.5324  0.1013 -0.1824
21792SOL    HW165954   3.512   7.983   4.948 -0.2610  0.0964  0.1221
21792SOL    HW265955   3.549   8.037   4.811 -0.1906  1.7238  0.7600
21793SOL     OW65956   8.648   2.150   3.299  0.2111 -0.2938 -0.4205
21793SOL    HW165957   8.587   2.159   3.371 -0.3544 -0.6273 -0.8504
21793SOL    HW265958   8.624   2.220   3.238  1.3934  0.6950  0.1934
21794SOL     OW65959   8.336   0.512   1.162  0.5426  0.2302  0.0496
21794SOL    HW165960   8.248   0.474   1.171  1.2111 -1.3521  0.3660
21794SOL    HW265961   8.375   0.464   1.089  1.1482  0.9011 -0.0710
21795SOL     OW65962   1.020   1.007   0.464 -0.3052 -0.1780  0.2824
21795SOL    HW165963   1.012   1.068   0.391 -0.6376 -2.6723 -1.9166
21795SOL    HW265964   0.930   0.983   0.485 -0.1323 -1.2140 -0.0996
21796SOL     OW65965   6.926   2.236   5.871 -0.2631  0.1874 -0.2004
21796SOL    HW165966   7.015   2.205   5.887 -0.3784 -0.5160 -0.8303
21796SOL    HW265967   6.875   2.202   5.945  0.1496  1.3563  0.6341
21797SOL     OW65968   7.303   6.058   6.901 -0.1193  0.4086  1.1428
21797SOL    HW165969   7.339   6.143   6.877  0.7030  0.4405  2.3981
21797SOL    HW265970   7.368   5.995   6.869 -1.8203  0.0201 -1.9085
21798SOL     OW65971   1.843   6.267   1.427  0.2634  0.2511 -0.4440
21798SOL    HW165972   1.848   6.172   1.439  0.2525  0.3432  0.3231
21798SOL    HW265973   1.931   6.292   1.399 -0.0938 -0.1572 -2.0644
21799SOL     OW65974   8.229   7.721   4.012 -0.1051  0.4149 -0.0032
21799SOL    HW165975   8.167   7.662   4.056 -0.3228  0.0552 -0.7607
21799SOL    HW265976   8.287   7.752   4.081 -1.3870  1.0944  0.8035
21800SOL     OW65977   2.435   7.062   0.380 -0.2431  0.2167  0.5664
21800SOL    HW165978   2.427   7.022   0.467 -0.7279  0.1598  0.4977
21800SOL    HW265979   2.444   7.155   0.398  1.4120  0.0465  0.7497
21801SOL     OW65980   2.603   5.027   1.140 -0.4649  0.3532  0.0430
21801SOL    HW165981   2.546   4.997   1.069 -1.8767  1.1353  0.7834
21801SOL    HW265982   2.690   4.997   1.116 -0.8974  0.6128 -2.0148
21802SOL     OW65983   2.693   8.524   4.219 -0.4630 -0.3701  0.5032
21802SOL    HW165984   2.750   8.594   4.187  1.8471 -1.9044  1.0367
21802SOL    HW265985   2.604   8.556   4.202  0.5236  1.9747 -0.7032
21803SOL     OW65986   8.183   9.208   4.946  0.5082 -0.3236 -0.5547
21803SOL    HW165987   8.088   9.218   4.955  0.7164  0.0494  3.9890
21803SOL    HW265988   8.196   9.114   4.933 -0.4956 -0.4043 -1.0531
21804SOL     OW65989   0.850   8.993   5.486  0.5060  0.1670  0.3227
21804SOL    HW165990   0.854   9.060   5.554  0.5469 -0.4896  0.9826
21804SOL    HW265991   0.941   8.971   5.468  0.5866  1.5993 -1.2485
21805SOL     OW65992   8.243   6.500   6.476  0.0208 -0.1972 -0.2768
21805SOL    HW165993   8.256   6.552   6.555 -0.2291  0.2531 -0.5287
21805SOL    HW265994   8.206   6.561   6.412 -0.7654 -0.7995 -0.4170
21806SOL     OW65995   5.465   1.833   9.022  0.2835  0.8518  0.3466
21806SOL    HW165996   5.477   1.747   9.063 -0.4324 -0.6488 -2.3911
21806SOL    HW265997   5.550   1.853   8.984  0.0758  0.7172 -0.1852
21807SOL     OW65998   0.064   9.851   8.775 -0.0638  0.2757  0.2093
21807SOL    HW165999   0.128   9.780   8.785  0.0280  0.5503  1.7887
21807SOL    HW266000   0.096   9.902   8.700  0.8719 -0.3043  0.1957
21808SOL     OW66001   5.686   6.824   2.596 -0.0774  0.3284 -0.0125
21808SOL    HW166002   5.680   6.871   2.679  0.5633  0.9025 -0.2795
21808SOL    HW266003   5.622   6.867   2.540  0.4670  0.8656 -0.2382
21809SOL     OW66004   3.483   5.671   0.971 -0.6801  0.1095  0.0730
21809SOL    HW166005   3.392   5.673   0.999 -0.5750  3.6199  0.5674
21809SOL    HW266006   3.479   5.665   0.875 -1.4770  0.7415  0.0584
21810SOL     OW66007   7.974   5.822   3.615  0.1803  0.1843  0.0992
21810SOL    HW166008   7.884   5.851   3.600  0.5772  1.3408 -0.1735
21810SOL    HW266009   7.969   5.766   3.692 -0.5729  1.3677  0.9369
21811SOL     OW66010   7.074   5.776   2.585  0.1449 -0.2654 -0.0004
21811SOL    HW166011   7.061   5.771   2.491  1.5218 -2.3173 -0.1434
21811SOL    HW266012   6.994   5.815   2.619 -1.3292 -1.5511 -1.8129
21812SOL     OW66013   2.939   5.494   8.151  0.0548 -0.3284 -0.0745
21812SOL    HW166014   2.961   5.405   8.179 -0.0611 -0.0465  0.9881
21812SOL    HW266015   2.989   5.550   8.210  1.0693  0.3369 -1.5181
21813SOL     OW66016   2.111   5.754   7.827 -0.8055 -0.3199 -0.4340
21813SOL    HW166017   2.109   5.740   7.921  1.6731 -2.0797 -0.5557
21813SOL    HW266018   2.076   5.674   7.789  0.8958 -0.8279 -1.0077
21814SOL     OW66019   4.798   0.149   9.832  0.0938  0.0944  0.0324
21814SOL    HW166020   4.819   0.195   9.751 -1.1459  3.0957  1.2595
21814SOL    HW266021   4.883   0.141   9.877  0.5021  0.0543 -0.7173
21815SOL     OW66022   2.810   1.470   6.163  0.4875 -0.5323 -0.1010
21815SOL    HW166023   2.746   1.522   6.114 -0.2570  0.8539  2.2140
21815SOL    HW266024   2.894   1.507   6.139  0.1522  0.0310 -0.4348
21816SOL     OW66025   3.159   1.887   4.669 -0.3586 -0.4837  0.2152
21816SOL    HW166026   3.129   1.913   4.756  2.1150 -1.8371  1.6173
21816SOL    HW266027   3.237   1.940   4.654 -0.9384 -0.0227 -1.3735
21817SOL     OW66028   1.335   8.369   3.441  0.2218 -0.2221 -0.4914
21817SOL    HW166029   1.319   8.339   3.531 -0.4384 -0.4499 -0.6789
21817SOL    HW266030   1.253   8.410   3.415  0.2659 -0.5599 -1.1577
21818SOL     OW66031   7.413   7.572   6.461 -1.1027  0.3423  0.4131
21818SOL    HW166032   7.496   7.525   6.466  0.4055  2.3895 -2.3206
21818SOL    HW266033   7.392   7.574   6.367 -3.6802  0.8871  0.9068
21819SOL     OW66034   1.452   1.205   6.131 -0.4584 -0.4490 -0.0980
21819SOL    HW166035   1.370   1.181   6.176  0.4001 -2.4771  0.5016
21819SOL    HW266036   1.426   1.220   6.041 -1.3878 -2.0667 -0.1375
21820SOL     OW66037   6.955   6.398   6.807 -0.0956 -0.2298 -0.4422
21820SOL    HW166038   6.912   6.391   6.892 -0.2768 -0.7500 -0.5678
21820SOL    HW266039   6.968   6.307   6.780  0.7635 -0.0789 -0.5713
21821SOL     OW66040   1.850   0.478   0.124  0.1039 -0.4779  0.2495
21821SOL    HW166041   1.821   0.390   0.100 -1.1680  0.5750 -2.4983
21821SOL    HW266042   1.774   0.518   0.168 -0.4155  0.1603 -1.1627
21822SOL     OW66043   6.487   6.583   5.154  0.1986 -0.0996  0.3876
21822SOL    HW166044   6.459   6.670   5.125 -0.5986 -0.4532  0.0807
21822SOL    HW266045   6.537   6.548   5.080  0.7142  0.1782  0.5974
21823SOL     OW66046   5.098   2.017   1.797  0.0695  0.4978  0.0084
21823SOL    HW166047   5.026   2.056   1.847  1.9406  1.3177  2.2406
21823SOL    HW266048   5.110   2.076   1.723 -1.5103  0.3491 -0.4003
21824SOL     OW66049   6.398   3.319   7.794  0.2713 -0.7443  0.2342
21824SOL    HW166050   6.381   3.278   7.709 -1.5227 -0.7437  0.5558
21824SOL    HW266051   6.399   3.246   7.856  0.3062 -0.6198  0.3805
21825SOL     OW66052   0.059   0.907   9.868 -0.0350  0.6771 -0.6676
21825SOL    HW166053   0.064   0.954   9.952  0.0436  0.9922 -0.8450
21825SOL    HW266054   0.009   0.966   9.811 -1.4742 -0.2330 -0.3811
21826SOL     OW66055   6.387   3.028   1.635  0.0588 -0.4943  0.6028
21826SOL    HW166056   6.432   3.023   1.719  0.8846  0.6941  0.2678
21826SOL    HW266057   6.322   3.098   1.646 -1.0866 -1.5420  0.7800
21827SOL     OW66058   5.160   6.618   5.141  0.3401 -0.2441  0.0551
21827SOL    HW166059   5.163   6.561   5.218 -0.2887 -1.0704 -0.5098
21827SOL    HW266060   5.109   6.569   5.077 -0.1755  0.9398 -0.4765
21828SOL     OW66061   5.822   1.637   3.242 -0.3212 -0.2040  0.3535
21828SOL    HW166062   5.787   1.722   3.270 -0.5630  0.0413 -0.6404
21828SOL    HW266063   5.756   1.573   3.269 -0.0689 -0.1086  1.2413
21829SOL     OW66064   4.015   6.389   8.394 -0.3993 -0.0396  0.3148
21829SOL    HW166065   4.047   6.472   8.429 -0.4496 -0.8268  2.4220
21829SOL    HW266066   4.063   6.377   8.312 -1.2630  2.6059 -0.7110
21830SOL     OW66067   1.267   6.146   6.576 -0.3055 -0.0400  0.6841
21830SOL    HW166068   1.194   6.152   6.514 -0.0268 -0.8192  0.2647
21830SOL    HW266069   1.245   6.208   6.645 -0.9337  0.3770  0.1210
21831SOL     OW66070   3.196   1.848   8.274 -0.0949  0.8790  0.5054
21831SOL    HW166071   3.260   1.781   8.251  2.3178  3.2509 -0.1379
21831SOL    HW266072   3.192   1.847   8.370 -0.5689 -0.5310  0.4920
21832SOL     OW66073   5.164   7.111   5.997 -0.2761 -0.0864 -0.0714
21832SOL    HW166074   5.195   7.155   6.076  0.5343 -0.4284 -0.1940
21832SOL    HW266075   5.075   7.144   5.984 -0.0307  0.7661  0.3918
21833SOL     OW66076   8.878   0.113   9.559  0.5819  0.1315  0.0932
21833SOL    HW166077   8.784   0.120   9.542  0.2247 -0.4422  1.5995
21833SOL    HW266078   8.915   0.085   9.476 -0.6322  0.0689 -0.4556
21834SOL     OW66079   5.981   8.157   1.620  0.2947  0.0629 -0.1882
21834SOL    HW166080   5.929   8.236   1.636  0.8672  0.4468 -0.1945
21834SOL    HW266081   5.919   8.085   1.632 -0.0003  0.4620  0.8611
21835SOL     OW66082   8.147   3.457   1.401  0.1597 -0.3326 -0.0380
21835SOL    HW166083   8.067   3.509   1.396 -1.4606 -2.4702  1.6814
21835SOL    HW266084   8.148   3.407   1.319 -0.3249 -0.3783 -0.0213
21836SOL     OW66085   6.906   9.431   7.965 -0.6649 -0.1223 -0.4680
21836SOL    HW166086   6.833   9.480   7.927 -1.3339  0.4939  1.4671
21836SOL    HW266087   6.863   9.362   8.017  0.1752 -0.7140 -0.5422
21837SOL     OW66088   2.189   4.892   6.814 -0.0321 -0.4096 -0.0120
21837SOL    HW166089   2.110   4.939   6.786 -0.9043 -0.8985  1.4770
21837SOL    HW266090   2.155   4.816   6.861  1.3435 -1.6688 -0.9540
21838SOL     OW66091   9.171   8.756   7.228 -0.0768  0.0053 -0.0565
21838SOL    HW166092   9.086   8.775   7.267  0.1257 -0.0708  0.4384
21838SOL    HW266093   9.231   8.816   7.272  0.0831  0.2443 -0.5936
21839SOL     OW66094   6.667   0.070   4.667  0.2224 -0.3085  0.9978
21839SOL    HW166095   6.740   0.097   4.723  1.8433 -0.4916 -0.9220
21839SOL    HW266096   6.659   0.141   4.603 -0.1888 -1.0765  0.1914
21840SOL     OW66097   0.816   5.494   4.185 -0.2778 -0.2268 -0.3146
21840SOL    HW166098   0.854   5.556   4.124  0.9549  0.0242  0.6420
21840SOL    HW266099   0.877   5.420   4.185 -0.0290 -0.0521  0.8698
21841SOL     OW66100   9.401   5.833   3.055  0.1232 -0.9375 -0.2998
21841SOL    HW166101   9.460   5.900   3.090  0.2813 -1.3110  0.1657
21841SOL    HW266102   9.340   5.815   3.126 -0.4732 -0.6503 -0.7340
21842SOL     OW66103   7.998   9.546   1.679  0.4593  0.0904 -0.5894
21842SOL    HW166104   8.036   9.467   1.716 -0.8474  0.2557  1.2500
21842SOL    HW266105   7.938   9.514   1.611  0.6254 -0.4124 -0.5058
21843SOL     OW66106   7.420   1.814   6.469 -0.7128 -0.4393 -0.1705
21843SOL    HW166107   7.485   1.861   6.522  0.7818 -1.5384 -0.9742
21843SOL    HW266108   7.398   1.737   6.521 -1.2193 -0.1942 -0.0103
21844SOL     OW66109   8.425   2.340   8.143  0.5415 -0.1061  0.1757
21844SOL    HW166110   8.457   2.304   8.060  2.3828  1.0349  0.3405
21844SOL    HW266111   8.363   2.408   8.117  1.2344  0.3598 -0.2903
21845SOL     OW66112   5.358   0.515   9.139  0.4088 -0.0658  0.0234
21845SOL    HW166113   5.417   0.590   9.126  0.4944 -0.2722 -0.8361
21845SOL    HW266114   5.390   0.473   9.219 -0.4894  1.6017  1.3176
21846SOL     OW66115   3.484   2.189   4.165 -0.4953 -0.0415  0.2741
21846SOL    HW166116   3.497   2.278   4.131  0.4803  0.0023  0.7401
21846SOL    HW266117   3.567   2.145   4.148 -0.7611 -0.6801  0.6259
21847SOL     OW66118   6.941   0.626   9.094  0.1084 -0.3148  0.1239
21847SOL    HW166119   6.980   0.580   9.168 -0.9306 -0.1470  0.8074
21847SOL    HW266120   6.929   0.559   9.027  1.3439 -0.4070 -0.0135
21848SOL     OW66121   5.108   7.705   9.327  0.3332  0.2305  0.3629
21848SOL    HW166122   5.028   7.673   9.286 -1.1205  1.4952  2.0467
21848SOL    HW266123   5.171   7.633   9.317 -1.3970 -1.2994  0.0520
21849SOL     OW66124   2.905   7.280   9.468 -0.0348  0.0216 -0.1209
21849SOL    HW166125   2.905   7.367   9.510  0.3670 -0.8119  1.7299
21849SOL    HW266126   2.813   7.258   9.460 -0.1895 -0.8115  2.7304
21850SOL     OW66127   6.384   0.498   8.990 -0.0658 -0.4382  0.2834
21850SOL    HW166128   6.348   0.439   9.057  0.8263  0.1849  1.3482
21850SOL    HW266129   6.478   0.496   9.005  0.2395 -0.8665 -1.4735
21851SOL     OW66130   7.797   6.401   1.926  0.3916  0.1563  0.6221
21851SOL    HW166131   7.742   6.438   1.995  0.5475  1.2841  0.1643
21851SOL    HW266132   7.816   6.475   1.868  0.0204 -0.8187 -0.8069
21852SOL     OW66133   8.003   9.773   4.853  0.7641 -0.3859  0.0045
21852SOL    HW166134   8.086   9.818   4.836  0.9238 -0.0955  1.4175
21852SOL    HW266135   7.937   9.841   4.839  0.9737  0.2039  1.6359
21853SOL     OW66136   7.168   1.042   7.499  0.3819  0.1285  0.4085
21853SOL    HW166137   7.250   1.034   7.449  0.5977  0.1513  0.7520
21853SOL    HW266138   7.193   1.095   7.575 -0.1994  1.0663 -0.0367
21854SOL     OW66139   7.371   2.543   1.358 -0.3285 -0.2090  0.2871
21854SOL    HW166140   7.435   2.474   1.374  0.4946  0.3226 -0.6119
21854SOL    HW266141   7.286   2.500   1.369  0.1637 -0.9818  1.2647
21855SOL     OW66142   9.753   6.216   5.904 -0.4167  0.0383 -0.4192
21855SOL    HW166143   9.734   6.122   5.905 -1.2773  0.1145 -2.9993
21855SOL    HW266144   9.668   6.258   5.915 -0.3731  0.4711 -1.6058
21856SOL     OW66145   6.450   4.129   2.660  0.3261  0.3928 -0.5368
21856SOL    HW166146   6.542   4.136   2.686 -0.3908  1.5892  1.9840
21856SOL    HW266147   6.405   4.098   2.738 -1.3391 -1.1843 -2.0090
21857SOL     OW66148   1.474   1.161   0.117 -0.0136  0.7005  0.6531
21857SOL    HW166149   1.403   1.146   0.180 -0.1186  1.3336  0.6961
21857SOL    HW266150   1.510   1.246   0.142 -0.2295  1.0873 -0.3045
21858SOL     OW66151   8.173   5.407   2.329  0.0176 -0.3424 -0.1251
21858SOL    HW166152   8.112   5.380   2.398 -1.4524 -0.6656 -1.4944
21858SOL    HW266153   8.192   5.499   2.349 -3.4709  0.8221 -1.3272
21859SOL     OW66154   5.002   2.301   1.255 -0.2399 -0.2067 -0.1370
21859SOL    HW166155   4.970   2.215   1.229 -1.4694 -0.8365  3.0613
21859SOL    HW266156   4.930   2.361   1.235 -0.7119 -0.4843  0.7272
21860SOL     OW66157   6.266   3.956   0.651  0.1734 -0.1653 -0.3190
21860SOL    HW166158   6.178   3.965   0.688  1.1723  2.8345  1.6819
21860SOL    HW266159   6.317   3.917   0.722  0.8862 -0.1040 -0.7904
21861SOL     OW66160   9.064   2.843   8.556  0.6565 -0.0614  0.2667
21861SOL    HW166161   8.999   2.779   8.528  1.0455 -0.7471  0.8809
21861SOL    HW266162   9.029   2.927   8.528 -0.7280 -0.3612  0.9955
21862SOL     OW66163  10.001   3.926   6.453 -0.3226  0.3940  0.0725
21862SOL    HW166164  10.020   3.985   6.381  0.1025 -2.2101 -2.1376
21862SOL    HW266165   9.916   3.955   6.486 -0.2024  2.1026 -1.0032
21863SOL     OW66166   6.558   4.967   6.444  0.0689 -0.1694  0.5869
21863SOL    HW166167   6.580   5.023   6.518  1.1833 -1.4692  1.2911
21863SOL    HW266168   6.469   4.935   6.463 -0.7943  1.6904 -0.0825
21864SOL     OW66169   0.107   7.530   1.473  0.1945 -0.0669 -0.0733
21864SOL    HW166170   0.155   7.561   1.550 -0.3642  0.4655  0.0625
21864SOL    HW266171   0.144   7.443   1.456 -1.6531 -1.5204  2.5934
21865SOL     OW66172   8.547   1.039   2.927 -0.4578 -0.1616 -0.3943
21865SOL    HW166173   8.628   1.007   2.887 -0.6223 -1.4255  0.2108
21865SOL    HW266174   8.562   1.132   2.942  1.6107 -0.6849  1.3131
21866SOL     OW66175   5.749   0.734   2.471  0.1804 -0.3474 -0.0123
21866SOL    HW166176   5.667   0.728   2.521  0.0025 -0.4967 -0.3221
21866SOL    HW266177   5.796   0.654   2.493 -0.2270 -0.7724 -0.6606
21867SOL     OW66178   5.990   0.041   3.247  0.2040  0.0490  0.9191
21867SOL    HW166179   5.928   0.101   3.205  0.3740 -0.8419 -0.7065
21867SOL    HW266180   5.988   0.065   3.340 -3.2902 -0.5501  1.1224
21868SOL     OW66181   4.944   0.699   7.301 -0.1904 -0.2578 -0.2309
21868SOL    HW166182   4.930   0.631   7.235 -0.3637  0.8257 -1.3352
21868SOL    HW266183   4.969   0.777   7.251  0.5913  0.3517  1.0512
21869SOL     OW66184   0.602   4.263   5.039 -0.0706  0.1920  0.7924
21869SOL    HW166185   0.509   4.242   5.030  0.4799 -1.5646 -2.2732
21869SOL    HW266186   0.610   4.353   5.010 -0.3550 -1.1471 -4.3971
21870SOL     OW66187   3.255   3.847   4.770  0.3162 -0.2825 -0.2126
21870SOL    HW166188   3.286   3.898   4.695 -0.2823  0.7558  0.2255
21870SOL    HW266189   3.333   3.801   4.801  0.4887 -1.0207 -1.6913
21871SOL     OW66190   2.544   4.705   9.587  0.2020  0.5331  0.1406
21871SOL    HW166191   2.614   4.717   9.522  2.0132  0.7285  2.0217
21871SOL    HW266192   2.557   4.615   9.619  0.4642  1.0035  1.4184
21872SOL     OW66193   6.776   1.313   3.704 -0.1267 -0.2683 -0.5196
21872SOL    HW166194   6.834   1.306   3.781 -2.0251  0.6748  1.0862
21872SOL    HW266195   6.787   1.230   3.658  0.7240 -1.0601  1.0275
21873SOL     OW66196   2.903   5.604   3.196 -0.3754  0.4340 -0.2272
21873SOL    HW166197   2.901   5.693   3.161 -2.3364  0.4679 -0.1567
21873SOL    HW266198   2.944   5.613   3.282 -0.4608  1.2705 -0.2632
21874SOL     OW66199   4.526   7.232   7.986 -0.1608 -0.1456  0.5933
21874SOL    HW166200   4.430   7.235   7.991 -0.2258 -2.1214  1.2988
21874SOL    HW266201   4.545   7.227   7.893 -0.8709 -1.8098  0.5115
21875SOL     OW66202   5.645   1.130   8.460  0.3521 -0.3534 -0.1792
21875SOL    HW166203   5.554   1.114   8.487 -0.4747  2.4766 -0.9500
21875SOL    HW266204   5.660   1.068   8.389 -2.2354  1.2992 -2.3618
21876SOL     OW66205   7.363   8.957   3.600  0.1781 -0.1286  0.4053
21876SOL    HW166206   7.322   8.911   3.527 -0.1007 -0.1568  0.5787
21876SOL    HW266207   7.366   8.893   3.671 -1.2789  0.4551  1.0228
21877SOL     OW66208   7.714   5.703   6.669 -0.3472 -0.3348 -0.1917
21877SOL    HW166209   7.716   5.616   6.629 -0.8631  0.1791 -1.4032
21877SOL    HW266210   7.768   5.756   6.610  1.2734 -0.1456  1.3829
21878SOL     OW66211   6.842   7.415   3.180  0.3521  0.2171 -0.1846
21878SOL    HW166212   6.889   7.355   3.122 -1.1612 -0.4587 -0.7656
21878SOL    HW266213   6.803   7.480   3.121 -1.4251 -0.6248 -0.0181
21879SOL     OW66214   7.731   4.918   5.667  0.2698  0.0435 -0.2652
21879SOL    HW166215   7.676   4.877   5.601  1.4789 -0.6215 -0.8920
21879SOL    HW266216   7.723   4.862   5.744 -1.2011  0.8619  0.2114
21880SOL     OW66217   7.123   3.757   7.096 -0.1216  0.6278 -0.3604
21880SOL    HW166218   7.127   3.808   7.015  1.2226  1.3409  0.1233
21880SOL    HW266219   7.212   3.725   7.109  0.5295  3.0998  2.3937
21881SOL     OW66220   4.469   7.067   9.074  0.1230  0.1862 -0.3475
21881SOL    HW166221   4.516   7.064   9.158  1.5146 -1.2254 -1.1187
21881SOL    HW266222   4.512   7.137   9.026  0.0105  0.3145 -0.2617
21882SOL     OW66223   5.100   9.810   4.234 -0.1441  0.3681 -0.0679
21882SOL    HW166224   5.152   9.752   4.178 -0.1607  0.5003 -0.2191
21882SOL    HW266225   5.036   9.751   4.276  1.5679 -0.2059  1.8923
21883SOL     OW66226   9.494   6.969   7.073 -0.1631  0.1936 -0.2972
21883SOL    HW166227   9.589   6.971   7.082 -0.0628  1.0263 -1.2910
21883SOL    HW266228   9.478   6.989   6.981 -1.2884 -0.5473 -0.2873
21884SOL     OW66229   2.501   7.223   7.329 -0.2377  0.1858 -0.2250
21884SOL    HW166230   2.571   7.169   7.292 -0.1437 -0.1480  0.4213
21884SOL    HW266231   2.531   7.313   7.318  1.2845  0.0133  1.8820
21885SOL     OW66232   4.945   4.901   0.415 -0.1843  0.2206  0.2080
21885SOL    HW166233   4.950   4.914   0.321 -2.8850  1.0274  0.1114
21885SOL    HW266234   5.004   4.968   0.451  1.1394 -0.3214 -0.8503
21886SOL     OW66235   0.041   2.593   8.042 -0.3074 -0.1948 -0.0450
21886SOL    HW166236   0.061   2.573   8.134  1.8308 -1.4321 -0.7053
21886SOL    HW266237  -0.052   2.573   8.033 -0.8041  0.8341  2.0345
21887SOL     OW66238   5.606   2.516   0.549  0.0117 -0.0668 -0.1816
21887SOL    HW166239   5.696   2.549   0.542  0.0120 -0.1661 -0.6940
21887SOL    HW266240   5.611   2.427   0.514 -0.7057  0.6821 -2.3468
21888SOL     OW66241   2.301   8.992   7.652 -0.1409 -0.1172 -0.1392
21888SOL    HW166242   2.247   8.964   7.726  0.2918 -2.7046 -0.7010
21888SOL    HW266243   2.250   8.967   7.575  0.0028  1.3426 -0.7387
21889SOL     OW66244   5.880   3.802   4.770 -0.0311  0.5894 -0.7155
21889SOL    HW166245   5.940   3.728   4.769 -0.1769  0.4727 -1.0198
21889SOL    HW266246   5.878   3.830   4.862  0.9349  0.9728 -0.7992
21890SOL     OW66247   7.289   9.575   8.775  0.7194 -0.1573  0.5148
21890SOL    HW166248   7.232   9.595   8.701 -0.9594 -0.5163  1.6539
21890SOL    HW266249   7.249   9.621   8.849  0.9650 -1.7214  1.6765
21891SOL     OW66250   6.123   9.833   9.409 -0.2638 -0.5891  0.0530
21891SOL    HW166251   6.030   9.857   9.412  0.0968  1.6457 -2.6051
21891SOL    HW266252   6.150   9.832   9.501 -2.2789  1.6936  0.7773
21892SOL     OW66253   5.437   7.874   1.261 -0.7005  0.8227  0.2576
21892SOL    HW166254   5.526   7.904   1.280  0.3938 -1.9670  0.0917
21892SOL    HW266255   5.418   7.909   1.174  0.3795  1.1862  0.1549
21893SOL     OW66256   6.136   4.739   1.947  0.4777 -0.3947  0.4657
21893SOL    HW166257   6.156   4.764   2.037  2.5683  3.0635 -0.7625
21893SOL    HW266258   6.196   4.667   1.928  0.4207 -0.7614  1.5896
21894SOL     OW66259   2.756   2.101   3.902 -0.1044 -0.3160  0.3377
21894SOL    HW166260   2.746   2.041   3.976 -1.1147  0.3287  0.7465
21894SOL    HW266261   2.817   2.168   3.934 -0.6630  0.0499  0.6651
21895SOL     OW66262   0.515   5.451   3.880  0.0845  0.0668 -0.2269
21895SOL    HW166263   0.504   5.415   3.968 -1.3779  2.4004  0.6341
21895SOL    HW266264   0.493   5.379   3.821 -2.4842 -0.5912  1.3892
21896SOL     OW66265   8.343   2.656   3.955 -0.2693  0.1296  0.0174
21896SOL    HW166266   8.410   2.670   3.889  1.7361 -0.4337  1.8096
21896SOL    HW266267   8.295   2.578   3.925  1.9341 -1.3734  0.1524
21897SOL     OW66268   3.707   2.747   4.710 -0.5184 -0.5676 -0.3947
21897SOL    HW166269   3.660   2.825   4.681 -0.6059 -0.7820 -0.8435
21897SOL    HW266270   3.727   2.763   4.802  2.2635  1.3703 -1.1982
21898SOL     OW66271   2.060   5.792   8.860 -0.3229  0.3184 -0.6519
21898SOL    HW166272   2.085   5.805   8.951  0.4958 -1.0970 -0.6427
21898SOL    HW266273   1.964   5.789   8.861 -0.2927 -0.9855  0.3718
21899SOL     OW66274   2.307   2.505   0.975  0.4012  0.1618 -0.0601
21899SOL    HW166275   2.385   2.553   1.003  1.5385 -0.1903 -2.4326
21899SOL    HW266276   2.318   2.417   1.010 -0.2879  0.7670  1.8396
21900SOL     OW66277   2.480   8.377   0.747 -0.2925 -0.3362 -0.2210
21900SOL    HW166278   2.546   8.375   0.816 -0.6942  0.1865  0.1769
21900SOL    HW266279   2.434   8.460   0.759 -0.4360 -0.2884 -1.0484
21901SOL     OW66280   5.476   3.565   5.588 -0.5544  0.7460 -0.2455
21901SOL    HW166281   5.426   3.586   5.509  0.7106  0.4449 -1.1593
21901SOL    HW266282   5.410   3.547   5.654 -1.6680 -0.2626 -1.5711
21902SOL     OW66283   6.095   9.540   6.685  0.3451  0.2212 -0.3446
21902SOL    HW166284   6.083   9.532   6.779  0.7616 -2.4802 -0.4570
21902SOL    HW266285   6.012   9.576   6.653 -0.3044 -0.1125  0.9096
21903SOL     OW66286   0.753   0.329   9.404 -0.1550  0.2852 -0.1324
21903SOL    HW166287   0.822   0.380   9.446  0.1379 -0.3266  0.1424
21903SOL    HW266288   0.683   0.392   9.389  0.3508  0.8580 -0.1644
21904SOL     OW66289   1.228   1.814   9.581  0.1238  0.2614 -0.4959
21904SOL    HW166290   1.211   1.870   9.505  1.2499 -1.3539 -2.0087
21904SOL    HW266291   1.254   1.730   9.544 -0.1440 -0.8708  1.7022
21905SOL     OW66292   3.131   4.938   3.389  0.2595 -0.6150 -0.4503
21905SOL    HW166293   3.217   4.962   3.421 -0.3251 -0.3373  0.9821
21905SOL    HW266294   3.070   4.980   3.450 -0.8863 -0.7745 -1.4525
21906SOL     OW66295   5.645   0.250   8.759 -0.3427  0.1988  0.2418
21906SOL    HW166296   5.632   0.320   8.694 -0.9002  1.1238  1.3018
21906SOL    HW266297   5.576   0.265   8.823 -0.1022 -0.9930  0.7989
21907SOL     OW66298   2.885   4.926   7.088  0.2425  0.1594  0.6048
21907SOL    HW166299   2.854   4.900   7.001 -1.4137 -2.5370  1.8284
21907SOL    HW266300   2.849   4.858   7.147  1.3765  1.7839  3.3759
21908SOL     OW66301   5.776   3.760   4.230 -0.4217 -0.5968 -0.0517
21908SOL    HW166302   5.756   3.793   4.318  1.7715 -1.1396  0.7042
21908SOL    HW266303   5.722   3.814   4.172 -0.5280  1.0647  1.4860
21909SOL     OW66304   3.017   1.410   7.223 -0.3641  0.2306  0.5850
21909SOL    HW166305   3.043   1.321   7.198  1.6698  0.9175  0.0109
21909SOL    HW266306   2.922   1.409   7.221 -0.3717 -1.6859 -0.3061
21910SOL     OW66307   0.669   1.826   1.498  0.3321 -0.8774 -0.2975
21910SOL    HW166308   0.713   1.884   1.560  1.0282 -0.4319 -1.1861
21910SOL    HW266309   0.615   1.769   1.553  0.2261  0.1039  0.6431
21911SOL     OW66310   0.326   0.171   9.481 -0.0971 -0.7601 -1.2037
21911SOL    HW166311   0.421   0.172   9.470  0.3470  1.3387  1.7091
21911SOL    HW266312   0.307   0.085   9.518  0.6258 -1.1932 -1.8018
21912SOL     OW66313   2.711   1.721   7.448  0.1402 -0.1714 -0.5354
21912SOL    HW166314   2.791   1.760   7.412  1.4019 -0.9381  1.2923
21912SOL    HW266315   2.682   1.783   7.514 -0.5822 -0.0712 -0.9429
21913SOL     OW66316   9.939   6.722   0.053  0.0535 -0.3550  0.6602
21913SOL    HW166317   9.972   6.642   0.093  1.0631 -0.6719 -0.7574
21913SOL    HW266318  10.011   6.754  -0.001 -1.0881  0.2951 -0.5422
21914SOL     OW66319   3.370   1.526   1.162  0.2285 -0.1107 -0.7337
21914SOL    HW166320   3.370   1.596   1.096 -0.9328 -1.8337 -2.7018
21914SOL    HW266321   3.288   1.480   1.147  0.7782 -1.6665  0.7646
21915SOL     OW66322   2.879   2.681   5.299  0.1416 -0.5978 -0.5682
21915SOL    HW166323   2.899   2.745   5.368  0.6142 -1.8235  0.4861
21915SOL    HW266324   2.914   2.599   5.333 -0.4471 -1.4196 -1.8904
21916SOL     OW66325   5.269   9.839   7.310  0.2678 -0.7043 -0.0274
21916SOL    HW166326   5.351   9.817   7.355  0.0082  0.2043  0.9299
21916SOL    HW266327   5.208   9.770   7.337  0.2026 -0.3411  0.7799
21917SOL     OW66328   5.625   4.084   3.347  0.5263 -0.4803 -0.1851
21917SOL    HW166329   5.625   4.007   3.291 -1.3542 -1.3450  0.8717
21917SOL    HW266330   5.646   4.157   3.289  0.7998 -1.5896 -1.5295
21918SOL     OW66331   0.197   5.077   4.970  0.2886 -0.4337 -0.1055
21918SOL    HW166332   0.159   5.164   4.980  1.1265 -0.2666  2.1037
21918SOL    HW266333   0.281   5.091   4.926  0.6086 -0.0692  0.6177
21919SOL     OW66334   4.442   4.245   1.288  0.6467  0.0170  0.5833
21919SOL    HW166335   4.421   4.161   1.247  0.0591 -0.0009  0.9189
21919SOL    HW266336   4.391   4.309   1.239 -0.3826 -0.0535  1.5315
21920SOL     OW66337   8.558   0.219   3.989  0.9437 -0.0976 -0.1481
21920SOL    HW166338   8.579   0.136   3.947 -1.6640 -0.2946 -1.2380
21920SOL    HW266339   8.530   0.195   4.077  0.9898 -0.2742 -0.1812
21921SOL     OW66340   6.150   5.358   8.129  0.4854 -0.2544 -0.2848
21921SOL    HW166341   6.223   5.418   8.110  1.2213 -0.2623  2.1197
21921SOL    HW266342   6.146   5.355   8.225 -1.4987 -1.7256 -0.3484
21922SOL     OW66343   9.651   7.906   4.084 -0.5303  0.2764  0.0946
21922SOL    HW166344   9.586   7.854   4.036 -1.2532  0.5338  0.7638
21922SOL    HW266345   9.612   7.918   4.171  0.2411  0.7757  0.3804
21923SOL     OW66346   6.742   0.415   6.658  0.0462  0.5208  0.4002
21923SOL    HW166347   6.741   0.396   6.751  0.0641  1.0855  0.5185
21923SOL    HW266348   6.654   0.449   6.640  0.2219  0.9313  0.3212
21924SOL     OW66349   1.548   3.972   4.974 -0.4505  0.2521  0.1621
21924SOL    HW166350   1.575   4.033   5.043  0.0448  0.1877  0.0293
21924SOL    HW266351   1.472   3.927   5.010 -0.2414  0.2759  0.6380
21925SOL     OW66352   8.989   6.186   1.090  0.2564 -0.2674 -0.0021
21925SOL    HW166353   8.899   6.160   1.106  0.3620 -2.2297 -2.1763
21925SOL    HW266354   8.993   6.277   1.119 -1.9381 -0.6165  1.6750
21926SOL     OW66355   2.878   3.046   2.009  0.3655 -0.1957 -0.3788
21926SOL    HW166356   2.882   3.080   1.919  1.6246 -2.9668 -1.4646
21926SOL    HW266357   2.968   3.023   2.031 -0.2093 -1.4472  0.8257
21927SOL     OW66358   0.998   3.226   6.351  0.2092 -0.1877 -0.2191
21927SOL    HW166359   1.071   3.177   6.312  0.5942  0.6615 -0.5974
21927SOL    HW266360   1.008   3.212   6.445  0.5035 -0.5858 -0.3074
21928SOL     OW66361   5.007   7.688   1.641  0.6642 -0.4879  1.3108
21928SOL    HW166362   4.941   7.626   1.674 -0.5128  1.0788  2.0124
21928SOL    HW266363   4.973   7.774   1.665  2.2623  0.4487  0.3600
21929SOL     OW66364   5.140   2.321   6.373 -0.1477 -0.5307 -0.3639
21929SOL    HW166365   5.182   2.377   6.308 -0.5885  0.3679  0.1056
21929SOL    HW266366   5.089   2.259   6.321 -0.9693  0.5534 -0.8998
21930SOL     OW66367   2.115   9.582   2.955 -0.4469  0.1229  0.4060
21930SOL    HW166368   2.068   9.537   3.025 -2.4159 -0.1550 -1.0067
21930SOL    HW266369   2.060   9.657   2.933  0.6063  0.7396 -0.2082
21931SOL     OW66370   2.009   0.724   2.110  0.3049  0.1163  0.3259
21931SOL    HW166371   2.046   0.694   2.027 -0.3076 -0.1466  0.1457
21931SOL    HW266372   2.082   0.717   2.172  0.4001 -0.9979  0.1154
21932SOL     OW66373   5.051   3.806   5.634 -0.4436  0.3285  0.2609
21932SOL    HW166374   4.965   3.800   5.676 -0.4942  1.0805  0.2851
21932SOL    HW266375   5.048   3.888   5.584  0.3158  0.4604  0.4078
21933SOL     OW66376   2.700   9.353   1.476  0.3630  0.7689  0.2457
21933SOL    HW166377   2.723   9.434   1.521 -0.0753  0.4305  1.0898
21933SOL    HW266378   2.628   9.378   1.418  0.6664  1.1190  0.0111
21934SOL     OW66379   5.853   5.608   4.344  0.2060 -0.0192  0.0548
21934SOL    HW166380   5.834   5.608   4.437 -2.0529 -0.2918 -0.3625
21934SOL    HW266381   5.910   5.533   4.331 -0.6378 -0.8440  1.0000
21935SOL     OW66382   7.540   2.333   2.054  0.3122  0.1384  0.7214
21935SOL    HW166383   7.563   2.423   2.078 -0.4391  0.7951 -0.8852
21935SOL    HW266384   7.587   2.279   2.117  1.8531  1.6033  0.9004
21936SOL     OW66385   4.272   2.155   9.061 -0.0724  0.4580 -0.2588
21936SOL    HW166386   4.325   2.076   9.062 -0.0459  0.4534 -1.2034
21936SOL    HW266387   4.267   2.180   8.968 -2.8291 -0.2919 -0.3967
21937SOL     OW66388   5.590   2.565   2.530  0.0291  0.2560  0.4601
21937SOL    HW166389   5.652   2.493   2.513 -0.0296 -0.1747  1.9033
21937SOL    HW266390   5.514   2.522   2.569  0.6882  1.2379  2.9956
21938SOL     OW66391   2.918   7.734   7.439  0.1884 -0.2727 -0.1520
21938SOL    HW166392   2.932   7.828   7.442  2.1674 -0.5261  0.0573
21938SOL    HW266393   2.828   7.721   7.468  0.0057  1.5149  0.1424
21939SOL     OW66394   4.774   9.447   3.342 -0.0870  0.0715 -0.4021
21939SOL    HW166395   4.817   9.520   3.296  2.0394  0.1305  1.4908
21939SOL    HW266396   4.760   9.480   3.431 -0.8351 -1.2243 -0.0156
21940SOL     OW66397   3.348   6.513   7.977 -0.7959 -0.4807 -0.1916
21940SOL    HW166398   3.420   6.454   7.994 -1.4914 -1.3070 -0.0642
21940SOL    HW266399   3.370   6.555   7.893  0.9380  1.0256  0.9602
21941SOL     OW66400   6.344   8.900   5.144  0.4275 -0.1545  0.1236
21941SOL    HW166401   6.286   8.885   5.070  0.0611 -1.1539  0.5846
21941SOL    HW266402   6.290   8.947   5.208 -0.7095 -3.0243  1.4823
21942SOL     OW66403   4.053   4.799   2.776 -0.0122 -0.0272 -0.8892
21942SOL    HW166404   4.060   4.861   2.849 -1.5474  0.4324 -1.0926
21942SOL    HW266405   4.113   4.833   2.709 -1.1545  1.5276 -1.1733
21943SOL     OW66406   9.461   5.100   2.779  0.6756 -0.2477  0.6257
21943SOL    HW166407   9.399   5.029   2.766  0.5821 -0.2980  1.2941
21943SOL    HW266408   9.539   5.073   2.730  0.1739 -0.1714 -0.2303
21944SOL     OW66409   1.923   7.769   4.190 -0.0002  0.1489 -0.6565
21944SOL    HW166410   1.992   7.799   4.131  0.6920  0.6311  0.3667
21944SOL    HW266411   1.910   7.841   4.251 -1.7038  0.2244 -1.0480
21945SOL     OW66412   4.762   5.341   2.597  0.3225  0.3269  0.1597
21945SOL    HW166413   4.814   5.356   2.518  1.5376  0.0817  0.8876
21945SOL    HW266414   4.792   5.257   2.630  1.0421  1.1779  1.7856
21946SOL     OW66415   2.241   2.305   5.174 -0.0083 -0.0829  0.2805
21946SOL    HW166416   2.193   2.239   5.225 -0.2587  0.3487  0.6094
21946SOL    HW266417   2.287   2.357   5.240 -1.2350  1.2053  0.1653
21947SOL     OW66418   5.540   5.052   7.852 -0.2340  0.4915  0.2047
21947SOL    HW166419   5.475   4.983   7.841  0.2203  0.1278 -0.2489
21947SOL    HW266420   5.608   5.031   7.788  2.0443 -1.1158  2.9133
21948SOL     OW66421   8.538   7.883   7.721  0.1348  0.4007 -0.7991
21948SOL    HW166422   8.606   7.950   7.718 -1.8475  2.5467 -1.3174
21948SOL    HW266423   8.457   7.932   7.734 -1.3670 -2.0029 -0.4018
21949SOL     OW66424   4.676   1.785   1.233  0.4675  0.1031 -0.4358
21949SOL    HW166425   4.746   1.848   1.217 -0.0051  0.4532 -1.1572
21949SOL    HW266426   4.597   1.826   1.199  0.1398 -0.8674 -0.9030
21950SOL     OW66427   4.739   9.326   0.662  0.2928 -0.5761  0.2425
21950SOL    HW166428   4.670   9.265   0.634  1.5403 -3.0935  2.2004
21950SOL    HW266429   4.816   9.301   0.611  0.5875 -0.0128  0.4046
21951SOL     OW66430   6.378   1.091   7.403  0.0719  0.3197 -0.2022
21951SOL    HW166431   6.449   1.033   7.376  0.2289 -0.7273  2.1537
21951SOL    HW266432   6.298   1.043   7.383  0.1582 -0.0188  0.2364
21952SOL     OW66433   6.752   8.257   9.040  0.1291 -0.7249 -0.0232
21952SOL    HW166434   6.812   8.294   8.975  1.6202 -0.4941  1.4195
21952SOL    HW266435   6.723   8.174   9.002  4.6770 -3.0253  0.8760
21953SOL     OW66436   4.652   8.782   2.614 -0.5569 -0.0567 -0.0309
21953SOL    HW166437   4.589   8.801   2.684 -1.5284 -1.2119 -0.5511
21953SOL    HW266438   4.598   8.758   2.539  0.4862 -1.1361 -0.4819
21954SOL     OW66439   7.523   4.071   8.738  0.1893  0.1654  0.1400
21954SOL    HW166440   7.536   4.147   8.794 -0.4891  0.1948  0.2628
21954SOL    HW266441   7.500   4.000   8.798  1.7372 -0.3913  0.1288
21955SOL     OW66442   1.138   2.708   2.495 -0.1015  0.0857  0.4025
21955SOL    HW166443   1.186   2.744   2.569  1.1230  0.6622 -0.6462
21955SOL    HW266444   1.205   2.688   2.429 -1.0336 -1.4511 -0.1501
21956SOL     OW66445   9.384   3.008   6.085 -0.8683  0.4093 -0.2617
21956SOL    HW166446   9.435   3.050   6.016 -0.4627  2.8189  1.3810
21956SOL    HW266447   9.300   3.053   6.084 -0.3722  1.4958  1.6406
21957SOL     OW66448   9.497   7.900   4.312  0.3133  0.4631 -0.1748
21957SOL    HW166449   9.444   7.974   4.340  0.0492  0.6810 -1.2394
21957SOL    HW266450   9.434   7.833   4.285  0.5619  0.1237  0.0703
21958SOL     OW66451   8.032   1.473   6.068 -0.3899  0.3003 -0.4889
21958SOL    HW166452   8.024   1.404   6.001  1.9586  1.6545 -2.3168
21958SOL    HW266453   8.004   1.552   6.023 -0.7898  0.9432  0.8464
21959SOL     OW66454   7.072   6.388   8.562 -0.1819  0.4129 -0.4469
21959SOL    HW166455   7.120   6.306   8.550 -0.4945  0.0850  0.5113
21959SOL    HW266456   7.128   6.440   8.620  0.0693  0.9400 -1.1381
21960SOL     OW66457   6.204   7.311   2.314  0.3235  0.1587 -0.1805
21960SOL    HW166458   6.185   7.339   2.403 -0.5659  0.8865 -0.5860
21960SOL    HW266459   6.291   7.347   2.296  1.3831 -1.6260  1.0370
21961SOL     OW66460   3.704   3.379   2.546  0.0707  0.5270  0.1062
21961SOL    HW166461   3.769   3.344   2.607 -0.4120  0.2965  0.4991
21961SOL    HW266462   3.640   3.308   2.537 -0.0370  0.6855 -0.4100
21962SOL     OW66463   9.087   4.150   6.560 -0.0097  0.0789 -0.0133
21962SOL    HW166464   9.169   4.122   6.519  0.9257  3.3425 -0.6694
21962SOL    HW266465   9.112   4.178   6.648 -0.3410  1.2505 -0.2719
21963SOL     OW66466   3.522   7.639   4.551 -0.1639  0.3612 -0.4656
21963SOL    HW166467   3.575   7.683   4.617  0.6601  1.4169 -1.7655
21963SOL    HW266468   3.558   7.550   4.546 -0.6382  0.0709  0.8897
21964SOL     OW66469   8.339   3.187   5.768  0.1604  0.5190 -0.2173
21964SOL    HW166470   8.379   3.112   5.811 -0.6208  0.9454  1.3299
21964SOL    HW266471   8.369   3.182   5.677  1.7920 -0.4770  0.3418
21965SOL     OW66472   7.799   1.915   9.891  0.1923  0.3688  0.1470
21965SOL    HW166473   7.895   1.919   9.893  0.1784  0.4663  1.0798
21965SOL    HW266474   7.778   1.901   9.799  1.0588  1.5396 -0.2579
21966SOL     OW66475   7.568   2.843   1.495  0.2533 -0.4130 -0.0781
21966SOL    HW166476   7.617   2.866   1.416 -1.2414  0.6893 -0.7401
21966SOL    HW266477   7.590   2.752   1.511 -0.3153 -1.0559 -2.4868
21967SOL     OW66478   0.187   2.956   6.578  0.3117  0.1610  0.4714
21967SOL    HW166479   0.200   2.867   6.545  0.0166 -0.4061  1.8388
21967SOL    HW266480   0.097   2.958   6.609  0.9775  0.2079  2.5611
21968SOL     OW66481   3.987   5.816   2.179  0.3138 -0.4060  0.3625
21968SOL    HW166482   3.980   5.850   2.268 -0.3747 -1.6653  0.8082
21968SOL    HW266483   4.068   5.855   2.146  0.9121 -0.3838  1.7527
21969SOL     OW66484   7.661   4.532   7.459  0.1874  0.3410 -0.5824
21969SOL    HW166485   7.642   4.522   7.365 -0.1434  1.5653 -0.6534
21969SOL    HW266486   7.677   4.442   7.489 -1.3702 -0.2816 -1.4526
21970SOL     OW66487   2.968   1.002   1.446  0.0886 -0.1262  0.2160
21970SOL    HW166488   2.883   1.012   1.489 -0.7345 -1.3608 -1.0240
21970SOL    HW266489   3.006   0.924   1.486  0.1748 -0.1813  0.0251
21971SOL     OW66490   5.929   1.828   0.300 -0.3308 -0.4334 -0.2346
21971SOL    HW166491   5.969   1.887   0.236  0.7423  0.9196  1.5938
21971SOL    HW266492   5.878   1.766   0.247 -0.6601  1.4767 -2.2923
21972SOL     OW66493   3.071   9.211   1.466  0.2939  0.3336  0.2482
21972SOL    HW166494   3.053   9.205   1.560  1.2381  1.5666  0.5350
21972SOL    HW266495   3.162   9.240   1.461  0.4562 -0.3523 -1.0599
21973SOL     OW66496   8.601   9.383   6.218  0.0180 -0.2051  0.2659
21973SOL    HW166497   8.686   9.352   6.186 -0.4563 -1.6140  0.3158
21973SOL    HW266498   8.537   9.339   6.162 -0.7573 -1.0862  1.7735
21974SOL     OW66499   8.644   5.721   4.620  0.0560  0.2166 -0.1168
21974SOL    HW166500   8.595   5.726   4.538 -0.7921  3.9033  0.4368
21974SOL    HW266501   8.735   5.734   4.595 -0.1225  0.6362 -0.5651
21975SOL     OW66502   8.775   7.803   9.558 -0.3206  0.0221  0.4707
21975SOL    HW166503   8.757   7.882   9.609  0.5082  0.8049 -0.4181
21975SOL    HW266504   8.725   7.815   9.477  2.1174  1.0892 -0.9738
21976SOL     OW66505   9.658   7.911   7.887 -0.5859 -0.7062 -0.2125
21976SOL    HW166506   9.635   7.860   7.965 -0.0602 -0.5033  0.0791
21976SOL    HW266507   9.745   7.945   7.906 -1.3431  1.1913  0.0712
21977SOL     OW66508   9.111   3.904   4.467 -0.4593 -0.3240  0.2700
21977SOL    HW166509   9.172   3.834   4.491 -1.3044 -0.6820  1.4946
21977SOL    HW266510   9.162   3.962   4.412  0.9853 -0.6467  1.2001
21978SOL     OW66511   5.088   8.846   9.235 -0.8762  0.2465 -0.4325
21978SOL    HW166512   5.022   8.914   9.225 -0.5919  0.3774 -1.5386
21978SOL    HW266513   5.101   8.838   9.330 -3.7951 -1.0777 -0.0404
21979SOL     OW66514   9.265   8.442   8.048 -0.8040  0.3925 -0.1930
21979SOL    HW166515   9.222   8.492   7.978 -0.7153  1.0133  0.1889
21979SOL    HW266516   9.243   8.351   8.029  1.3070  0.2340 -2.5485
21980SOL     OW66517   7.849   9.585   4.713 -0.3611  0.2136  0.0347
21980SOL    HW166518   7.929   9.605   4.762 -0.1151 -1.2885  0.2797
21980SOL    HW266519   7.784   9.646   4.748  0.0237 -0.2561  1.6788
21981SOL     OW66520   6.960   0.366   3.985 -0.0462  0.2607  0.3657
21981SOL    HW166521   6.963   0.430   3.913  1.3296  1.3858  1.3896
21981SOL    HW266522   6.940   0.283   3.941  2.1801  0.6354 -1.5432
21982SOL     OW66523   2.477   1.238   3.185 -0.0017  0.1576  0.4725
21982SOL    HW166524   2.396   1.190   3.166  0.0839  0.4635 -0.7437
21982SOL    HW266525   2.452   1.302   3.251 -0.5723 -0.2485  0.6602
21983SOL     OW66526   7.920   2.229   8.186  0.4539  0.1447 -0.5919
21983SOL    HW166527   7.913   2.322   8.167  0.4468  0.3020  0.1560
21983SOL    HW266528   7.839   2.192   8.151  0.6264  0.3517 -1.2304
21984SOL     OW66529   8.271   2.185   6.370 -0.4126  0.2002  0.3148
21984SOL    HW166530   8.366   2.196   6.360 -0.3251 -1.8462 -2.0790
21984SOL    HW266531   8.232   2.252   6.314 -0.3388  0.0414  0.0734
21985SOL     OW66532   8.351   8.689   5.631  0.1599  1.0317 -0.7218
21985SOL    HW166533   8.399   8.611   5.657 -0.0229  1.4052  0.8346
21985SOL    HW266534   8.282   8.657   5.573  0.0574  0.0143 -0.0636
21986SOL     OW66535   8.457   2.233   2.707 -0.3045 -0.2967  0.2054
21986SOL    HW166536   8.552   2.224   2.714 -0.1357  0.5532 -0.7956
21986SOL    HW266537   8.422   2.150   2.740  0.8700 -1.7336 -1.9741
21987SOL     OW66538   2.805   6.487   0.388  0.6256  0.0415 -0.2262
21987SOL    HW166539   2.890   6.506   0.427 -0.0098 -0.1192  1.3004
21987SOL    HW266540   2.820   6.409   0.335  1.2315 -0.5729  0.8153
21988SOL     OW66541   7.082   3.841   5.068 -0.5207  0.1474 -0.4424
21988SOL    HW166542   7.128   3.859   5.150 -0.5091  1.1902 -0.6628
21988SOL    HW266543   7.135   3.884   5.001 -1.4842  0.8527 -0.7742
21989SOL     OW66544   8.123   2.102   3.963  0.2582  0.5804  0.0740
21989SOL    HW166545   8.096   2.045   4.035 -2.4063 -0.1459 -1.3434
21989SOL    HW266546   8.189   2.052   3.916  2.3041  1.2133  2.0948
21990SOL     OW66547   7.608   1.748   5.856  0.1740  0.0046 -0.3205
21990SOL    HW166548   7.610   1.806   5.933  0.9698  0.2442 -0.5107
21990SOL    HW266549   7.681   1.779   5.802 -1.2313  0.7640 -1.8500
21991SOL     OW66550   2.325   7.861   9.067 -0.3766  0.3601  0.1758
21991SOL    HW166551   2.396   7.798   9.059  0.2021  1.1246 -1.0109
21991SOL    HW266552   2.358   7.929   9.126  0.2902  1.2162 -1.1398
21992SOL     OW66553   7.771   7.782   4.761  0.2450 -0.2529 -0.0921
21992SOL    HW166554   7.679   7.772   4.784  1.0885 -2.3556  2.9834
21992SOL    HW266555   7.774   7.766   4.667 -2.3525 -1.4810 -0.0485
21993SOL     OW66556   4.006   2.212   6.847 -0.4705 -0.1379 -0.6081
21993SOL    HW166557   4.072   2.187   6.783 -0.9292 -0.4467 -0.9694
21993SOL    HW266558   3.973   2.296   6.816  0.0048  0.1914 -0.2282
21994SOL     OW66559   0.002   8.647   4.018  0.5845  0.6950 -0.0204
21994SOL    HW166560   0.048   8.565   4.038 -0.4150  0.3731  1.0223
21994SOL    HW266561   0.061   8.716   4.049  1.4833  0.4050 -1.0092
21995SOL     OW66562   2.989   5.390   8.574 -1.0223 -0.4431  0.5807
21995SOL    HW166563   3.072   5.368   8.617 -1.0303 -1.6674 -0.0048
21995SOL    HW266564   2.945   5.448   8.637  1.0675  1.8590  0.0864
21996SOL     OW66565   5.539   5.789   5.149  0.0451 -0.1704  0.1921
21996SOL    HW166566   5.484   5.858   5.113 -0.3860 -0.7457 -0.2616
21996SOL    HW266567   5.509   5.779   5.240 -0.6452 -0.5168 -0.0660
21997SOL     OW66568   0.369   5.189   2.565 -0.3201  0.4406  0.0508
21997SOL    HW166569   0.381   5.269   2.617  0.9288  0.3660 -0.1018
21997SOL    HW266570   0.418   5.206   2.485 -0.1545 -0.4343 -0.0356
21998SOL     OW66571   0.092   2.800   4.667 -0.3483  0.2573  0.3746
21998SOL    HW166572   0.026   2.769   4.605  1.6943 -1.2902 -1.1789
21998SOL    HW266573   0.060   2.771   4.753 -2.0133  0.2244 -0.2193
21999SOL     OW66574   8.148   8.926   0.760  0.2700 -0.4116  0.5717
21999SOL    HW166575   8.155   8.832   0.778  1.2399 -0.1263  1.8965
21999SOL    HW266576   8.072   8.954   0.812  0.3509 -0.3663  0.6665
22000SOL     OW66577   7.277   7.625   9.059 -0.1711 -0.4438  0.3088
22000SOL    HW166578   7.186   7.598   9.044  0.0896 -1.5826  0.6856
22000SOL    HW266579   7.270   7.704   9.114 -0.9251 -1.7457  2.2107
22001SOL     OW66580   7.268   8.332   4.194  0.0711  0.3993 -0.3992
22001SOL    HW166581   7.270   8.246   4.236  0.6710  0.8037  0.4343
22001SOL    HW266582   7.176   8.346   4.171 -0.4616  0.5761  1.6946
22002SOL     OW66583   0.065   4.405   6.775  0.2173  0.3548  0.1877
22002SOL    HW166584   0.093   4.318   6.747  4.2084  1.3447  0.4986
22002SOL    HW266585   0.102   4.416   6.862 -1.1194  2.0204  0.6157
22003SOL     OW66586   8.139   2.406   4.839  0.3027  0.0314  0.4395
22003SOL    HW166587   8.121   2.500   4.843 -0.9486 -0.0417 -1.6978
22003SOL    HW266588   8.186   2.395   4.756 -0.0161 -1.2846  0.4166
22004SOL     OW66589   7.048   2.308   7.814  0.3580  0.6475 -0.1940
22004SOL    HW166590   6.987   2.381   7.811  1.9814  2.0301 -1.1699
22004SOL    HW266591   7.056   2.287   7.907 -1.4071  0.5445 -0.0298
22005SOL     OW66592   4.542   4.517   9.900 -0.5023 -0.4895 -0.6763
22005SOL    HW166593   4.506   4.600   9.869 -0.7822  0.2003  1.3564
22005SOL    HW266594   4.530   4.520   9.995 -0.8865 -3.0270 -0.5796
22006SOL     OW66595   7.847   0.432   8.536 -0.0481 -0.2847  0.2415
22006SOL    HW166596   7.873   0.521   8.513  0.4949 -0.6609 -0.6362
22006SOL    HW266597   7.759   0.422   8.499  0.3580 -0.4953 -0.6885
22007SOL     OW66598   7.735   8.608   0.682 -0.2113  0.0211 -0.1489
22007SOL    HW166599   7.721   8.673   0.613  1.6071  0.7958  0.1371
22007SOL    HW266600   7.701   8.650   0.761  1.1980  0.8188  0.0865
22008SOL     OW66601   6.797   4.686   2.342 -0.1065  0.2793  0.3120
22008SOL    HW166602   6.802   4.764   2.287  0.5044 -0.1261 -0.2250
22008SOL    HW266603   6.862   4.700   2.410  0.0878  0.1907  0.1461
22009SOL     OW66604   1.704   9.812   1.419  0.0270 -0.0689  0.0912
22009SOL    HW166605   1.639   9.748   1.449  0.9187 -1.7239 -1.2996
22009SOL    HW266606   1.658   9.865   1.354 -1.0323  1.5131  2.0299
22010SOL     OW66607   5.813   3.603   3.814 -0.1230  0.1422 -0.0182
22010SOL    HW166608   5.781   3.688   3.784 -0.8504 -0.2725 -0.4580
22010SOL    HW266609   5.747   3.540   3.783  1.5937 -0.8982 -1.8934
22011SOL     OW66610   4.886   7.246   6.231  0.3687 -0.0212 -0.2507
22011SOL    HW166611   4.839   7.165   6.254  0.1005  0.2614  0.2003
22011SOL    HW266612   4.822   7.315   6.243  1.2376  0.5111  1.5654
22012SOL     OW66613   7.487   6.068   4.365  0.0872 -0.2010 -0.4019
22012SOL    HW166614   7.518   5.995   4.419  2.2774 -0.0025 -1.2845
22012SOL    HW266615   7.536   6.060   4.284 -0.8656  1.3110 -1.1744
22013SOL     OW66616   9.500   7.611   7.333 -0.5654  0.2695  0.8289
22013SOL    HW166617   9.463   7.684   7.382 -1.0391  1.1186 -0.7557
22013SOL    HW266618   9.463   7.533   7.375 -1.8807  1.0119  1.0813
22014SOL     OW66619   3.422   1.315   6.160 -0.0175 -0.0297  0.1444
22014SOL    HW166620   3.504   1.329   6.112 -0.6594  1.4056 -0.5998
22014SOL    HW266621   3.430   1.371   6.237 -0.6795  0.8679 -0.4257
22015SOL     OW66622   4.604   0.814   4.267  0.2481 -0.3655  0.4608
22015SOL    HW166623   4.632   0.856   4.185 -0.9284  2.1108  1.2334
22015SOL    HW266624   4.677   0.828   4.327  0.2383 -0.2712  0.4507
22016SOL     OW66625   4.883   9.674   4.361 -0.3435  0.4185 -0.1810
22016SOL    HW166626   4.919   9.725   4.434  0.9660 -0.5144 -0.1368
22016SOL    HW266627   4.826   9.609   4.403  1.8020 -1.3022  0.2591
22017SOL     OW66628   6.431   1.207   2.988 -0.3469  0.3024  0.4866
22017SOL    HW166629   6.422   1.236   3.078 -0.3984 -1.4143  1.0590
22017SOL    HW266630   6.421   1.112   2.991 -2.1690  0.3260 -1.5572
22018SOL     OW66631   2.448   0.702   7.092 -0.3921 -0.0365  0.1555
22018SOL    HW166632   2.440   0.748   7.175  0.6013 -0.5674  0.5630
22018SOL    HW266633   2.371   0.728   7.042 -0.1797  1.5704  0.6066
22019SOL     OW66634   1.313   1.801   6.523 -0.1757  0.4237  0.8655
22019SOL    HW166635   1.356   1.716   6.526  0.8119  0.9289  2.2117
22019SOL    HW266636   1.383   1.864   6.541 -1.1709  1.3897  1.4952
22020SOL     OW66637   4.095   1.183   2.035  0.0028 -0.2754  0.3860
22020SOL    HW166638   4.093   1.263   2.086  0.1681 -0.0535  0.0503
22020SOL    HW266639   4.157   1.201   1.964 -1.3096 -0.0589 -0.7467
22021SOL     OW66640   7.367   3.265   5.320  0.5355 -0.2298 -0.1161
22021SOL    HW166641   7.301   3.197   5.337  0.7154 -0.7375 -1.3620
22021SOL    HW266642   7.329   3.345   5.358 -0.3766 -0.7063 -0.0015
22022SOL     OW66643   7.174   1.122   6.934 -0.4711 -0.0763 -0.0092
22022SOL    HW166644   7.209   1.045   6.889  1.6034  0.0744  1.2274
22022SOL    HW266645   7.173   1.191   6.868  1.4883 -0.1410 -0.1620
22023SOL     OW66646   3.600   9.173   0.871  0.1188 -0.1780 -0.0917
22023SOL    HW166647   3.527   9.229   0.894  0.3535  0.4495 -0.8360
22023SOL    HW266648   3.624   9.130   0.954  0.3270  1.2754  0.6470
22024SOL     OW66649   4.399   3.803   2.752  0.7739  0.9117 -0.1193
22024SOL    HW166650   4.380   3.715   2.783 -0.0077  1.1788  0.1711
22024SOL    HW266651   4.334   3.859   2.794  0.9493  1.5611 -0.6816
22025SOL     OW66652   2.288   8.715   6.108  0.6465  0.3148 -0.5673
22025SOL    HW166653   2.268   8.808   6.106 -0.8132  0.0667  0.5956
22025SOL    HW266654   2.381   8.710   6.130  1.1104  1.4942 -2.1361
22026SOL     OW66655   6.427   0.812   6.601 -0.0864 -0.2698 -0.2299
22026SOL    HW166656   6.385   0.753   6.538 -0.2283  0.5263 -0.9029
22026SOL    HW266657   6.388   0.897   6.583  2.0158  0.5716 -1.0949
22027SOL     OW66658   8.318   6.853   1.862  0.2116  0.4424  0.0397
22027SOL    HW166659   8.249   6.893   1.809  0.5960 -0.0261 -0.8407
22027SOL    HW266660   8.372   6.806   1.799  0.1539 -0.9154  0.9574
22028SOL     OW66661   5.493   4.963   6.530  0.4480  0.5582 -0.6841
22028SOL    HW166662   5.566   5.004   6.485 -0.2532 -0.0919 -2.5320
22028SOL    HW266663   5.485   4.877   6.489 -1.1364  0.4865 -0.2969
22029SOL     OW66664   2.331   8.253   8.063 -0.5483  0.2403  0.0245
22029SOL    HW166665   2.363   8.239   7.974 -0.8342 -0.3495  0.0118
22029SOL    HW266666   2.410   8.268   8.115 -0.0696 -2.4731  0.2464
22030SOL     OW66667   1.771   5.613   1.874  1.0030 -0.5251 -0.0012
22030SOL    HW166668   1.748   5.705   1.864  1.7831 -0.2729  0.3969
22030SOL    HW266669   1.701   5.565   1.830 -1.2751  0.0912  2.7102
22031SOL     OW66670   7.416   7.346   4.495  0.0221 -0.7816  0.3432
22031SOL    HW166671   7.321   7.346   4.483  0.0998 -2.1058 -0.4918
22031SOL    HW266672   7.439   7.253   4.502  1.2816 -0.4865  0.2737
22032SOL     OW66673   2.505   4.021   7.876  0.0191  0.1181 -1.2410
22032SOL    HW166674   2.458   4.087   7.825 -1.6607  0.2907  0.4021
22032SOL    HW266675   2.487   3.938   7.832 -1.7531  0.2080 -0.7745
22033SOL     OW66676   3.563   4.213   4.576  0.1052 -0.0313  0.3492
22033SOL    HW166677   3.547   4.145   4.641 -2.8203  0.2223  0.0396
22033SOL    HW266678   3.485   4.212   4.521  0.5496  2.6936 -0.4832
22034SOL     OW66679   0.391   6.418   0.421 -0.2223 -0.1120 -0.3043
22034SOL    HW166680   0.315   6.409   0.364  0.8459 -0.0982 -1.8023
22034SOL    HW266681   0.464   6.435   0.361  1.6021 -3.4323  0.7109
22035SOL     OW66682   3.203   3.701   2.600 -0.0480 -0.6071  0.2152
22035SOL    HW166683   3.233   3.710   2.690 -0.1614 -0.7967  0.2727
22035SOL    HW266684   3.165   3.614   2.596 -3.5324  0.6878  1.0394
22036SOL     OW66685   3.301   0.681   9.163 -0.4742  0.3183  0.4160
22036SOL    HW166686   3.221   0.661   9.212 -1.0259 -0.3873 -0.7475
22036SOL    HW266687   3.285   0.646   9.076 -0.0569  2.7073 -0.7048
22037SOL     OW66688   9.351   8.152   2.526 -0.3381 -0.0941 -0.5170
22037SOL    HW166689   9.297   8.073   2.522 -1.0712  0.3996 -0.5293
22037SOL    HW266690   9.324   8.204   2.451 -1.3816  1.1178  0.6488
22038SOL     OW66691   4.908   2.773   8.327  0.0438  0.0722 -0.4906
22038SOL    HW166692   4.978   2.715   8.297 -1.0511 -1.4715 -0.2094
22038SOL    HW266693   4.945   2.818   8.403  0.4646 -1.4033  0.2191
22039SOL     OW66694   8.563   3.914   0.274 -0.1455 -0.3616  0.0668
22039SOL    HW166695   8.649   3.871   0.281 -0.4291 -0.7103  1.7165
22039SOL    HW266696   8.542   3.909   0.181  2.3273  1.1428 -0.6870
22040SOL     OW66697   2.225   7.623   1.027 -0.4074  0.2856  0.3870
22040SOL    HW166698   2.203   7.530   1.021  1.8559 -0.3882  1.5547
22040SOL    HW266699   2.308   7.625   1.074  0.1850  2.8439 -0.6224
22041SOL     OW66700   7.391   0.508   0.285  0.1491  0.0749  0.0422
22041SOL    HW166701   7.461   0.449   0.259  0.3838  0.3621  0.0206
22041SOL    HW266702   7.404   0.521   0.379  1.6244  2.0707 -0.3829
22042SOL     OW66703   0.544   9.847   7.136 -0.7187  0.4658 -0.1949
22042SOL    HW166704   0.546   9.756   7.166  0.8207 -0.0957 -1.7832
22042SOL    HW266705   0.496   9.844   7.053 -1.1030  1.1910 -0.0075
22043SOL     OW66706   6.187   0.943   9.255 -0.1685  0.2643 -0.1346
22043SOL    HW166707   6.238   0.919   9.178 -1.1285 -0.6089 -0.5079
22043SOL    HW266708   6.133   0.866   9.274 -0.5473  0.7636  0.9161
22044SOL     OW66709   8.480   5.668   7.412 -0.0789 -0.6388  0.5484
22044SOL    HW166710   8.569   5.657   7.446 -0.3382 -2.0099  0.8432
22044SOL    HW266711   8.438   5.728   7.473  1.0620  1.2583 -0.4355
22045SOL     OW66712   4.700   0.135   0.380  0.0316  0.7657 -0.7666
22045SOL    HW166713   4.748   0.113   0.300 -1.0217  1.4167 -1.6178
22045SOL    HW266714   4.719   0.063   0.441 -1.3346 -1.2751 -2.5745
22046SOL     OW66715   8.373   3.165   7.469  0.0871 -0.0867  0.2903
22046SOL    HW166716   8.447   3.111   7.443 -0.0269  0.2589 -0.7848
22046SOL    HW266717   8.407   3.255   7.468  0.1715 -0.0774  1.6862
22047SOL     OW66718   0.401   1.872   5.846  0.5648  0.1359 -0.3168
22047SOL    HW166719   0.409   1.859   5.752 -0.3574 -1.8190 -0.1718
22047SOL    HW266720   0.440   1.794   5.885  0.7918  0.8399  0.9421
22048SOL     OW66721   9.812   8.019   1.295 -0.1381  0.4404  0.5159
22048SOL    HW166722   9.841   8.014   1.387  0.9728  1.0852  0.2189
22048SOL    HW266723   9.892   8.018   1.244 -0.7607 -0.3223 -0.4969
22049SOL     OW66724   7.401   6.663   3.786  0.2348 -0.8203 -0.6766
22049SOL    HW166725   7.322   6.708   3.815 -1.1455 -1.6937 -2.8407
22049SOL    HW266726   7.412   6.591   3.849 -0.9381 -0.9309 -0.5802
22050SOL     OW66727   4.779   1.679   5.799  0.5185  0.0837 -0.0951
22050SOL    HW166728   4.835   1.682   5.721  0.7642  1.6645  0.1015
22050SOL    HW266729   4.692   1.658   5.764  0.9665 -1.0281 -0.5676
22051SOL     OW66730   9.908   5.998   6.184  0.2741  0.3440 -0.2335
22051SOL    HW166731   9.957   6.001   6.265  0.3027 -0.9595 -0.1878
22051SOL    HW266732   9.816   6.004   6.211  0.3400  2.7722 -0.3190
22052SOL     OW66733   9.550   0.851   5.344 -0.5946 -0.7536 -0.3674
22052SOL    HW166734   9.484   0.791   5.378 -1.5798 -0.1717 -1.1842
22052SOL    HW266735   9.525   0.936   5.380 -0.2660 -0.5346 -0.6524
22053SOL     OW66736   8.137   3.619   7.274 -0.2775 -0.2785  0.3165
22053SOL    HW166737   8.083   3.570   7.337 -0.3459 -2.1782 -1.1436
22053SOL    HW266738   8.074   3.658   7.214 -0.1375  0.0076  0.3544
22054SOL     OW66739   2.206   5.531   4.008  0.9446 -0.2489 -0.3403
22054SOL    HW166740   2.238   5.486   4.086 -1.1748 -0.8046  0.2905
22054SOL    HW266741   2.135   5.587   4.041 -0.4792 -1.0291 -1.9472
22055SOL     OW66742   8.481   2.084   1.146  0.5771 -0.0158  0.6168
22055SOL    HW166743   8.504   2.090   1.238  0.7403 -0.1046  0.5807
22055SOL    HW266744   8.562   2.103   1.099  0.1979  1.4364  0.4800
22056SOL     OW66745   5.797   5.783   8.609 -0.0884  0.1465 -0.5110
22056SOL    HW166746   5.749   5.704   8.633  0.1701  0.1749  0.1248
22056SOL    HW266747   5.793   5.838   8.688 -1.8309  1.5585 -1.4981
22057SOL     OW66748   5.937   6.105   6.922 -0.0048 -1.0111 -0.2877
22057SOL    HW166749   5.847   6.074   6.930  0.5570 -2.4021  1.0877
22057SOL    HW266750   5.975   6.052   6.852  0.0068 -1.0681 -0.2375
22058SOL     OW66751   3.059   4.139   4.755  0.0466 -0.4901 -0.5573
22058SOL    HW166752   3.148   4.146   4.789 -0.1276  0.2930 -0.2371
22058SOL    HW266753   3.006   4.109   4.829  0.0496 -1.0162 -0.7632
22059SOL     OW66754   8.565   4.268   2.412 -0.4987  0.1629 -0.3071
22059SOL    HW166755   8.486   4.272   2.466  0.4506  0.6828  1.1077
22059SOL    HW266756   8.548   4.329   2.340 -1.3677  0.2875 -0.0111
22060SOL     OW66757   4.210   8.688   6.169  0.1558  0.1301  0.3882
22060SOL    HW166758   4.222   8.602   6.208  2.0028  0.1497 -0.0333
22060SOL    HW266759   4.282   8.740   6.204 -0.2268  1.1606 -0.3034
22061SOL     OW66760   2.303   7.559   1.687  0.7130  0.4421 -0.2672
22061SOL    HW166761   2.238   7.489   1.693  0.7638  0.5056  1.9137
22061SOL    HW266762   2.336   7.554   1.598 -1.0210 -0.7343 -0.8823
22062SOL     OW66763   3.417   8.340   9.183 -0.0827  0.1013 -0.0928
22062SOL    HW166764   3.403   8.383   9.267  0.0601 -0.4961  0.2447
22062SOL    HW266765   3.504   8.369   9.155 -0.4732  0.9624 -0.4476
22063SOL     OW66766   8.599   7.387   0.992  0.4890  0.2514  0.6584
22063SOL    HW166767   8.676   7.362   1.044  1.4973 -1.2930 -1.4596
22063SOL    HW266768   8.623   7.470   0.952  0.2250  0.7806  1.5600
22064SOL     OW66769   6.374   6.818   4.612  0.0860 -0.1710  0.2873
22064SOL    HW166770   6.323   6.897   4.603  1.5683  1.1385  2.4372
22064SOL    HW266771   6.422   6.810   4.530 -0.9885  0.4469 -0.4112
22065SOL     OW66772   2.683   5.460   6.631  0.8428 -0.3346  0.4553
22065SOL    HW166773   2.615   5.394   6.622  0.1358  0.5002 -0.5027
22065SOL    HW266774   2.750   5.435   6.567  1.8675 -1.6184  1.9591
22066SOL     OW66775   1.292   7.094   7.285  0.4545  0.5130  0.5102
22066SOL    HW166776   1.323   7.079   7.196 -0.4244 -2.0381  0.5433
22066SOL    HW266777   1.361   7.145   7.326  0.6530  2.2290 -1.7443
22067SOL     OW66778   1.869   4.645   7.082 -0.1894 -0.2377 -0.1033
22067SOL    HW166779   1.796   4.583   7.074 -0.9079  0.7371 -1.4123
22067SOL    HW266780   1.938   4.595   7.125 -1.3538 -1.4257  0.4353
22068SOL     OW66781   3.134   4.928   2.508  0.3328 -0.6184  0.6371
22068SOL    HW166782   3.162   4.836   2.510 -0.5634 -0.8971  1.6402
22068SOL    HW266783   3.150   4.956   2.418  0.2313 -1.8937  0.1974
22069SOL     OW66784   4.856   6.719   1.433  0.2755  0.0590  0.2842
22069SOL    HW166785   4.911   6.753   1.503 -1.1135  1.4553  0.7570
22069SOL    HW266786   4.845   6.793   1.374  0.2665 -0.6963 -0.6916
22070SOL     OW66787   8.611   7.588   9.579 -0.7276  0.0576  0.5476
22070SOL    HW166788   8.656   7.673   9.576 -0.2761 -0.1821  0.4476
22070SOL    HW266789   8.663   7.531   9.522 -2.6868  0.4751 -1.7912
22071SOL     OW66790   0.897   5.348   8.736  0.1350 -0.3937 -0.5743
22071SOL    HW166791   0.943   5.265   8.726 -0.3876 -0.6795 -0.6707
22071SOL    HW266792   0.824   5.343   8.673  0.9991  0.7938 -1.7216
22072SOL     OW66793   0.028   9.153   4.740  0.0895 -0.4727 -0.2462
22072SOL    HW166794   0.115   9.167   4.777  0.3954  0.6091 -1.3130
22072SOL    HW266795   0.008   9.233   4.692 -0.8667 -1.2664 -1.2545
22073SOL     OW66796   3.967   3.524   6.966 -0.3366  0.3908 -0.4924
22073SOL    HW166797   3.944   3.616   6.953 -2.2814 -0.0481 -0.5655
22073SOL    HW266798   3.883   3.477   6.957  0.5594 -1.3585 -0.2124
22074SOL     OW66799   6.250   2.511   8.202 -0.0483  0.2171 -0.0727
22074SOL    HW166800   6.240   2.417   8.186  2.4294 -0.5597  2.0616
22074SOL    HW266801   6.233   2.521   8.296  2.8988  1.2087  0.4675
22075SOL     OW66802   2.335   1.516   2.781 -0.1660 -0.1149 -0.4579
22075SOL    HW166803   2.265   1.473   2.828 -0.0967 -1.1033 -1.2172
22075SOL    HW266804   2.342   1.467   2.699  0.4657  0.8478 -0.9968
22076SOL     OW66805   4.357   4.152   1.760  0.3108  0.2801 -0.2290
22076SOL    HW166806   4.415   4.077   1.752  1.1137  0.8958 -0.3707
22076SOL    HW266807   4.335   4.175   1.669 -0.9320 -0.5220 -0.1492
22077SOL     OW66808   8.291   4.672   4.924  0.5573  0.1792 -0.1228
22077SOL    HW166809   8.209   4.694   4.967 -0.2978  0.0201 -1.5898
22077SOL    HW266810   8.356   4.728   4.966 -0.4515  0.9271  0.4873
22078SOL     OW66811   9.416   8.266   9.076 -0.5698 -0.0199 -0.5620
22078SOL    HW166812   9.497   8.296   9.036 -0.7235 -1.4101 -1.9982
22078SOL    HW266813   9.409   8.174   9.051 -2.6234  0.0869 -0.5304
22079SOL     OW66814   3.683   7.553   5.410  0.1349  0.0673 -0.0203
22079SOL    HW166815   3.759   7.580   5.461 -1.2103  0.5071  1.8322
22079SOL    HW266816   3.717   7.489   5.348  2.2503  1.2731 -0.2019
22080SOL     OW66817   7.635   0.391   0.128 -0.1433 -0.2351  0.5988
22080SOL    HW166818   7.686   0.312   0.146 -0.3905 -0.4447  0.3802
22080SOL    HW266819   7.660   0.414   0.038 -1.2077 -0.9286  0.1065
22081SOL     OW66820   7.749   9.579   8.525 -0.7404  0.6271  0.2516
22081SOL    HW166821   7.746   9.485   8.542 -1.7715  0.8142  1.1473
22081SOL    HW266822   7.660   9.610   8.541 -0.9031  1.4586 -1.8797
22082SOL     OW66823   7.344   2.774   1.202 -0.1904  0.2492  0.0469
22082SOL    HW166824   7.334   2.694   1.253 -0.0629  0.1568 -0.0730
22082SOL    HW266825   7.272   2.830   1.231 -0.2911  0.0839  0.1169
22083SOL     OW66826   8.912   6.504   6.643 -0.1384  0.0346  0.8150
22083SOL    HW166827   8.970   6.458   6.583 -1.3121  0.7343 -0.9475
22083SOL    HW266828   8.825   6.466   6.626 -0.5208  0.3457  1.9860
22084SOL     OW66829   6.021   4.736   2.592  0.2499  0.5084  0.0254
22084SOL    HW166830   5.997   4.644   2.599  0.1417  0.6091  1.1292
22084SOL    HW266831   6.115   4.735   2.577  0.2421  0.2214 -0.0139
22085SOL     OW66832   5.385   1.889   5.456 -0.3781 -0.5656 -0.5590
22085SOL    HW166833   5.460   1.830   5.449  0.8084  0.4244  2.3706
22085SOL    HW266834   5.390   1.943   5.376  1.4172 -1.2072 -0.9235
22086SOL     OW66835   0.288   4.442   4.634  0.1533 -0.4971 -0.0695
22086SOL    HW166836   0.307   4.490   4.554  1.2841  0.2979  0.6516
22086SOL    HW266837   0.208   4.483   4.668  0.0742 -0.3633 -0.4147
22087SOL     OW66838   9.281   2.332   8.116  0.0706 -0.6221 -0.0908
22087SOL    HW166839   9.202   2.337   8.170 -0.9097  0.5450 -1.5609
22087SOL    HW266840   9.250   2.334   8.026  1.7683 -0.3975 -0.7176
22088SOL     OW66841   9.092   3.948   5.398 -0.6214 -0.2505 -0.3381
22088SOL    HW166842   9.081   3.872   5.341  1.1688 -0.0209 -1.0717
22088SOL    HW266843   9.187   3.956   5.407 -0.8128 -0.4994  3.0052
22089SOL     OW66844   9.643   6.865   2.580  0.3369  0.3549 -0.3706
22089SOL    HW166845   9.634   6.828   2.492  1.7364 -1.3468  0.1588
22089SOL    HW266846   9.689   6.948   2.565 -2.0203  1.5775 -1.4716
22090SOL     OW66847   3.795   9.953   1.028 -0.3588 -0.1661  0.4762
22090SOL    HW166848   3.803   9.980   0.936 -4.4414  0.3468  0.0841
22090SOL    HW266849   3.844   9.871   1.033 -1.4046 -1.1630 -2.6922
22091SOL     OW66850   1.842   3.304   0.191  0.2493 -0.5438  0.2370
22091SOL    HW166851   1.842   3.243   0.264 -2.4818 -0.7236  0.1669
22091SOL    HW266852   1.755   3.343   0.192  1.0088  1.3687 -1.3746
22092SOL     OW66853   4.789   8.445   4.112  0.3266  0.0966  0.4442
22092SOL    HW166854   4.863   8.389   4.092  1.4798  1.6938  0.0756
22092SOL    HW266855   4.744   8.456   4.028  1.1656  1.1696  0.1093
22093SOL     OW66856   3.685   6.352   6.533  0.1393  0.6868  0.2290
22093SOL    HW166857   3.677   6.275   6.589  2.4864  1.2966  1.5632
22093SOL    HW266858   3.602   6.399   6.544 -1.2843 -1.5093 -0.5090
22094SOL     OW66859   9.812   8.532   2.395 -0.1694  0.1142 -0.0664
22094SOL    HW166860   9.797   8.624   2.374  1.6633  0.6264  0.6127
22094SOL    HW266861   9.735   8.505   2.444 -0.7416  1.2848 -0.2913
22095SOL     OW66862   7.271   1.466   6.263 -0.4965  0.3456  0.2575
22095SOL    HW166863   7.181   1.493   6.247  0.0195  2.4131  0.5816
22095SOL    HW266864   7.291   1.404   6.192 -1.7175  0.9527 -0.6418
22096SOL     OW66865   9.593   6.817   9.149  0.1280  0.4722  0.0965
22096SOL    HW166866   9.668   6.760   9.168 -0.1069  0.3831  0.8060
22096SOL    HW266867   9.628   6.906   9.157  0.1593  0.4316  0.4759
22097SOL     OW66868   1.011   7.289   5.202 -0.0281 -0.0241 -0.1515
22097SOL    HW166869   0.987   7.318   5.114 -0.6586  1.5907  0.5210
22097SOL    HW266870   1.083   7.347   5.227  0.4345 -0.7567  0.2444
22098SOL     OW66871   0.834   4.109   1.561  0.4437 -0.0741  0.4151
22098SOL    HW166872   0.862   4.163   1.486 -1.8763  2.3377  1.1310
22098SOL    HW266873   0.914   4.097   1.612  1.4644  0.8987 -0.8728
22099SOL     OW66874   5.203   0.327   5.898 -0.1937 -0.2015 -0.0675
22099SOL    HW166875   5.151   0.323   5.818 -0.0570 -1.8006 -0.1002
22099SOL    HW266876   5.155   0.388   5.955 -1.3096 -0.5177 -0.6472
22100SOL     OW66877   2.853   9.330   1.982 -0.1840 -0.2726 -0.1536
22100SOL    HW166878   2.839   9.394   2.052  0.4549 -0.5060  0.1936
22100SOL    HW266879   2.775   9.274   1.985  0.6993 -1.5038  1.6978
22101SOL     OW66880   9.706   2.808   4.076  0.0057  0.2433 -0.2625
22101SOL    HW166881   9.782   2.751   4.081 -0.1662 -0.0744 -1.0440
22101SOL    HW266882   9.740   2.893   4.049  0.3913  0.8123  1.8982
22102SOL     OW66883   3.662   1.258   7.625 -0.3177  0.4189 -0.2153
22102SOL    HW166884   3.633   1.208   7.549  0.8769  1.6015 -1.4824
22102SOL    HW266885   3.741   1.213   7.655  0.1934  0.9474 -0.7485
22103SOL     OW66886   7.553   2.909   9.306 -0.3128  0.9097  0.1123
22103SOL    HW166887   7.551   3.004   9.319 -0.0561  0.9358 -0.0336
22103SOL    HW266888   7.470   2.878   9.343 -0.2430  1.1490  0.4687
22104SOL     OW66889   8.961   5.825   4.068 -0.1917  0.0077 -0.0238
22104SOL    HW166890   8.934   5.774   3.991  0.7345 -1.6404  0.7001
22104SOL    HW266891   8.883   5.827   4.123 -0.2745 -0.5639 -0.1073
22105SOL     OW66892   4.798   7.732   5.844  0.0140  0.1762 -0.2713
22105SOL    HW166893   4.884   7.766   5.817 -0.6517  0.9830 -1.4941
22105SOL    HW266894   4.751   7.809   5.875 -0.3497 -0.2237  0.1765
22106SOL     OW66895   5.387   4.052   0.559 -0.4045 -0.0437  0.1146
22106SOL    HW166896   5.320   3.985   0.545 -1.1983  0.7628 -0.0893
22106SOL    HW266897   5.428   4.063   0.473  0.2693 -0.8158  0.3294
22107SOL     OW66898   0.628   1.330   7.894 -0.3020  0.1159 -0.6889
22107SOL    HW166899   0.537   1.346   7.871  0.0423  0.3307 -2.0116
22107SOL    HW266900   0.647   1.394   7.963 -1.2609 -0.2456 -0.0718
22108SOL     OW66901   8.636   3.256   8.005  0.5010 -0.1316  0.2323
22108SOL    HW166902   8.580   3.220   8.074 -0.8092  0.9611 -0.2158
22108SOL    HW266903   8.688   3.181   7.975 -0.8500 -1.2426  0.5417
22109SOL     OW66904   0.411   0.169   3.709 -0.1790 -0.6972 -0.4524
22109SOL    HW166905   0.484   0.227   3.733 -0.9229 -0.2901  0.9831
22109SOL    HW266906   0.435   0.135   3.623  0.8695  0.8016 -0.8121
22110SOL     OW66907   2.075   3.141   1.794 -0.3301  0.0842 -0.0233
22110SOL    HW166908   2.072   3.178   1.883  0.8504 -0.1674  0.1411
22110SOL    HW266909   1.987   3.156   1.759 -0.3978  1.4959  0.6594
22111SOL     OW66910   7.362   9.454   0.366 -0.1197 -1.0349  0.1434
22111SOL    HW166911   7.343   9.528   0.308 -0.0133 -1.7577 -0.8474
22111SOL    HW266912   7.352   9.489   0.454 -1.4178 -0.1994 -0.3135
22112SOL     OW66913   2.140   8.447   0.187  0.4581  0.5051  0.1344
22112SOL    HW166914   2.074   8.488   0.243  0.5072  2.0698 -0.9038
22112SOL    HW266915   2.211   8.423   0.247  0.0267  1.1232  0.9061
22113SOL     OW66916   9.597   2.488   3.110 -0.2444  0.3765 -0.1311
22113SOL    HW166917   9.595   2.406   3.159 -1.2490  1.3589  1.5604
22113SOL    HW266918   9.524   2.539   3.145  0.2007  1.9074 -1.3133
22114SOL     OW66919   2.020   9.447   8.348 -0.2187 -0.4748 -0.6363
22114SOL    HW166920   2.114   9.434   8.338 -0.1719 -0.8488  0.1778
22114SOL    HW266921   2.012   9.516   8.414 -0.5172 -0.8654 -0.2597
22115SOL     OW66922   0.836   3.864   0.690 -0.3948 -0.2952 -0.2455
22115SOL    HW166923   0.820   3.941   0.744  2.7736 -0.9953  1.9568
22115SOL    HW266924   0.931   3.854   0.689 -0.6050 -5.1195  1.0686
22116SOL     OW66925   9.496   3.297   5.002  0.3973  0.3031 -0.1604
22116SOL    HW166926   9.429   3.344   4.952  0.7336  1.3078  0.3046
22116SOL    HW266927   9.455   3.278   5.086  0.0768 -0.7395 -0.5450
22117SOL     OW66928   1.537   1.172   2.426  0.0913  0.3763  0.1170
22117SOL    HW166929   1.541   1.077   2.422  0.1662  0.4155 -0.7756
22117SOL    HW266930   1.618   1.202   2.385  1.4625  0.8130  2.9078
22118SOL     OW66931   1.770   8.275   7.899  0.2469  0.4414  0.3656
22118SOL    HW166932   1.692   8.284   7.845  1.6169  1.4153 -1.5634
22118SOL    HW266933   1.758   8.339   7.969 -0.9422  0.1471  0.4520
22119SOL     OW66934   1.706   2.051   8.567 -0.1041 -0.1709  0.2117
22119SOL    HW166935   1.659   2.123   8.610 -0.4918  0.6791 -1.5616
22119SOL    HW266936   1.788   2.044   8.616 -0.9255  0.0993  1.6812
22120SOL     OW66937   4.084   2.163   7.637  0.6197 -0.0848 -0.4126
22120SOL    HW166938   4.032   2.099   7.685  0.7424 -0.1193 -0.3280
22120SOL    HW266939   4.175   2.142   7.657  0.6694 -0.0363 -0.5775
22121SOL     OW66940   8.025   9.857   0.319 -0.4337  0.1163  0.6780
22121SOL    HW166941   8.097   9.921   0.310 -0.2698 -0.1774 -0.1165
22121SOL    HW266942   8.003   9.860   0.412 -1.2846  2.2726  0.4688
22122SOL     OW66943   5.161   2.211   4.484 -0.7415  0.1191 -0.1897
22122SOL    HW166944   5.212   2.288   4.509 -1.3532 -0.5428  3.8009
22122SOL    HW266945   5.081   2.246   4.446 -0.2639  1.4044 -0.0554
22123SOL     OW66946   1.063   3.790   6.867  0.1329 -0.1312  0.4304
22123SOL    HW166947   1.148   3.825   6.897  1.4727 -1.1559 -1.9355
22123SOL    HW266948   1.072   3.783   6.772 -3.0018  0.6335 -0.0414
22124SOL     OW66949   2.267   9.122   7.205  0.1107  0.1664  0.2799
22124SOL    HW166950   2.327   9.072   7.260 -0.4214 -1.1183 -0.2675
22124SOL    HW266951   2.263   9.209   7.246 -0.1226 -0.6739  2.1353
22125SOL     OW66952   3.264   3.150   5.475  0.1969 -0.6336 -0.1118
22125SOL    HW166953   3.180   3.134   5.432  0.0818 -2.5880  0.7322
22125SOL    HW266954   3.306   3.064   5.478  2.0417  0.2347 -0.1000
22126SOL     OW66955   5.778   8.730   9.213 -0.0924 -0.5966 -0.1523
22126SOL    HW166956   5.761   8.813   9.257 -0.0985 -0.1752 -0.9335
22126SOL    HW266957   5.762   8.663   9.280  0.2791  0.0461  0.5924
22127SOL     OW66958   9.289   8.394   8.518 -0.4834  0.7637 -0.2578
22127SOL    HW166959   9.344   8.473   8.518  0.5705  0.0508 -0.5475
22127SOL    HW266960   9.266   8.382   8.610  3.1862 -1.1230  0.5875
22128SOL     OW66961   8.847   6.918   5.595 -0.1334  0.4433  0.0258
22128SOL    HW166962   8.803   6.869   5.525 -0.1883  0.5402 -0.0077
22128SOL    HW266963   8.896   6.852   5.643  0.4408  0.4709 -0.5027
22129SOL     OW66964   6.693   1.510   4.275  0.5614 -0.4561 -0.2473
22129SOL    HW166965   6.740   1.458   4.340 -0.4943  0.2700  1.1530
22129SOL    HW266966   6.622   1.453   4.245  0.0076 -0.2079  0.5490
22130SOL     OW66967   5.628   0.681   1.280 -0.7656 -0.2830 -0.0120
22130SOL    HW166968   5.637   0.739   1.356 -1.8017 -1.1359  0.7912
22130SOL    HW266969   5.584   0.734   1.214  1.5105  0.9705 -0.6431
22131SOL     OW66970   7.150   7.575   4.926  0.5329  0.0885  0.7522
22131SOL    HW166971   7.204   7.649   4.898  0.8548 -0.7471 -0.9917
22131SOL    HW266972   7.098   7.609   4.999 -1.0851  2.7867 -1.4691
22132SOL     OW66973   8.213   4.713   2.728 -0.5236  0.1434 -0.9534
22132SOL    HW166974   8.170   4.760   2.799  0.5659  0.5227 -0.5392
22132SOL    HW266975   8.149   4.717   2.656 -1.0953  0.8881 -0.4272
22133SOL     OW66976   2.576   8.897   2.824  0.6375 -0.2203  0.1877
22133SOL    HW166977   2.550   8.945   2.745  0.8999 -0.6828 -0.1834
22133SOL    HW266978   2.538   8.948   2.896 -0.2138 -0.1828 -0.2681
22134SOL     OW66979   0.893   5.040   7.696  0.0938  0.2723  0.6223
22134SOL    HW166980   0.959   4.971   7.691  1.5985  1.7368 -2.8509
22134SOL    HW266981   0.834   5.022   7.622 -1.0677  1.2425  1.2716
22135SOL     OW66982   2.251   7.616   0.044 -0.1059 -0.3493 -0.1033
22135SOL    HW166983   2.329   7.627   0.099 -0.1916  0.3112 -0.1098
22135SOL    HW266984   2.282   7.567  -0.032  0.1874 -0.5621  0.1503
22136SOL     OW66985   0.927   3.163   1.735 -0.1683 -0.5978  0.7041
22136SOL    HW166986   0.854   3.131   1.787 -2.4983 -0.5792 -2.2325
22136SOL    HW266987   0.896   3.247   1.700  0.4141 -1.4104 -2.0253
22137SOL     OW66988   9.783   8.313   7.074 -0.1969  0.5063  0.4866
22137SOL    HW166989   9.787   8.284   6.983 -0.2212 -0.6999  0.8591
22137SOL    HW266990   9.779   8.409   7.068 -2.7063  0.3949 -0.8573
22138SOL     OW66991   7.690   7.010   0.712 -0.0026  0.0544 -0.3379
22138SOL    HW166992   7.733   7.058   0.782  0.8454 -1.6250  0.3598
22138SOL    HW266993   7.610   6.975   0.752 -0.5314  0.6964 -0.7936
22139SOL     OW66994   5.296   3.692   5.044  0.1496 -0.0511 -0.3987
22139SOL    HW166995   5.284   3.787   5.036 -1.1388 -0.3175 -2.5925
22139SOL    HW266996   5.209   3.659   5.066  0.5197 -0.7544  0.0263
22140SOL     OW66997   3.642   2.112   1.965 -0.3491  0.5910  0.2397
22140SOL    HW166998   3.639   2.019   1.984  1.1974  0.3491 -0.5322
22140SOL    HW266999   3.715   2.146   2.017  0.7679  0.8401 -1.4112
22141SOL     OW67000   6.173   4.426   0.315 -0.4412 -0.2818 -0.1320
22141SOL    HW167001   6.219   4.394   0.238  0.3634 -0.4910  0.4229
22141SOL    HW267002   6.221   4.390   0.389  0.1817  1.7456  0.5201
22142SOL     OW67003   1.788   8.036   6.377 -0.2146  0.5516 -0.0894
22142SOL    HW167004   1.697   8.017   6.401  0.0561  0.6906  1.1098
22142SOL    HW267005   1.836   7.956   6.398  0.0270  0.6752 -0.1697
22143SOL     OW67006   9.706   2.709   9.070  0.1708  0.5009 -0.3834
22143SOL    HW167007   9.651   2.655   9.014  0.0648 -1.8645  1.8152
22143SOL    HW267008   9.646   2.745   9.135  0.8898 -0.4060  0.8016
22144SOL     OW67009   0.223   4.279   6.570  0.0467  0.6494  0.5026
22144SOL    HW167010   0.241   4.268   6.476 -0.4833 -1.2985  0.5773
22144SOL    HW267011   0.259   4.365   6.591 -0.4708  1.4684 -1.6315
22145SOL     OW67012   9.437   3.989   3.147  0.7510 -0.5252  0.0237
22145SOL    HW167013   9.434   3.991   3.052 -0.1650 -0.2565  0.0452
22145SOL    HW267014   9.452   3.897   3.169 -1.7164 -1.1120 -0.3632
22146SOL     OW67015   8.932   4.138   8.133 -0.5743  0.0318  0.0662
22146SOL    HW167016   8.933   4.177   8.046 -0.2788  1.9485  0.8727
22146SOL    HW267017   8.845   4.100   8.142 -1.7171  2.4480 -0.0110
22147SOL     OW67018   1.924   1.020   8.203 -0.8789  0.4194  0.8008
22147SOL    HW167019   1.992   1.079   8.235 -0.8895  0.8083  0.1282
22147SOL    HW267020   1.848   1.076   8.188 -0.4477  0.5449 -1.2580
22148SOL     OW67021   0.117   6.906   5.500  0.5033 -0.3134 -0.1695
22148SOL    HW167022   0.116   6.834   5.563  2.3929  0.4891  0.8515
22148SOL    HW267023   0.200   6.897   5.454  1.6660  2.1252  1.2100
22149SOL     OW67024   7.330   4.673   9.101  0.0118  0.3717 -0.2144
22149SOL    HW167025   7.272   4.724   9.045 -1.2268 -0.4138  0.3113
22149SOL    HW267026   7.282   4.662   9.183  0.4347 -1.2036 -0.1343
22150SOL     OW67027   0.693   3.626   0.763  0.7652  0.8963 -0.4864
22150SOL    HW167028   0.752   3.696   0.735 -0.8723  2.2365 -0.7737
22150SOL    HW267029   0.740   3.545   0.742  1.6266  1.8682 -2.6683
22151SOL     OW67030   1.827   6.367   6.112 -0.2867 -0.1167  0.2324
22151SOL    HW167031   1.858   6.286   6.152 -1.6567 -0.7261  0.1339
22151SOL    HW267032   1.859   6.362   6.021  0.1678 -0.2306  0.3942
22152SOL     OW67033   2.781   0.327   9.058  0.2539 -0.6031 -0.1025
22152SOL    HW167034   2.831   0.273   9.120 -1.6415  0.1669  2.2598
22152SOL    HW267035   2.700   0.278   9.043  0.0116 -0.0365 -0.6915
22153SOL     OW67036   3.589   2.580   5.651 -0.1313 -0.4041 -0.6141
22153SOL    HW167037   3.541   2.653   5.613 -1.1175  0.0687  1.4542
22153SOL    HW267038   3.525   2.509   5.657 -0.7729  0.3207  2.4358
22154SOL     OW67039   9.441   8.847   5.430  0.0760 -0.1079  0.0400
22154SOL    HW167040   9.422   8.753   5.423  0.2999 -0.3049  1.6325
22154SOL    HW267041   9.536   8.852   5.439  0.4215  0.5315 -3.0303
22155SOL     OW67042   9.333   1.905   0.538 -0.3540 -0.2882  0.2993
22155SOL    HW167043   9.320   1.897   0.633  0.5076 -1.5660  0.3324
22155SOL    HW267044   9.424   1.933   0.529 -0.3919 -0.3147 -0.1692
22156SOL     OW67045   7.859   4.314   3.248  0.2305  0.0826  0.3617
22156SOL    HW167046   7.912   4.346   3.321 -0.2160 -1.8247  1.5968
22156SOL    HW267047   7.773   4.355   3.261 -0.3991 -1.6183  2.0367
22157SOL     OW67048   4.914   1.201   8.752 -0.2640 -0.3236  0.2207
22157SOL    HW167049   4.844   1.162   8.699 -1.0575  0.3718  0.7301
22157SOL    HW267050   4.889   1.180   8.843 -0.4543  0.9400  0.4766
22158SOL     OW67051   7.167   9.958   3.578 -0.4307  0.7997  0.0741
22158SOL    HW167052   7.140   9.911   3.657  0.1035  0.2607 -0.0625
22158SOL    HW267053   7.180   9.889   3.512 -1.2016  1.2656 -0.5942
22159SOL     OW67054   4.017   8.941   7.854  0.8432  0.1180 -0.1636
22159SOL    HW167055   3.974   8.961   7.938 -0.2368  0.5981 -0.8160
22159SOL    HW267056   4.061   8.857   7.870 -0.3823 -0.4308  0.5380
22160SOL     OW67057   8.118   8.235   2.531 -0.3073  0.5304  0.2500
22160SOL    HW167058   8.158   8.156   2.567 -2.1166 -0.0786  1.0412
22160SOL    HW267059   8.026   8.228   2.554 -0.5196  2.9161  0.3948
22161SOL     OW67060   6.337   4.339   0.107 -0.4773  0.1194 -0.1069
22161SOL    HW167061   6.413   4.339   0.165  0.0940  0.8323 -0.8315
22161SOL    HW267062   6.373   4.359   0.021 -1.3422 -0.7058 -0.6781
22162SOL     OW67063   4.731   2.249   7.952 -0.7089 -0.1137  0.0817
22162SOL    HW167064   4.796   2.208   8.008  1.3311  1.0744 -1.3029
22162SOL    HW267065   4.647   2.214   7.983  0.6876 -3.3177  0.6261
22163SOL     OW67066   1.645   4.988   6.497 -0.1606 -0.2449 -0.1253
22163SOL    HW167067   1.611   5.022   6.414 -1.9064  2.5692  1.5683
22163SOL    HW267068   1.575   4.932   6.531  0.0556 -0.4440 -0.0059
22164SOL     OW67069   7.505   3.900   1.546 -0.3153 -0.3942  0.0303
22164SOL    HW167070   7.537   3.982   1.509  2.2043 -1.4265 -0.2375
22164SOL    HW267071   7.440   3.927   1.611 -1.0447  1.6829 -1.4399
22165SOL     OW67072   8.962   0.068   9.295  0.5397  0.2054 -0.2787
22165SOL    HW167073   9.048   0.059   9.336  0.4338 -0.9652 -0.2729
22165SOL    HW267074   8.978   0.051   9.202  0.2189 -0.6677 -0.1798
22166SOL     OW67075   7.635   0.631   2.610 -0.2408 -0.1019 -0.1590
22166SOL    HW167076   7.619   0.716   2.569  1.8576  0.2691 -0.3268
22166SOL    HW267077   7.629   0.648   2.704 -1.2038 -0.0970 -0.2121
22167SOL     OW67078   6.399   3.339   1.877 -0.3445 -0.1133 -0.3019
22167SOL    HW167079   6.448   3.259   1.894 -2.6677 -1.5635 -0.0578
22167SOL    HW267080   6.414   3.394   1.954  0.0879 -0.9385  0.2086
22168SOL     OW67081   2.409   2.215   9.469  0.4651  0.1136 -0.0741
22168SOL    HW167082   2.481   2.256   9.421 -0.1763  0.6434 -0.6186
22168SOL    HW267083   2.396   2.271   9.546  0.7477 -0.0814  0.1157
22169SOL     OW67084   8.511   0.100   3.210 -0.3675  0.3613  0.4374
22169SOL    HW167085   8.591   0.066   3.170 -0.9434  0.5887 -0.9643
22169SOL    HW267086   8.440   0.050   3.169 -1.0215  1.0917  0.6445
22170SOL     OW67087   6.546   7.243   5.913 -0.7157  0.3183  0.0218
22170SOL    HW167088   6.573   7.194   5.990  0.4887  1.0130  0.0712
22170SOL    HW267089   6.518   7.176   5.850  2.3547 -0.6623 -0.5015
22171SOL     OW67090   9.883   6.467   1.546  0.6022 -1.0544 -0.5587
22171SOL    HW167091   9.840   6.414   1.478 -1.1054  1.2560 -1.3974
22171SOL    HW267092   9.811   6.507   1.595  1.7102  1.9142 -1.1562
22172SOL     OW67093   8.174   9.683   6.682  0.2009  0.6254  0.4750
22172SOL    HW167094   8.136   9.613   6.735  1.4583  0.1308  0.7579
22172SOL    HW267095   8.254   9.645   6.646  1.2363  2.1089  1.1246
22173SOL     OW67096   8.775   7.140   5.885 -0.1796 -1.1808 -0.1326
22173SOL    HW167097   8.811   7.155   5.973  1.0303 -1.5042 -0.5458
22173SOL    HW267098   8.848   7.161   5.826 -1.4748  0.6344 -1.1660
22174SOL     OW67099   4.737   0.948   8.815  0.1593  0.1052  0.3291
22174SOL    HW167100   4.715   0.965   8.906 -0.7937 -3.6990  0.9826
22174SOL    HW267101   4.820   0.900   8.818 -0.2466 -0.7143 -0.7121
22175SOL     OW67102   1.216   0.854   5.128 -0.0778  0.6284 -0.0348
22175SOL    HW167103   1.290   0.817   5.176  0.2916 -0.2534 -1.2559
22175SOL    HW267104   1.252   0.930   5.082  0.2362 -0.2083 -1.1799
22176SOL     OW67105   5.809   3.694   2.366  0.1343 -0.6531  0.1888
22176SOL    HW167106   5.719   3.670   2.346  0.0022  0.4234 -0.6111
22176SOL    HW267107   5.846   3.617   2.408 -1.7666 -0.4560  2.4717
22177SOL     OW67108   9.316   1.798   6.195  0.1361  0.2254  0.1845
22177SOL    HW167109   9.346   1.735   6.261  0.4901  0.3847  0.1791
22177SOL    HW267110   9.301   1.746   6.117 -0.5960 -0.0188  0.4741
22178SOL     OW67111   9.778   7.405   1.920  0.0244  0.1995 -0.2390
22178SOL    HW167112   9.825   7.486   1.899 -1.9225  1.9281  1.5705
22178SOL    HW267113   9.748   7.373   1.835  0.1987  1.8000 -0.9506
22179SOL     OW67114   4.035   3.914   6.253 -0.1127 -0.2982  0.3097
22179SOL    HW167115   3.961   3.866   6.217 -0.3170  0.8132 -0.8517
22179SOL    HW267116   4.073   3.959   6.177  0.9517  0.1856  1.1009
22180SOL     OW67117   0.403   7.388   6.401  0.1189  0.5410  0.1248
22180SOL    HW167118   0.462   7.354   6.469  0.2214  0.2365 -0.1190
22180SOL    HW267119   0.343   7.445   6.449  0.5478  0.7747  0.3918
22181SOL     OW67120   5.211   6.531   8.054 -0.1974  0.5301  0.3270
22181SOL    HW167121   5.145   6.518   8.123  1.3057 -1.8548  1.4412
22181SOL    HW267122   5.255   6.612   8.079  0.4884 -0.4036  2.4330
22182SOL     OW67123   5.666   0.350   9.345  0.7523  0.5577  0.1158
22182SOL    HW167124   5.571   0.350   9.332  0.9062  1.5325 -1.2670
22182SOL    HW267125   5.678   0.380   9.435 -0.2556 -0.0785  0.4805
22183SOL     OW67126   4.771   8.601   3.533  0.2429  0.1424  0.0570
22183SOL    HW167127   4.699   8.601   3.470  1.1122 -0.0433 -0.9646
22183SOL    HW267128   4.830   8.532   3.502  0.6169 -0.0516  1.1683
22184SOL     OW67129   5.839   2.837   3.522 -0.3881 -0.5350 -0.6315
22184SOL    HW167130   5.893   2.797   3.590  0.4925  0.3414 -0.8041
22184SOL    HW267131   5.900   2.890   3.471 -1.6599  1.8276  0.1602
22185SOL     OW67132   5.898   3.986   3.202  0.4220 -0.0706 -0.2972
22185SOL    HW167133   5.875   4.053   3.138 -0.3340 -0.2850 -0.2635
22185SOL    HW267134   5.984   4.011   3.234  0.4674  0.4704 -0.8291
22186SOL     OW67135   0.245   3.704   5.256 -0.0978  0.0547 -0.5820
22186SOL    HW167136   0.150   3.698   5.264 -0.2328  0.9109 -1.3901
22186SOL    HW267137   0.263   3.798   5.251  0.7850 -0.1040 -0.5251
22187SOL     OW67138   6.233   9.536   0.476 -0.1981 -0.0021  0.2021
22187SOL    HW167139   6.206   9.556   0.566 -1.2028 -0.0714 -0.0683
22187SOL    HW267140   6.226   9.441   0.469 -0.0847 -0.0005  0.0621
22188SOL     OW67141   9.595   1.104   1.438 -0.2336 -0.6977  0.7287
22188SOL    HW167142   9.682   1.133   1.466 -0.3154  0.1774  0.1337
22188SOL    HW267143   9.541   1.111   1.517  0.1887 -1.0654  1.0542
22189SOL     OW67144   6.141   6.990   7.304 -0.5771  0.0930  0.1347
22189SOL    HW167145   6.182   7.011   7.388 -1.6499 -1.5457  1.1135
22189SOL    HW267146   6.175   6.904   7.281 -2.9190 -1.0997  0.7271
22190SOL     OW67147   5.355   1.846   7.400 -0.5909 -0.1493  0.1340
22190SOL    HW167148   5.417   1.905   7.357 -0.6489  0.6034  1.0664
22190SOL    HW267149   5.275   1.855   7.349  0.1827 -1.5885 -1.4644
22191SOL     OW67150   1.401   8.418   8.012  0.5250  0.1283  0.8034
22191SOL    HW167151   1.382   8.331   8.048 -1.8878  1.3681  2.9543
22191SOL    HW267152   1.335   8.430   7.943  2.2421 -0.4906 -1.0320
22192SOL     OW67153   3.308   4.870   9.121  0.0911 -0.1656 -0.2917
22192SOL    HW167154   3.218   4.839   9.113 -0.2006  0.2069  1.2711
22192SOL    HW267155   3.357   4.794   9.150 -0.1264  0.1328  0.9052
22193SOL     OW67156   6.219   5.689   2.857  0.5132  0.1540  0.2007
22193SOL    HW167157   6.160   5.651   2.792  0.1643 -1.1495  1.2191
22193SOL    HW267158   6.165   5.695   2.936  2.0936 -2.6034  1.6296
22194SOL     OW67159   5.425   2.097   8.624 -0.0432  0.3722 -0.2992
22194SOL    HW167160   5.428   2.003   8.607 -0.6793 -0.0135  1.5605
22194SOL    HW267161   5.507   2.130   8.588  0.2327 -0.8920 -0.9009
22195SOL     OW67162   0.114   6.210   5.033  0.2774  0.2470  0.1154
22195SOL    HW167163   0.117   6.117   5.013  1.5129  0.5177 -1.1192
22195SOL    HW267164   0.185   6.224   5.096  2.1695  0.8086 -2.0241
22196SOL     OW67165   5.437   5.711   0.411  0.9668  0.2479  0.0916
22196SOL    HW167166   5.443   5.718   0.506  0.7521 -0.5618  0.1773
22196SOL    HW267167   5.503   5.771   0.377 -0.4696  2.2734  0.6918
22197SOL     OW67168   1.850   2.665   4.497  0.1458  0.1029  0.2496
22197SOL    HW167169   1.832   2.571   4.492 -0.2773  0.2359 -1.3448
22197SOL    HW267170   1.903   2.676   4.576 -0.2346 -1.3995  0.7358
22198SOL     OW67171   8.721   4.215   9.096  0.5186 -0.4260 -0.0129
22198SOL    HW167172   8.799   4.217   9.042  2.0619  0.1186  2.0829
22198SOL    HW267173   8.675   4.135   9.070  2.9784 -2.0103  0.2238
22199SOL     OW67174   2.424   4.758   3.439 -0.3745  0.2491  0.0717
22199SOL    HW167175   2.418   4.852   3.425  1.6792  0.3586 -0.3049
22199SOL    HW267176   2.352   4.721   3.386  0.1158  1.4613 -1.4947
22200SOL     OW67177   9.206   1.526   5.595 -0.1122 -0.3391  0.4620
22200SOL    HW167178   9.286   1.476   5.611  0.0995 -0.4663 -0.9196
22200SOL    HW267179   9.135   1.462   5.605  0.1304 -0.8412 -0.8492
22201SOL     OW67180   2.110   0.062   4.439 -0.0473 -0.2568 -0.1659
22201SOL    HW167181   2.088   0.031   4.351 -1.9037 -0.5104  0.3452
22201SOL    HW267182   2.055   0.140   4.451 -0.0346 -0.3980  0.8735
22202SOL     OW67183   8.198   2.370   5.377  0.1644 -0.3924  0.2129
22202SOL    HW167184   8.258   2.418   5.320  1.6257 -0.3102  1.7123
22202SOL    HW267185   8.119   2.358   5.325  0.7802  1.1864 -1.1762
22203SOL     OW67186   1.371   6.981   2.643 -0.1884  0.8751 -0.2214
22203SOL    HW167187   1.331   6.896   2.624  2.2388 -0.0102 -1.8929
22203SOL    HW267188   1.455   6.959   2.684 -0.7106  2.5891  1.8832
22204SOL     OW67189   8.371   1.292   1.584 -0.3852  0.2451  0.4013
22204SOL    HW167190   8.424   1.259   1.512 -0.4850  1.2352 -0.1433
22204SOL    HW267191   8.289   1.243   1.579  0.3376 -1.1049  1.0855
22205SOL     OW67192   4.282   2.696   9.410  0.0128 -0.1548 -0.4143
22205SOL    HW167193   4.221   2.748   9.462  0.1406  0.4196 -0.8163
22205SOL    HW267194   4.340   2.762   9.371  1.7028 -0.7548  0.9778
22206SOL     OW67195   2.831   2.430   6.241 -0.0887 -0.0224  0.2337
22206SOL    HW167196   2.828   2.346   6.287  2.4142  0.5721  1.6993
22206SOL    HW267197   2.909   2.425   6.186  0.0661  1.2878  0.2838
22207SOL     OW67198   1.529   3.052   7.285 -0.1801 -0.1307 -0.3640
22207SOL    HW167199   1.578   3.023   7.209 -1.0907  0.7516 -1.3360
22207SOL    HW267200   1.555   2.993   7.356 -0.9319 -2.4132 -1.8734
22208SOL     OW67201   1.078   8.321   3.905  0.2013 -0.0873  0.3970
22208SOL    HW167202   1.031   8.280   3.979  2.3679  1.5305  2.8321
22208SOL    HW267203   1.032   8.404   3.891 -0.0378 -0.2703  0.0659
22209SOL     OW67204   1.330   7.728   7.927 -0.5238  0.3134 -0.4259
22209SOL    HW167205   1.398   7.677   7.971 -1.1517 -0.5536 -0.4473
22209SOL    HW267206   1.360   7.819   7.934  1.6689 -0.1767 -2.1747
22210SOL     OW67207   0.689   3.141   5.886 -0.6236  0.4818  0.4268
22210SOL    HW167208   0.778   3.151   5.919 -0.8653 -0.3690  1.3756
22210SOL    HW267209   0.633   3.166   5.959 -1.1662 -0.2007  0.2562
22211SOL     OW67210   0.498   3.361   3.319 -0.2892  0.6644  0.0904
22211SOL    HW167211   0.583   3.319   3.331 -0.6457  0.5613  2.9673
22211SOL    HW267212   0.440   3.317   3.381 -1.8093  2.4274  0.0155
22212SOL     OW67213   6.815   5.668   2.837 -0.5256  0.3604  0.3806
22212SOL    HW167214   6.869   5.591   2.855  0.5285  0.6854 -1.1462
22212SOL    HW267215   6.807   5.713   2.921  1.0682 -0.0296  0.7621
22213SOL     OW67216   1.015   2.954   1.584 -0.2701  0.1753 -0.2568
22213SOL    HW167217   0.950   2.934   1.517 -0.3498 -3.0557  0.6494
22213SOL    HW267218   0.977   3.028   1.632 -2.2715 -0.2472 -1.0695
22214SOL     OW67219   2.868   0.121   7.138  0.2027  0.5892  0.3861
22214SOL    HW167220   2.809   0.194   7.118 -1.0746 -0.9241 -1.6515
22214SOL    HW267221   2.871   0.119   7.234 -0.1043  2.9674  0.5101
22215SOL     OW67222   1.371   8.311   9.524  0.2346  0.1428  0.0980
22215SOL    HW167223   1.355   8.405   9.536 -0.4111  0.2443 -1.4171
22215SOL    HW267224   1.300   8.281   9.468 -0.5211 -1.6124  1.8532
22216SOL     OW67225   7.347   3.147   0.687 -0.2243 -0.4931 -0.4194
22216SOL    HW167226   7.361   3.074   0.626  0.7232  1.1451 -2.2562
22216SOL    HW267227   7.327   3.222   0.631 -2.2838  0.4835  1.4703
22217SOL     OW67228   8.933   6.294   1.641  0.0685  0.0907  0.4018
22217SOL    HW167229   8.918   6.299   1.736 -0.2502  0.5049  0.3321
22217SOL    HW267230   8.869   6.229   1.611  0.4256 -0.3229  0.5191
22218SOL     OW67231   0.058   0.710   3.442 -0.5548 -0.1186  0.2827
22218SOL    HW167232  -0.009   0.757   3.491 -1.8456 -1.2531 -0.3047
22218SOL    HW267233   0.025   0.707   3.352  1.2765  1.0410 -0.5017
22219SOL     OW67234   4.732   1.505   5.365 -0.2498  0.0790 -0.2138
22219SOL    HW167235   4.792   1.540   5.431 -0.4042 -0.0320 -0.0138
22219SOL    HW267236   4.757   1.413   5.356  0.2167  0.2548 -0.8063
22220SOL     OW67237   8.602   5.215   7.389  0.2120 -0.0634  0.0608
22220SOL    HW167238   8.547   5.180   7.319 -0.0394 -0.8340  0.6232
22220SOL    HW267239   8.630   5.301   7.358 -1.2139  0.2960 -0.2906
22221SOL     OW67240   0.866   5.210   5.687  0.0009  0.4539 -0.5545
22221SOL    HW167241   0.862   5.253   5.601 -1.0040  0.6033 -0.4544
22221SOL    HW267242   0.913   5.272   5.743 -0.2008  0.8012 -0.7647
22222SOL     OW67243   2.329   5.188   3.110 -0.7231 -0.6326  0.6432
22222SOL    HW167244   2.330   5.279   3.079  0.3622 -1.1084 -0.8570
22222SOL    HW267245   2.391   5.187   3.183 -0.7397 -0.1628  0.6669
22223SOL     OW67246   4.077   3.851   0.108  0.1084 -0.2062  0.0487
22223SOL    HW167247   4.070   3.777   0.167 -1.7543  0.6471  0.9929
22223SOL    HW267248   4.119   3.816   0.029 -0.3568 -2.1435  0.6138
22224SOL     OW67249   1.725   5.658   5.281 -0.1478 -0.0232 -0.1070
22224SOL    HW167250   1.813   5.622   5.294 -0.6726 -0.9382  1.0764
22224SOL    HW267251   1.725   5.687   5.189  1.7219  1.0131  0.1686
22225SOL     OW67252   6.384   1.946   4.704  0.2423  0.2441 -0.6050
22225SOL    HW167253   6.350   1.857   4.697  1.0805 -0.2971  1.2878
22225SOL    HW267254   6.335   1.997   4.639 -1.3193 -1.2856 -0.6885
22226SOL     OW67255   4.136   2.772   3.711  0.5675  0.2847 -0.0817
22226SOL    HW167256   4.195   2.698   3.721  0.2108 -0.0404 -0.3894
22226SOL    HW267257   4.050   2.738   3.735  0.7998  1.2791  2.4259
22227SOL     OW67258   7.502   1.080   1.051  0.1952  0.3475 -0.5573
22227SOL    HW167259   7.519   1.042   1.138 -0.8679  0.2890 -0.3628
22227SOL    HW267260   7.562   1.154   1.046 -0.2994  0.8521  0.5696
22228SOL     OW67261   3.515   3.711   0.649  0.3042 -0.2150 -0.1364
22228SOL    HW167262   3.555   3.670   0.726 -0.1503  0.3296  0.3959
22228SOL    HW267263   3.581   3.773   0.618  2.2632 -3.3002 -2.7057
22229SOL     OW67264   3.767   6.342   8.510 -0.1560 -1.0970 -0.6795
22229SOL    HW167265   3.855   6.339   8.472 -0.4366  1.4598 -1.6881
22229SOL    HW267266   3.775   6.399   8.586 -0.3263 -3.5271  1.3110
22230SOL     OW67267   4.800   4.404   3.584 -0.4272  0.1764  0.1679
22230SOL    HW167268   4.799   4.435   3.675 -0.1016  0.2813  0.1347
22230SOL    HW267269   4.728   4.452   3.542  0.2045  1.0546  0.0613
22231SOL     OW67270   6.116   9.390   3.544 -0.2238 -0.1627  0.7909
22231SOL    HW167271   6.028   9.377   3.507 -0.3460  2.6295 -0.1198
22231SOL    HW267272   6.101   9.438   3.625  0.4817  1.3612  0.0469
22232SOL     OW67273   1.045   7.986   5.344  0.0607 -0.5542  0.1210
22232SOL    HW167274   1.067   8.062   5.290 -1.1191  0.7738  1.4183
22232SOL    HW267275   1.040   8.020   5.433  0.5626 -2.3961  0.9069
22233SOL     OW67276   2.303   3.312   8.717  0.0715  0.2430  0.3556
22233SOL    HW167277   2.287   3.344   8.806 -1.3680  0.5254  0.0274
22233SOL    HW267278   2.276   3.220   8.720  2.7799 -0.6248  0.9114
22234SOL     OW67279   3.934   0.036   4.591  0.3606 -0.5424  0.1817
22234SOL    HW167280   3.906  -0.040   4.641 -1.1926 -0.6656 -0.8118
22234SOL    HW267281   3.921   0.111   4.649  0.1742 -0.8502  0.5321
22235SOL     OW67282   9.373   4.873   0.108  0.3612 -0.6162 -0.1412
22235SOL    HW167283   9.393   4.848   0.017 -0.2939  0.7659 -0.6963
22235SOL    HW267284   9.317   4.950   0.099 -1.1211 -1.4573  1.4287
22236SOL     OW67285   8.533   2.352   4.487  0.0619 -0.7988  0.4258
22236SOL    HW167286   8.547   2.259   4.505 -1.3189 -0.9064  1.0622
22236SOL    HW267287   8.530   2.393   4.573 -1.6607 -0.5454  0.2830
22237SOL     OW67288   0.986   4.846   6.020  0.0185  0.0585 -0.5265
22237SOL    HW167289   0.912   4.901   6.048  0.8797  1.7157 -1.3173
22237SOL    HW267290   0.989   4.858   5.925  0.7999 -0.6552 -0.5931
22238SOL     OW67291   2.586   6.042   0.875  0.2567  0.0507  0.0522
22238SOL    HW167292   2.506   6.093   0.883  0.9047  0.9655  0.9004
22238SOL    HW267293   2.574   5.969   0.937 -1.3096 -1.7892 -2.2439
22239SOL     OW67294   2.921   4.522   2.190 -0.1218  0.1770  1.0682
22239SOL    HW167295   2.907   4.548   2.099 -0.3179  0.4287  1.1726
22239SOL    HW267296   2.835   4.527   2.231  0.4183  3.0511  2.0563
22240SOL     OW67297   6.051   7.892   5.726 -0.2655 -0.2070 -0.0785
22240SOL    HW167298   5.976   7.928   5.680 -0.0563 -0.3207 -0.5131
22240SOL    HW267299   6.125   7.944   5.695 -0.3403  0.8180  1.3691
22241SOL     OW67300   8.126   5.056   4.880 -0.1277 -0.5759  0.5555
22241SOL    HW167301   8.152   4.968   4.908  0.4508 -0.0347  1.7915
22241SOL    HW267302   8.091   5.044   4.792  0.0293 -2.0294  0.6705
22242SOL     OW67303   2.789   3.234   6.337 -0.0147  0.4718 -0.2296
22242SOL    HW167304   2.764   3.310   6.389 -1.4859 -0.1422  0.0063
22242SOL    HW267305   2.869   3.261   6.291 -0.6243  2.2292 -0.3174
22243SOL     OW67306   3.119   6.732   6.179  0.2960 -0.0863  0.0696
22243SOL    HW167307   3.072   6.776   6.250  3.5433  0.7816  1.8927
22243SOL    HW267308   3.080   6.768   6.099 -0.1599  2.8072  1.4418
22244SOL     OW67309   9.699   3.960   1.911  0.4300 -0.2555 -0.3466
22244SOL    HW167310   9.761   3.950   1.839 -0.1221 -0.1383 -0.8449
22244SOL    HW267311   9.662   3.872   1.924 -0.7360  0.0557 -1.3733
22245SOL     OW67312   7.250   6.423   1.951 -0.2837 -0.4237 -0.1384
22245SOL    HW167313   7.232   6.489   2.018 -0.9575 -0.5008 -0.2342
22245SOL    HW267314   7.284   6.348   2.000 -1.0403 -0.5866  0.1679
22246SOL     OW67315   0.120   7.129   8.441  0.2470 -0.7057  0.2938
22246SOL    HW167316   0.111   7.073   8.518  0.1162 -2.8470 -1.2077
22246SOL    HW267317   0.200   7.098   8.398  1.1429  1.4261  0.2755
22247SOL     OW67318   6.363   7.167   3.879 -0.9656 -0.1220 -0.0345
22247SOL    HW167319   6.376   7.075   3.903  0.4043  0.3112  1.0166
22247SOL    HW267320   6.398   7.174   3.790 -0.9719 -0.5908 -0.0756
22248SOL     OW67321   7.923   1.597   6.274 -0.5877 -0.1203  0.3204
22248SOL    HW167322   7.968   1.562   6.198  1.0979  2.8179 -0.2129
22248SOL    HW267323   7.893   1.684   6.247 -0.0496  0.9920  2.9010
22249SOL     OW67324   4.973   0.651   5.832  0.4776 -0.0330 -0.1279
22249SOL    HW167325   5.050   0.662   5.776  1.4656  0.2370  1.2286
22249SOL    HW267326   4.997   0.581   5.892 -0.6428 -0.4551 -0.1481
22250SOL     OW67327   4.259   5.886   0.178  0.4028  0.7619 -0.6935
22250SOL    HW167328   4.192   5.948   0.206 -2.0515 -1.7566 -0.4944
22250SOL    HW267329   4.230   5.856   0.092 -0.1582 -2.0664  0.3531
22251SOL     OW67330   8.812   4.021   7.556 -0.3249 -0.0750 -0.0136
22251SOL    HW167331   8.843   3.941   7.513 -1.7136  0.0449 -1.3242
22251SOL    HW267332   8.891   4.061   7.592  0.6426 -1.1204 -0.8872
22252SOL     OW67333   7.618   6.587   6.105 -0.2178  0.0893 -0.4908
22252SOL    HW167334   7.713   6.587   6.111 -0.1711 -1.8544 -0.4105
22252SOL    HW267335   7.588   6.631   6.184  0.6358 -2.7813  1.6165
22253SOL     OW67336   9.806   7.376   3.431  0.1895 -0.6780  0.0489
22253SOL    HW167337   9.740   7.326   3.480 -0.3240 -0.9050 -0.8535
22253SOL    HW267338   9.879   7.384   3.492 -1.1447  0.7535  1.5828
22254SOL     OW67339   7.468   7.314   3.930 -0.4572 -0.0454  0.5990
22254SOL    HW167340   7.515   7.395   3.951 -0.4983 -0.0190  0.5908
22254SOL    HW267341   7.507   7.284   3.848 -1.9035  1.1185 -0.5578
22255SOL     OW67342   9.451   0.109   5.762  0.3140 -0.2315  0.1651
22255SOL    HW167343   9.474   0.087   5.853  0.3128 -0.0467  0.2101
22255SOL    HW267344   9.421   0.026   5.724 -0.1406 -0.2115  0.4725
22256SOL     OW67345   2.832   5.141   2.634  0.0621  0.3714  0.6932
22256SOL    HW167346   2.829   5.235   2.618  0.7310  0.3753  0.5781
22256SOL    HW267347   2.913   5.127   2.684  0.4553 -0.2580 -0.0985
22257SOL     OW67348   2.429   7.154   3.166  0.1667  0.4123  0.0982
22257SOL    HW167349   2.392   7.086   3.110 -2.4807  1.4412  0.4403
22257SOL    HW267350   2.430   7.115   3.254 -0.7607  0.5821  0.1919
22258SOL     OW67351   6.268   0.321   4.004  0.2302  0.0646  0.5097
22258SOL    HW167352   6.250   0.396   3.947 -1.6515 -0.5582  0.2124
22258SOL    HW267353   6.363   0.319   4.012  0.7413 -0.5153 -3.6087
22259SOL     OW67354   7.926   1.753   5.126 -0.9057  0.1292  0.4361
22259SOL    HW167355   8.001   1.798   5.087 -0.4169 -2.0491 -1.3597
22259SOL    HW267356   7.951   1.739   5.217  0.4954  0.2150  0.0917
22260SOL     OW67357   8.872   7.020   6.129  0.4426  0.0586  0.0331
22260SOL    HW167358   8.885   6.942   6.075 -1.3178  0.4730 -1.0566
22260SOL    HW267359   8.813   6.991   6.198 -0.0261  0.3654 -0.2368
22261SOL     OW67360   8.946   4.226   2.929 -0.4403 -0.0579 -0.0119
22261SOL    HW167361   8.882   4.294   2.906  0.2069  0.1234 -1.3992
22261SOL    HW267362   9.006   4.270   2.991 -0.0779  0.6381 -0.8313
22262SOL     OW67363   6.043   3.144   6.498  0.8257  0.4874 -0.5640
22262SOL    HW167364   6.030   3.059   6.454  1.3546  0.4275 -0.6096
22262SOL    HW267365   6.137   3.148   6.515  1.1833  2.0191 -2.5355
22263SOL     OW67366   7.274   0.533   7.449 -0.6605 -0.3437  0.2350
22263SOL    HW167367   7.314   0.492   7.526 -0.9048 -0.7329  0.1579
22263SOL    HW267368   7.320   0.617   7.440 -0.1194 -0.6169  0.3673
22264SOL     OW67369   5.133   6.710   6.355 -0.0033  0.1677 -0.2216
22264SOL    HW167370   5.148   6.704   6.449 -0.9068 -0.4865 -0.0968
22264SOL    HW267371   5.214   6.744   6.319 -0.0073  1.4534  0.9141
22265SOL     OW67372   5.381   6.151   2.166  0.2801 -0.4193 -0.0792
22265SOL    HW167373   5.432   6.103   2.101 -1.6301 -0.6670 -1.4676
22265SOL    HW267374   5.383   6.242   2.135  0.9030 -0.2041  0.5659
22266SOL     OW67375   1.271   3.339   9.748  0.2666 -0.9315  0.5709
22266SOL    HW167376   1.335   3.399   9.785 -0.6225  1.2564 -1.2079
22266SOL    HW267377   1.187   3.368   9.784 -0.4535  0.4167 -1.9454
22267SOL     OW67378   1.306   1.095   5.019  0.0053  0.2808 -0.1574
22267SOL    HW167379   1.287   1.118   4.928 -0.0395 -1.8001 -0.7315
22267SOL    HW267380   1.289   1.175   5.069 -0.2361  1.3806 -1.9402
22268SOL     OW67381   1.738   7.500   5.091  0.4283 -0.2221  0.7948
22268SOL    HW167382   1.763   7.579   5.042  4.1328 -2.1835 -0.9349
22268SOL    HW267383   1.687   7.449   5.028  0.2875 -0.3170  0.9880
22269SOL     OW67384   5.261   4.307   4.302 -0.6888  0.5508  0.2422
22269SOL    HW167385   5.192   4.297   4.237 -0.5419  1.7971 -0.1306
22269SOL    HW267386   5.306   4.388   4.278  1.6825 -0.8124 -0.2262
22270SOL     OW67387   1.682   8.000   2.579  0.0235  0.2235 -0.2725
22270SOL    HW167388   1.666   8.037   2.666 -1.5718  0.5216 -0.6612
22270SOL    HW267389   1.742   8.062   2.537  1.3934 -0.3016  0.8442
22271SOL     OW67390   2.811   3.531   1.903  0.1051  0.2891  0.4115
22271SOL    HW167391   2.803   3.447   1.947 -1.2771  0.1070 -0.1475
22271SOL    HW267392   2.843   3.591   1.971  0.6117 -0.5581  0.9388
22272SOL     OW67393   9.574   4.064   8.872  0.0704  0.6149 -0.3006
22272SOL    HW167394   9.640   4.103   8.929  0.2686 -1.0147  0.6281
22272SOL    HW267395   9.494   4.063   8.925  0.2024 -0.7087 -0.0944
22273SOL     OW67396   4.203   7.373   5.992 -0.8490 -0.2642  0.2442
22273SOL    HW167397   4.162   7.445   6.041  0.3995  1.0571 -0.5586
22273SOL    HW267398   4.193   7.397   5.900  0.4641 -0.5861 -0.0072
22274SOL     OW67399   8.564   9.714   1.248 -0.1495  0.3314 -0.3221
22274SOL    HW167400   8.586   9.687   1.337  0.4639 -1.7686 -1.0541
22274SOL    HW267401   8.597   9.643   1.193 -1.9929  0.7594 -2.0971
22275SOL     OW67402   6.479   1.670   3.549 -0.0391 -0.1304 -0.0320
22275SOL    HW167403   6.468   1.765   3.555 -1.6970 -0.3124  0.3649
22275SOL    HW267404   6.558   1.652   3.599 -1.1319  0.7965  2.1733
22276SOL     OW67405   7.983   1.170   9.332  0.0323  0.2860  0.0011
22276SOL    HW167406   7.931   1.165   9.252  0.2676  2.3591 -0.3397
22276SOL    HW267407   8.034   1.089   9.332 -1.1866 -0.5307 -1.0622
22277SOL     OW67408   2.596   6.141   6.293 -0.1117 -0.2834  0.4496
22277SOL    HW167409   2.628   6.052   6.278 -0.7710 -0.4584  0.0214
22277SOL    HW267410   2.507   6.140   6.259 -0.5328  0.2307  1.5082
22278SOL     OW67411   6.328   2.483   9.625 -0.2897 -0.2058 -0.3121
22278SOL    HW167412   6.276   2.557   9.593  0.4574  1.0918  1.3058
22278SOL    HW267413   6.383   2.459   9.550  0.9166  2.2620 -0.3161
22279SOL     OW67414   6.500   1.829   6.452 -0.4387  0.1366 -0.2944
22279SOL    HW167415   6.586   1.854   6.421 -0.8805  0.1276 -1.5723
22279SOL    HW267416   6.475   1.900   6.512  1.3628 -0.9774  1.9122
22280SOL     OW67417   2.056   2.057   5.837  0.2028  0.6682  0.2068
22280SOL    HW167418   2.087   2.034   5.925 -0.5391 -0.6553  0.1454
22280SOL    HW267419   2.047   1.974   5.792 -1.8154  1.0979 -0.3074
22281SOL     OW67420   8.062   9.694   0.980  0.3868 -0.0933 -0.2985
22281SOL    HW167421   8.091   9.723   0.894  0.0560  2.7943  0.4798
22281SOL    HW267422   7.970   9.722   0.985  0.3142 -0.4927  0.8841
22282SOL     OW67423   4.455   7.136   3.181  0.3020 -0.2898  0.4122
22282SOL    HW167424   4.531   7.086   3.212 -0.6480 -2.1629 -0.1142
22282SOL    HW267425   4.471   7.225   3.211  3.0667 -0.4571 -0.3297
22283SOL     OW67426   2.901   5.863   6.704 -0.2682  0.6787  0.3334
22283SOL    HW167427   2.831   5.799   6.692 -0.7703  1.0221  1.3114
22283SOL    HW267428   2.859   5.937   6.748  0.3304  1.6284 -0.6201
22284SOL     OW67429   3.262   3.596   6.448  0.0957  0.1673 -0.2288
22284SOL    HW167430   3.225   3.559   6.528  0.4218 -0.5073 -0.3771
22284SOL    HW267431   3.252   3.690   6.458  2.1442  0.2695  1.6109
22285SOL     OW67432   2.829   9.313   9.461  0.2234 -0.2631 -0.7068
22285SOL    HW167433   2.812   9.345   9.372  1.2768 -0.3658 -0.9552
22285SOL    HW267434   2.908   9.358   9.489  0.3391 -0.8100 -0.1156
22286SOL     OW67435   6.279   0.597   3.945  0.0274 -0.7583 -0.2103
22286SOL    HW167436   6.288   0.638   4.031 -0.3028  0.0186 -0.5331
22286SOL    HW267437   6.186   0.607   3.924  0.5971  1.8831 -1.9909
22287SOL     OW67438   7.072   2.170   6.660  0.3061 -0.2938 -0.0311
22287SOL    HW167439   7.076   2.156   6.755 -0.7082  1.4542  0.3003
22287SOL    HW267440   7.156   2.137   6.627 -0.0745 -2.7507  1.1811
22288SOL     OW67441   2.500   6.935   8.764 -0.8215  0.1546  0.1976
22288SOL    HW167442   2.443   6.868   8.726 -1.0170  1.1040 -1.2569
22288SOL    HW267443   2.440   6.994   8.810 -0.8824  0.4361 -0.2360
22289SOL     OW67444   6.732   3.920   2.620 -0.6598  1.0791 -0.1626
22289SOL    HW167445   6.678   3.856   2.573 -1.3824  1.1429  0.5577
22289SOL    HW267446   6.783   3.868   2.682 -0.2822  1.0743 -0.4745
22290SOL     OW67447   3.515   2.604   3.427 -0.0404 -0.3254 -0.2402
22290SOL    HW167448   3.433   2.645   3.457 -0.0505  0.9339 -1.8473
22290SOL    HW267449   3.522   2.629   3.335  2.0751 -0.5690 -0.1895
22291SOL     OW67450   8.747   1.304   6.547  0.2772  0.5431  0.0175
22291SOL    HW167451   8.670   1.270   6.502  0.5387 -0.7916  0.5578
22291SOL    HW267452   8.723   1.394   6.570 -0.6101  0.5845 -0.9848
22292SOL     OW67453   4.599   9.167   6.292 -0.1048 -0.8779  0.3949
22292SOL    HW167454   4.530   9.135   6.234 -0.2450  0.0428  0.0369
22292SOL    HW267455   4.561   9.245   6.334  1.0145  0.1635 -0.4634
22293SOL     OW67456   8.346   8.997   3.952 -0.3832  0.0907 -0.3920
22293SOL    HW167457   8.348   8.948   3.870  0.2817  2.5825 -1.9665
22293SOL    HW267458   8.262   9.044   3.949 -0.1530  0.5423  0.1334
22294SOL     OW67459   1.974   9.718   8.998  0.0696  0.6104  0.4186
22294SOL    HW167460   1.990   9.779   8.926 -0.7919  0.7231  0.3128
22294SOL    HW267461   2.057   9.714   9.045  0.3710  1.2392 -0.0507
22295SOL     OW67462   0.117   6.550   9.577 -0.1886 -0.5290 -0.1735
22295SOL    HW167463   0.205   6.549   9.614 -0.7233  0.3914  1.1950
22295SOL    HW267464   0.072   6.479   9.622 -0.3451 -0.5450 -0.3569
22296SOL     OW67465   1.301   9.587   9.715  0.6950  0.0399  0.6266
22296SOL    HW167466   1.318   9.594   9.809 -1.2099  1.3114  0.9199
22296SOL    HW267467   1.209   9.610   9.705  0.8694 -0.0126 -1.5719
22297SOL     OW67468   2.580   8.843   8.904 -0.0682  0.1983 -0.2754
22297SOL    HW167469   2.624   8.799   8.976  0.4427  1.7532  0.4085
22297SOL    HW267470   2.638   8.915   8.880 -1.6047  1.5308 -0.1978
22298SOL     OW67471   6.746   3.482   7.922  0.1070 -0.9089 -0.5591
22298SOL    HW167472   6.699   3.476   7.839  0.7430  0.0915 -1.0058
22298SOL    HW267473   6.679   3.512   7.985 -0.0489 -0.3027 -1.0109
22299SOL     OW67474   2.832   7.434   9.920  0.5590 -0.2915  0.5604
22299SOL    HW167475   2.910   7.488   9.936  0.6808 -0.2351 -0.1560
22299SOL    HW267476   2.867   7.346   9.904  0.5395 -0.1280 -0.4425
22300SOL     OW67477   1.327   0.718   3.328 -0.1376  0.2111  0.2250
22300SOL    HW167478   1.252   0.659   3.325 -0.3626  0.5229 -0.5486
22300SOL    HW267479   1.299   0.788   3.387  0.3205 -0.6763  1.5549
22301SOL     OW67480   7.349   0.410   7.668  0.0930  0.1936 -0.8383
22301SOL    HW167481   7.433   0.366   7.683 -0.2629 -0.5795 -1.0842
22301SOL    HW267482   7.348   0.481   7.732  2.1067  1.9155 -2.5518
22302SOL     OW67483   4.087   1.491   6.345  0.1787  0.1910 -0.3750
22302SOL    HW167484   4.062   1.442   6.423  1.3262  0.7157  0.3553
22302SOL    HW267485   4.027   1.566   6.343 -1.0268 -0.7603 -1.0287
22303SOL     OW67486   6.339   1.349   3.924  0.1707 -0.0568  0.0359
22303SOL    HW167487   6.343   1.381   3.834 -0.4990  0.6575  0.2480
22303SOL    HW267488   6.415   1.390   3.967  0.7128 -0.6999 -0.2792
22304SOL     OW67489   3.549   1.527   9.437  0.2420 -0.1481 -0.3517
22304SOL    HW167490   3.507   1.609   9.463 -1.5057 -1.5660  1.6725
22304SOL    HW267491   3.486   1.459   9.463  2.6902 -2.2744  0.4347
22305SOL     OW67492   5.502   4.214   6.938  0.4315  0.3872  0.4343
22305SOL    HW167493   5.438   4.272   6.896  2.1788 -0.5231 -4.0270
22305SOL    HW267494   5.587   4.254   6.920  1.4657 -1.7553  0.1372
22306SOL     OW67495   4.030   9.273   3.372  0.4087 -0.0581  0.0560
22306SOL    HW167496   4.048   9.367   3.360 -0.7905  0.1809  0.0105
22306SOL    HW267497   4.116   9.232   3.374  0.9187  0.8441 -1.5892
22307SOL     OW67498   5.131   0.426   9.828 -0.9929 -0.3889 -0.3688
22307SOL    HW167499   5.121   0.377   9.909 -2.4051 -0.6894 -0.7028
22307SOL    HW267500   5.047   0.472   9.817 -1.2277 -1.1841 -2.1960
22308SOL     OW67501   2.791   5.644   1.640  0.5865 -0.1884  0.1187
22308SOL    HW167502   2.854   5.577   1.665  2.1174  1.9329  2.4671
22308SOL    HW267503   2.708   5.614   1.678  1.5593 -0.1354  2.4602
22309SOL     OW67504   1.851   1.726   8.984  0.0602 -0.2289 -0.5526
22309SOL    HW167505   1.885   1.766   8.904 -0.2374  1.3185  0.0558
22309SOL    HW267506   1.881   1.636   8.980 -1.0979 -0.6016 -3.0795
22310SOL     OW67507   6.318   4.916   6.191  0.2983  0.3740  0.2477
22310SOL    HW167508   6.319   4.997   6.140  0.0948 -0.4786 -1.1451
22310SOL    HW267509   6.347   4.849   6.131 -0.6032 -0.7837  1.0628
22311SOL     OW67510   1.313   4.317   6.905  0.1401  0.3366  0.6833
22311SOL    HW167511   1.349   4.405   6.916  0.4786  0.2024  0.6650
22311SOL    HW267512   1.370   4.260   6.957  0.2011  0.0645  0.3271
22312SOL     OW67513   2.053   1.143   1.999 -0.0973  0.1633 -0.5836
22312SOL    HW167514   2.081   1.088   2.072 -0.8113  0.0731 -0.3673
22312SOL    HW267515   2.129   1.147   1.941  0.2827 -0.2472 -0.1218
22313SOL     OW67516   3.247   9.150   5.398  0.0700  0.5688 -0.5010
22313SOL    HW167517   3.213   9.088   5.462 -1.6946  1.4436 -0.5375
22313SOL    HW267518   3.230   9.109   5.313  0.3457  0.4154 -0.4834
22314SOL     OW67519   4.269   9.921   2.830 -0.1382 -0.8872  0.3283
22314SOL    HW167520   4.331   9.947   2.761 -0.7350 -0.2499  0.0249
22314SOL    HW267521   4.189   9.899   2.783 -0.1322 -1.7626  0.7200
22315SOL     OW67522   2.633   0.089   8.844  0.8213 -0.3638  1.0862
22315SOL    HW167523   2.573   0.095   8.919  0.0002 -1.6853  0.5898
22315SOL    HW267524   2.576   0.071   8.769  1.4019  2.9982 -0.3073
22316SOL     OW67525   3.272   5.429   8.946 -0.8938 -0.5752 -0.2823
22316SOL    HW167526   3.183   5.449   8.972 -0.8662  0.6630 -1.0554
22316SOL    HW267527   3.297   5.354   8.999 -1.8855 -0.0306  0.9900
22317SOL     OW67528   0.550   2.084   5.413 -0.3706 -0.1854  0.1559
22317SOL    HW167529   0.570   2.002   5.458 -1.0450 -1.9951 -2.5551
22317SOL    HW267530   0.572   2.066   5.321 -1.3244  2.4057 -0.6597
22318SOL     OW67531   4.053   1.036   1.207 -0.1469  0.2695  0.0927
22318SOL    HW167532   3.970   1.084   1.202 -1.2995 -1.5375  0.8775
22318SOL    HW267533   4.106   1.086   1.269 -0.9766  0.9955  0.2316
22319SOL     OW67534   1.590   3.028   9.224 -0.0745  0.5450 -0.2676
22319SOL    HW167535   1.562   3.086   9.295  0.0649 -0.4861  0.6581
22319SOL    HW267536   1.597   2.941   9.265 -2.2703 -0.5653 -2.0572
22320SOL     OW67537   6.648   3.790   3.254 -0.6376 -0.0072 -0.8711
22320SOL    HW167538   6.705   3.771   3.328  0.2944  0.6001 -1.4038
22320SOL    HW267539   6.652   3.711   3.200  0.4591  0.3645 -1.3624
22321SOL     OW67540   8.887   9.382   1.041  0.3536  0.8100  0.0029
22321SOL    HW167541   8.906   9.288   1.040  0.2495  0.6234  3.3088
22321SOL    HW267542   8.845   9.400   0.957  0.6938 -2.0320 -0.8522
22322SOL     OW67543   1.052   0.729   2.736  0.4653 -0.6071 -0.7193
22322SOL    HW167544   0.981   0.743   2.673 -0.2181 -1.0474 -0.0775
22322SOL    HW267545   1.024   0.777   2.815  1.7908  0.7996 -1.0546
22323SOL     OW67546   7.551   1.380   0.642 -0.1936  0.3747  0.0139
22323SOL    HW167547   7.480   1.355   0.701 -0.3452  3.9149  1.5387
22323SOL    HW267548   7.631   1.364   0.692  0.1058 -1.9673 -1.0682
22324SOL     OW67549   4.585   9.211   2.756  0.8606 -0.4669  0.0462
22324SOL    HW167550   4.674   9.241   2.775  1.8146 -2.3873 -1.0659
22324SOL    HW267551   4.540   9.214   2.840  2.6099 -1.3577  1.0801
22325SOL     OW67552   0.657   2.746   9.917 -0.5380 -0.1059  0.3179
22325SOL    HW167553   0.632   2.665   9.961 -0.0638  0.2019  1.1783
22325SOL    HW267554   0.606   2.814   9.961  0.2040  0.2515  0.6446
22326SOL     OW67555   7.358   5.796   7.348 -0.0562  0.1924 -0.3207
22326SOL    HW167556   7.323   5.885   7.346  0.9869  0.6111 -1.9626
22326SOL    HW267557   7.450   5.807   7.373  1.2087  0.1055 -4.2809
22327SOL     OW67558   9.642   0.036   6.357  0.4036 -0.4568  0.0509
22327SOL    HW167559   9.660   0.009   6.447  2.8601 -0.4483 -0.3491
22327SOL    HW267560   9.581  -0.030   6.323  1.1810 -1.7453  1.0676
22328SOL     OW67561   4.532   3.872   8.059 -0.0537 -0.2898  0.1142
22328SOL    HW167562   4.557   3.873   7.967 -2.1281  0.0263 -0.5000
22328SOL    HW267563   4.587   3.804   8.099  1.4572  0.1463 -1.1465
22329SOL     OW67564   5.641   4.983   0.932 -0.0220 -0.3568  0.1242
22329SOL    HW167565   5.732   4.951   0.932 -0.2429 -1.0770  1.7950
22329SOL    HW267566   5.631   5.025   0.847  2.0791  0.2898  0.1204
22330SOL     OW67567   2.923   4.786   0.693 -0.0455 -0.2554  0.0435
22330SOL    HW167568   2.923   4.749   0.781  0.0980  0.5523  0.3871
22330SOL    HW267569   2.988   4.856   0.696 -0.9170  0.5778 -0.3757
22331SOL     OW67570   8.666   2.142   6.813 -0.0510  0.3066 -0.3023
22331SOL    HW167571   8.629   2.152   6.726  0.7733 -0.1263 -0.7099
22331SOL    HW267572   8.740   2.202   6.816  0.5995 -0.4685 -0.3024
22332SOL     OW67573   0.651   8.023   0.549  0.1701  0.0111 -0.3468
22332SOL    HW167574   0.718   8.072   0.501  0.6720 -0.0258  0.2998
22332SOL    HW267575   0.568   8.054   0.514  0.4903  0.9909 -0.2603
22333SOL     OW67576   9.835   9.728   2.550  0.6736 -0.6889  0.3407
22333SOL    HW167577   9.745   9.761   2.560  0.5009 -1.2511  0.6609
22333SOL    HW267578   9.846   9.715   2.456  0.3657 -0.7845  0.3187
22334SOL     OW67579   7.939   5.928   7.137  0.1456 -0.5489  0.2048
22334SOL    HW167580   8.022   5.889   7.108  0.5701  0.4853 -0.0283
22334SOL    HW267581   7.897   5.860   7.188  0.5133 -1.5758 -0.8216
22335SOL     OW67582   0.020   5.653   3.660  0.7404  0.4445 -0.1055
22335SOL    HW167583   0.105   5.682   3.694 -0.0826  1.8068  0.9095
22335SOL    HW267584   0.038   5.569   3.618  2.6503  0.8925 -0.2577
22336SOL     OW67585   3.685   2.703   0.406 -0.5622 -0.0808 -0.1128
22336SOL    HW167586   3.618   2.635   0.419 -0.6825 -0.0963 -0.7798
22336SOL    HW267587   3.755   2.680   0.467 -0.3349 -1.1604 -0.7504
22337SOL     OW67588   0.237   3.658   5.651  0.5627 -0.3456  0.1527
22337SOL    HW167589   0.186   3.720   5.599 -0.2211 -0.8123  0.3448
22337SOL    HW267590   0.177   3.584   5.665  1.4660 -1.1486 -0.0735
22338SOL     OW67591   5.876   1.303   6.122  0.1140 -0.0220  0.1709
22338SOL    HW167592   5.912   1.270   6.204 -2.1155 -0.6287  0.9794
22338SOL    HW267593   5.882   1.399   6.130  1.8712 -0.0835  0.0473
22339SOL     OW67594   1.687   6.321   9.648 -0.1074 -0.2627 -0.1329
22339SOL    HW167595   1.630   6.382   9.602 -1.5866 -1.7948 -0.4473
22339SOL    HW267596   1.632   6.245   9.666  1.4348 -1.2034  0.9431
22340SOL     OW67597   6.478   0.672   0.637 -0.3094 -0.3868  0.2267
22340SOL    HW167598   6.542   0.666   0.566  0.7842 -1.6158  1.2674
22340SOL    HW267599   6.407   0.725   0.600  1.7957  2.0885 -0.5781
22341SOL     OW67600   7.002   7.235   1.309  0.6200  1.1038 -0.0178
22341SOL    HW167601   7.036   7.269   1.226 -1.7307  2.2256 -0.6025
22341SOL    HW267602   6.970   7.312   1.356 -1.8903  0.1388  0.0469
22342SOL     OW67603   2.489   5.349   0.050 -0.1303 -0.0147 -0.8375
22342SOL    HW167604   2.480   5.411   0.122  3.3111  0.2979 -0.5235
22342SOL    HW267605   2.420   5.284   0.065 -1.6069  1.8155  0.7962
22343SOL     OW67606   7.319   1.390   8.906 -0.0040 -0.5300  0.1196
22343SOL    HW167607   7.399   1.436   8.931  0.1618 -0.2145 -0.9644
22343SOL    HW267608   7.270   1.381   8.988  0.0455  1.3793  0.3872
22344SOL     OW67609   4.009   7.052   3.782 -0.2430 -0.0957  0.5785
22344SOL    HW167610   3.964   6.975   3.818  0.3284 -1.1962 -0.9672
22344SOL    HW267611   4.097   7.021   3.762  0.4325  1.3481  1.1556
22345SOL     OW67612   0.886   9.572   8.302  0.6925 -0.2997 -1.3909
22345SOL    HW167613   0.980   9.592   8.299  0.6068  0.2764 -0.5904
22345SOL    HW267614   0.851   9.610   8.222  0.6249  2.4016 -0.1854
22346SOL     OW67615   0.999   9.004   7.525  0.1907  0.1707 -0.0178
22346SOL    HW167616   1.077   9.058   7.535  0.7326 -0.2690 -1.6580
22346SOL    HW267617   0.981   9.002   7.431  0.0392 -2.2442 -0.0133
22347SOL     OW67618   8.887   9.328   5.705 -0.4415  0.1131  0.1848
22347SOL    HW167619   8.949   9.311   5.635 -0.9410 -0.4503 -0.1346
22347SOL    HW267620   8.931   9.391   5.762 -0.1637  0.8267 -0.8057
22348SOL     OW67621   0.439   3.903   3.837  0.3600  0.1684 -0.1353
22348SOL    HW167622   0.465   3.994   3.822  0.5763  0.0303 -0.6024
22348SOL    HW267623   0.454   3.889   3.931  0.5430  0.5450 -0.1069
22349SOL     OW67624   4.520   9.889   6.330 -0.0351 -0.0216 -0.0842
22349SOL    HW167625   4.526   9.857   6.420  0.3694 -0.3160 -0.2097
22349SOL    HW267626   4.596   9.947   6.320  0.5598 -0.8542 -0.5647
22350SOL     OW67627   5.752   5.215   2.240 -0.3905 -0.0813  0.2179
22350SOL    HW167628   5.772   5.195   2.149 -1.6763 -1.0683  0.1209
22350SOL    HW267629   5.741   5.129   2.281 -1.9151  0.3488  0.7919
22351SOL     OW67630   8.967   4.375   6.858  0.5219  0.7289 -0.1491
22351SOL    HW167631   9.017   4.294   6.850  0.1316  0.2644  1.6684
22351SOL    HW267632   8.892   4.363   6.801 -0.8396 -1.2848  1.8982
22352SOL     OW67633   7.186   9.922   9.548  0.1296 -0.3344  0.1843
22352SOL    HW167634   7.186   9.993   9.484  0.8376  0.0137  0.5512
22352SOL    HW267635   7.155   9.846   9.500 -0.1430  0.1107 -0.3510
22353SOL     OW67636   0.728   9.300   3.627 -0.1617  0.5746 -0.1160
22353SOL    HW167637   0.661   9.301   3.695 -0.5031  0.2982 -0.4434
22353SOL    HW267638   0.679   9.283   3.546  0.5085 -1.5939 -0.1205
22354SOL     OW67639   6.490   6.855   4.372 -0.6449  0.1214 -0.0765
22354SOL    HW167640   6.482   6.794   4.299  1.5621  0.2190 -0.4568
22354SOL    HW267641   6.492   6.941   4.332 -0.4061  0.2368  0.1774
22355SOL     OW67642   9.266   5.987   0.054  0.0500  1.0174 -0.3184
22355SOL    HW167643   9.283   5.939   0.135 -0.4913 -1.4001 -1.5178
22355SOL    HW267644   9.270   6.079   0.078  1.0114  0.3905  2.2012
22356SOL     OW67645   1.558   4.423   9.924  0.4380  0.3731 -0.0871
22356SOL    HW167646   1.514   4.434   9.839 -0.9562  1.1035  0.6951
22356SOL    HW267647   1.588   4.511   9.946 -0.6043  0.4960  0.8950
22357SOL     OW67648   4.965   1.203   4.866  0.2534  0.1028 -0.2206
22357SOL    HW167649   4.893   1.189   4.927  0.9761 -0.2332  0.5814
22357SOL    HW267650   4.923   1.222   4.782 -0.7571 -0.2916  0.1878
22358SOL     OW67651   9.886   7.751   5.489  0.3059  0.2896 -0.1507
22358SOL    HW167652   9.975   7.717   5.501  0.6466  1.3330  0.4470
22358SOL    HW267653   9.856   7.771   5.578 -0.6093 -0.2232 -0.3335
22359SOL     OW67654   6.976   1.450   3.961  0.3324 -0.2071 -0.0072
22359SOL    HW167655   6.925   1.370   3.969  0.8290 -0.5473 -0.2311
22359SOL    HW267656   7.067   1.421   3.952  0.8092  0.4342  2.2296
22360SOL     OW67657   7.791   2.545   9.927  0.2520  0.2037 -0.2525
22360SOL    HW167658   7.844   2.589   9.860  0.9788 -0.0396  0.1492
22360SOL    HW267659   7.855   2.515   9.992 -0.4269  0.2914  0.4690
22361SOL     OW67660   1.062   2.006   3.489 -0.0479  0.2326 -0.4676
22361SOL    HW167661   1.100   2.065   3.423  2.6599 -0.5251  0.2872
22361SOL    HW267662   1.097   1.920   3.466  2.0759  0.1302  2.6096
22362SOL     OW67663   0.266   6.503   4.794  0.3894 -0.5898 -0.3927
22362SOL    HW167664   0.236   6.426   4.747  2.2871 -2.9362  1.9804
22362SOL    HW267665   0.196   6.521   4.857 -0.0342 -0.3226 -0.9203
22363SOL     OW67666   2.199   6.298   7.351  0.1438  0.1983 -0.4985
22363SOL    HW167667   2.218   6.375   7.296 -0.2187  0.7123  0.0847
22363SOL    HW267668   2.120   6.322   7.399  1.2330  0.3713  1.3432
22364SOL     OW67669   6.623   7.700   6.893 -0.2590 -0.4436  0.1652
22364SOL    HW167670   6.610   7.634   6.960 -0.8725  0.2976  0.7790
22364SOL    HW267671   6.714   7.728   6.905 -0.1419 -0.8246  0.2020
22365SOL     OW67672   4.815   4.210   8.056  0.3634  0.4395  0.0159
22365SOL    HW167673   4.780   4.203   8.145 -1.7367  2.2057 -0.5876
22365SOL    HW267674   4.835   4.303   8.046  1.5655  0.0837 -1.0282
22366SOL     OW67675   8.878  -0.035   6.665 -0.2584  0.6108  0.5682
22366SOL    HW167676   8.849   0.008   6.745 -1.8245 -0.4953  0.6343
22366SOL    HW267677   8.897   0.037   6.605 -3.0503  1.4864  0.5852
22367SOL     OW67678   2.767   7.634   7.896  0.6168  0.4269  0.8986
22367SOL    HW167679   2.715   7.588   7.962 -0.7291 -1.5000 -1.3367
22367SOL    HW267680   2.719   7.715   7.880 -1.0826 -0.6950 -0.1268
22368SOL     OW67681   6.694   4.989   6.219 -0.1460 -0.1902  0.2995
22368SOL    HW167682   6.633   4.972   6.291 -0.8983  1.0791  0.0015
22368SOL    HW267683   6.701   4.905   6.173 -1.0330 -0.5715  0.8261
22369SOL     OW67684   4.767   1.975   8.618 -0.3136  0.5406  0.8782
22369SOL    HW167685   4.827   1.915   8.663  0.4350 -0.7291 -1.6006
22369SOL    HW267686   4.704   2.002   8.685  0.7576 -1.1353  2.6498
22370SOL     OW67687   0.166   3.512   6.911 -0.0890  0.0383 -0.2078
22370SOL    HW167688   0.162   3.459   6.991 -1.2620  1.4421  0.7187
22370SOL    HW267689   0.210   3.593   6.939 -0.2287  0.4179 -1.0662
22371SOL     OW67690   9.139   5.437   9.517 -0.6254  0.5377 -0.4689
22371SOL    HW167691   9.117   5.452   9.425  2.2013  2.4995 -0.9638
22371SOL    HW267692   9.118   5.521   9.559 -0.4352  0.1770  0.3477
22372SOL     OW67693   8.299   0.465   3.533 -0.1560  0.3098 -0.7530
22372SOL    HW167694   8.334   0.408   3.602  0.4080 -0.9275 -2.0048
22372SOL    HW267695   8.283   0.406   3.459 -3.6530  1.0486 -0.7266
22373SOL     OW67696   6.833   8.818   1.994 -0.1399 -0.7025  0.4425
22373SOL    HW167697   6.786   8.825   2.078  0.6103 -1.5705  0.9644
22373SOL    HW267698   6.914   8.866   2.008  0.0719 -1.0103  0.2792
22374SOL     OW67699   4.002   5.307   6.868 -0.1183  0.0769 -0.1431
22374SOL    HW167700   3.984   5.220   6.902  1.1869  0.8502  2.8524
22374SOL    HW267701   4.072   5.294   6.804  0.4975 -1.0347  0.7232
22375SOL     OW67702   2.516   7.217   7.896 -0.5486 -0.2979  0.4611
22375SOL    HW167703   2.465   7.184   7.823 -0.0026  1.1411 -0.6330
22375SOL    HW267704   2.606   7.189   7.877 -0.2690  0.7592  0.1007
22376SOL     OW67705   1.620   9.215   1.808  0.0061  0.4657 -0.1883
22376SOL    HW167706   1.653   9.182   1.725 -1.0367 -0.3564 -0.3084
22376SOL    HW267707   1.666   9.298   1.822  1.9909 -0.5403 -0.3797
22377SOL     OW67708   2.819   3.074   4.928  0.7506  0.3611 -0.1101
22377SOL    HW167709   2.861   3.024   4.858  0.8756  0.3868 -0.0540
22377SOL    HW267710   2.798   3.158   4.888 -0.1818 -0.0172 -0.4340
22378SOL     OW67711   7.139   6.436   3.232  0.2169  0.9832 -0.0176
22378SOL    HW167712   7.163   6.458   3.142 -0.9009  0.4575 -0.4701
22378SOL    HW267713   7.173   6.347   3.245  1.2728  1.4459  0.4422
22379SOL     OW67714   2.677   8.065   2.635  0.3700  0.1915 -0.3683
22379SOL    HW167715   2.636   8.061   2.721  0.2321 -1.2840 -0.4852
22379SOL    HW267716   2.704   8.157   2.625 -0.1681  0.5063  0.9732
22380SOL     OW67717   0.873   0.956   4.634 -0.0563 -0.1785  0.2724
22380SOL    HW167718   0.967   0.954   4.616  0.2062  1.1343  1.3740
22380SOL    HW267719   0.836   1.013   4.567  0.1843  0.6492  0.8372
22381SOL     OW67720   3.857   2.142   4.939  0.1519  0.0265  0.0771
22381SOL    HW167721   3.878   2.202   5.010 -0.0582 -0.7221  0.7785
22381SOL    HW267722   3.920   2.071   4.947 -0.5818 -0.6178  0.2051
22382SOL     OW67723   1.008   7.900   8.577  0.5686  0.2462  0.3854
22382SOL    HW167724   0.938   7.965   8.583 -0.6682 -1.1392  1.6933
22382SOL    HW267725   0.995   7.858   8.492 -0.2210 -0.0124  0.6269
22383SOL     OW67726   2.052   1.672   9.377  0.0447 -0.5631  0.1215
22383SOL    HW167727   2.037   1.741   9.312 -0.9973  0.3498  1.2781
22383SOL    HW267728   2.126   1.622   9.342  0.7895  1.0845 -0.7774
22384SOL     OW67729   9.008   8.754   1.081  0.1041 -0.0380 -0.2915
22384SOL    HW167730   8.995   8.669   1.039 -0.1840  0.4899 -1.3122
22384SOL    HW267731   8.928   8.769   1.130  0.6254 -0.8654  0.8491
22385SOL     OW67732   3.842   9.119   9.441 -0.0552  0.1535 -0.6738
22385SOL    HW167733   3.806   9.202   9.473 -1.1696 -0.4488 -0.3385
22385SOL    HW267734   3.894   9.085   9.513 -0.0933  0.2634 -0.5950
22386SOL     OW67735   8.271   0.142   8.024  0.6279  0.0603 -0.4102
22386SOL    HW167736   8.230   0.138   8.111 -0.2941  1.2696 -0.7672
22386SOL    HW267737   8.317   0.225   8.023  0.5839  0.0829 -1.1130
22387SOL     OW67738   0.123   0.438   1.674 -0.8588 -0.4793 -0.4400
22387SOL    HW167739   0.035   0.405   1.662 -1.7776  1.2657  0.9990
22387SOL    HW267740   0.180   0.361   1.665 -2.5655 -1.7793 -0.5167
22388SOL     OW67741   4.651   5.368   9.710  0.9309  0.0557  0.5361
22388SOL    HW167742   4.672   5.339   9.621  1.9766  0.5002  0.6243
22388SOL    HW267743   4.614   5.290   9.752 -1.4990  0.3670 -0.8606
22389SOL     OW67744   4.483   1.174   3.112 -0.2426 -0.7596  0.4911
22389SOL    HW167745   4.501   1.190   3.204  1.5144 -0.3917  0.1256
22389SOL    HW267746   4.393   1.204   3.099  0.2143  1.2562  1.6012
22390SOL     OW67747   5.503   7.253   1.199 -0.3367  0.2353 -0.3256
22390SOL    HW167748   5.581   7.207   1.167 -0.9330  0.2614 -1.9186
22390SOL    HW267749   5.462   7.192   1.260 -0.2217 -0.7054 -1.1560
22391SOL     OW67750   9.123   9.783   6.686  0.0247  0.1737 -0.2533
22391SOL    HW167751   9.052   9.836   6.724  0.1586 -0.0526  0.3325
22391SOL    HW267752   9.202   9.814   6.731 -0.2249 -2.4851  2.3492
22392SOL     OW67753   8.951   8.392   7.494  0.1504 -0.4158 -0.3792
22392SOL    HW167754   9.010   8.387   7.569  1.0935 -1.7556 -1.1667
22392SOL    HW267755   8.864   8.402   7.532  0.7713  0.5887  0.8322
22393SOL     OW67756   7.370   8.016   5.868  0.2634 -0.8441 -0.1964
22393SOL    HW167757   7.427   7.999   5.943  0.0143 -1.2515 -0.0969
22393SOL    HW267758   7.375   7.936   5.815 -1.2223 -1.4020  0.4766
22394SOL     OW67759   2.525   6.403   1.869 -0.2094  0.1393 -0.0342
22394SOL    HW167760   2.607   6.358   1.848 -0.0194 -0.1031  1.1630
22394SOL    HW267761   2.458   6.336   1.855 -0.3409  0.6112 -1.9633
22395SOL     OW67762   3.632   8.690   0.707  0.0679 -0.1807 -0.0637
22395SOL    HW167763   3.622   8.609   0.756 -0.8540  0.0600  0.1782
22395SOL    HW267764   3.615   8.666   0.616  0.1469 -0.3235 -0.0404
22396SOL     OW67765   6.863   3.414   0.561 -0.5516 -0.0573  0.5086
22396SOL    HW167766   6.838   3.444   0.474  1.3527  1.6044  0.4344
22396SOL    HW267767   6.894   3.494   0.605  3.0836 -1.5533  1.0033
22397SOL     OW67768   9.553   2.704   7.369 -0.4809  0.0188  0.4672
22397SOL    HW167769   9.592   2.629   7.325  1.3006  2.7463 -3.1364
22397SOL    HW267770   9.615   2.726   7.439  0.3890 -0.2657 -0.2053
22398SOL     OW67771   7.386   4.675   5.521 -1.2831 -0.0846 -0.7724
22398SOL    HW167772   7.352   4.669   5.432 -0.6933  0.7037 -1.0600
22398SOL    HW267773   7.328   4.618   5.573 -1.7180 -0.4326 -1.6239
22399SOL     OW67774   4.136   2.067   3.450 -0.0264  0.1355  0.3961
22399SOL    HW167775   4.219   2.071   3.402 -0.8269  1.5096 -0.9607
22399SOL    HW267776   4.150   2.122   3.527 -0.1819  1.8729 -0.7455
22400SOL     OW67777   9.222   0.752   7.694 -0.2709  0.0239 -0.1998
22400SOL    HW167778   9.259   0.785   7.612  0.2174  0.1050  0.0497
22400SOL    HW267779   9.179   0.670   7.669 -0.7043  0.3896 -0.6564
22401SOL     OW67780   8.062   0.006   0.663  0.1521  0.4256 -0.3192
22401SOL    HW167781   8.151   0.036   0.647  0.4402  0.3404  1.0195
22401SOL    HW267782   8.025   0.071   0.723  0.6668 -1.5885  2.3710
22402SOL     OW67783   7.707   0.657   1.650 -0.5636 -0.2793 -0.4984
22402SOL    HW167784   7.774   0.722   1.629 -1.6373  0.8426 -0.5554
22402SOL    HW267785   7.625   0.705   1.647 -1.3654 -1.5730 -0.1925
22403SOL     OW67786   6.911   3.918   0.410  0.2504  0.1781 -0.5023
22403SOL    HW167787   6.909   4.013   0.400 -1.7266  0.3011  0.6112
22403SOL    HW267788   6.999   3.893   0.382  0.5576  2.2293 -1.5606
22404SOL     OW67789   5.905   9.214   2.168 -0.2258  0.8374 -0.3021
22404SOL    HW167790   5.874   9.277   2.232 -2.3313  1.0034 -1.3786
22404SOL    HW267791   5.896   9.129   2.211 -1.7782  0.9352 -0.3631
22405SOL     OW67792   9.048   9.318   4.807  0.2243 -0.0606  0.2942
22405SOL    HW167793   8.987   9.368   4.753  0.2021  0.5771  0.8966
22405SOL    HW267794   9.132   9.364   4.798  0.8426 -1.3733 -1.1531
22406SOL     OW67795   3.120   1.486   2.664  0.5755 -0.0765  0.1848
22406SOL    HW167796   3.109   1.427   2.739 -1.4909 -0.5684 -0.4376
22406SOL    HW267797   3.176   1.437   2.604  0.0655 -0.8136  0.2902
22407SOL     OW67798   0.477   0.618   7.100  0.1827  0.1926 -0.3705
22407SOL    HW167799   0.381   0.617   7.089 -0.4655  0.7966  3.7477
22407SOL    HW267800   0.495   0.547   7.161  1.7950  2.3362  1.8386
22408SOL     OW67801   2.677   0.106   9.348  0.0751 -0.4817 -0.6209
22408SOL    HW167802   2.685   0.184   9.403  0.1414 -1.3937  0.7151
22408SOL    HW267803   2.596   0.064   9.377  0.5243 -1.4050 -0.6451
22409SOL     OW67804   2.670   9.109   8.070  0.6213  0.4408 -0.1993
22409SOL    HW167805   2.698   9.194   8.035  1.3169  0.0169 -0.6956
22409SOL    HW267806   2.624   9.067   7.997  0.7400  0.1808 -0.1280
22410SOL     OW67807   9.182   7.463   3.787  0.2348 -0.1423  0.1825
22410SOL    HW167808   9.139   7.379   3.773  0.3734  0.0406 -1.5452
22410SOL    HW267809   9.239   7.474   3.711  2.4307  0.1888  1.7704
22411SOL     OW67810   0.633   2.090   1.101  0.6710 -0.0885 -0.1454
22411SOL    HW167811   0.726   2.083   1.121  0.6021 -2.1414 -0.3282
22411SOL    HW267812   0.605   2.173   1.140  2.5240  0.4832  0.0371
22412SOL     OW67813   1.240   0.523   1.766 -0.1621  0.2510  0.2057
22412SOL    HW167814   1.253   0.436   1.804 -0.6146  0.6769  1.3836
22412SOL    HW267815   1.327   0.548   1.734 -0.1826 -0.9252 -0.8114
22413SOL     OW67816   5.247   8.172   2.186 -0.0804  0.1642 -0.2155
22413SOL    HW167817   5.293   8.093   2.213  0.3468 -0.5169 -2.6845
22413SOL    HW267818   5.212   8.209   2.267  0.9385 -1.7580  1.1665
22414SOL     OW67819   2.091   1.983   8.180  0.5348 -0.8653  0.0039
22414SOL    HW167820   2.090   2.016   8.090  1.3423  0.2032  0.3625
22414SOL    HW267821   2.143   1.903   8.177  0.3464 -0.9704 -0.5152
22415SOL     OW67822   3.052   0.782   1.573  0.0888  0.3073  0.3932
22415SOL    HW167823   3.143   0.756   1.587  0.2148 -0.2944 -1.2780
22415SOL    HW267824   3.004   0.742   1.645  0.5879 -2.9411 -0.9317
22416SOL     OW67825   8.687   5.768   5.151  0.0596  0.5294  0.4201
22416SOL    HW167826   8.680   5.864   5.146  1.1569  0.6084  0.2452
22416SOL    HW267827   8.703   5.741   5.060  1.5016  0.3534  0.6980
22417SOL     OW67828   5.336   8.382   3.491  0.0467 -0.2261  0.5881
22417SOL    HW167829   5.412   8.404   3.437 -0.1202 -0.3415  0.3072
22417SOL    HW267830   5.279   8.459   3.484  0.6773  0.3695  1.7675
22418SOL     OW67831   4.950   1.901   0.740  0.6854  0.3668  0.4735
22418SOL    HW167832   4.950   1.840   0.814  0.1135  1.3332  1.2932
22418SOL    HW267833   5.023   1.872   0.685 -0.1007 -1.6124  0.3643
22419SOL     OW67834   5.023   8.035   2.392 -0.4652  0.4211 -0.2330
22419SOL    HW167835   5.063   7.950   2.404 -0.1221  0.4941 -0.8031
22419SOL    HW267836   4.956   8.040   2.460 -1.2909 -0.7876 -0.9138
22420SOL     OW67837   7.065   0.792   2.973  0.4517 -0.3502 -0.0451
22420SOL    HW167838   7.069   0.835   3.059  1.6930 -1.3981  0.4581
22420SOL    HW267839   7.156   0.786   2.945 -0.0374  1.4286 -2.2289
22421SOL     OW67840   3.321   4.053   8.740  0.0674  0.4781  0.0955
22421SOL    HW167841   3.390   3.999   8.699 -0.0202 -0.0091  0.5754
22421SOL    HW267842   3.254   4.062   8.672 -0.3978 -0.9095  0.3352
22422SOL     OW67843   7.055   5.154   0.384 -0.4113 -0.1961  0.0465
22422SOL    HW167844   7.123   5.165   0.317 -1.0855  1.7850 -0.3637
22422SOL    HW267845   7.080   5.216   0.453  1.0471 -3.1331  2.4083
22423SOL     OW67846   1.897   0.529   1.557  0.4350 -1.0769 -0.3017
22423SOL    HW167847   1.991   0.515   1.548  0.1478 -2.7157 -1.1048
22423SOL    HW267848   1.869   0.465   1.623  0.0731  0.4015  1.0671
22424SOL     OW67849   5.289   8.753   2.471  0.6067  0.7122  0.0469
22424SOL    HW167850   5.217   8.812   2.450 -0.1770 -0.2592 -0.0684
22424SOL    HW267851   5.352   8.765   2.399 -0.0027  0.6891 -0.5008
22425SOL     OW67852   8.346   6.257   9.300  0.4666  0.1361 -0.2879
22425SOL    HW167853   8.376   6.173   9.266 -0.6553 -0.5222  0.2630
22425SOL    HW267854   8.262   6.272   9.257  0.3350  0.6391  0.1276
22426SOL     OW67855   7.784   4.567   9.845 -0.0239 -0.1830 -0.2636
22426SOL    HW167856   7.747   4.479   9.856  0.2252 -0.5402 -2.0253
22426SOL    HW267857   7.761   4.592   9.756  1.9390  0.5632 -0.6201
22427SOL     OW67858   1.245   9.158   5.188  0.4840  0.2553  0.1525
22427SOL    HW167859   1.212   9.142   5.100  0.3266  1.7513 -0.0906
22427SOL    HW267860   1.315   9.094   5.200  1.6302  1.0884 -1.7124
22428SOL     OW67861   8.502   1.189   0.028 -0.5051  0.0578 -0.2447
22428SOL    HW167862   8.497   1.235   0.112 -0.2670 -1.3703  0.5819
22428SOL    HW267863   8.414   1.199  -0.010 -0.3143  1.6163 -0.3630
22429SOL     OW67864   9.698   2.938   1.949 -0.3847  0.5945 -1.0412
22429SOL    HW167865   9.680   3.023   1.910 -0.2239  1.2852  0.3441
22429SOL    HW267866   9.730   2.958   2.037 -0.8174 -0.9147 -0.5136
22430SOL     OW67867   3.333   8.494   7.996 -0.0477  0.5859 -0.6714
22430SOL    HW167868   3.344   8.580   8.037 -0.4288  0.8976 -1.1997
22430SOL    HW267869   3.369   8.432   8.059  2.1081  1.2924 -1.1286
22431SOL     OW67870   0.579   4.928   6.402 -0.5369 -0.3649  0.5328
22431SOL    HW167871   0.554   4.881   6.322  0.4152  0.6208 -0.3802
22431SOL    HW267872   0.601   5.016   6.372 -1.1290  0.3408  2.0340
22432SOL     OW67873   2.529   8.292   2.734  0.2231  0.0308  0.0159
22432SOL    HW167874   2.434   8.305   2.733  0.3022  0.6251 -1.0148
22432SOL    HW267875   2.550   8.277   2.826 -0.8601 -0.0182  0.2654
22433SOL     OW67876   4.473   4.850   8.935 -0.5249 -0.3375 -0.3888
22433SOL    HW167877   4.520   4.834   9.016 -0.7576 -2.2040 -0.5684
22433SOL    HW267878   4.518   4.924   8.894 -0.8839  1.1521  1.7623
22434SOL     OW67879   4.783   5.571   4.609 -0.4262 -0.2755 -0.4567
22434SOL    HW167880   4.755   5.654   4.646 -0.7872  0.4251 -2.2171
22434SOL    HW267881   4.840   5.595   4.536 -1.2032 -1.5516 -1.5119
22435SOL     OW67882   7.048   3.352   2.140 -0.2040 -0.2903 -0.4383
22435SOL    HW167883   7.020   3.422   2.081 -0.7804 -0.3234 -0.2142
22435SOL    HW267884   7.115   3.305   2.091  2.1969  2.0110  0.3840
22436SOL     OW67885   9.082   1.703   9.697 -0.0382 -0.2732 -0.1124
22436SOL    HW167886   9.134   1.638   9.650  1.1550  1.0231 -0.6552
22436SOL    HW267887   9.056   1.766   9.630 -0.8056  0.0480  0.4732
22437SOL     OW67888   0.424   1.662   8.078 -0.0082  0.2748 -0.1838
22437SOL    HW167889   0.516   1.676   8.056  1.3243 -1.3583  3.5312
22437SOL    HW267890   0.383   1.748   8.064  1.6161  0.6711 -3.4243
22438SOL     OW67891   0.797   8.824   7.850 -0.4501 -0.2418 -0.5537
22438SOL    HW167892   0.708   8.813   7.819 -1.1198  1.9204  0.3754
22438SOL    HW267893   0.800   8.778   7.934 -1.4728  1.6141  0.5674
22439SOL     OW67894   7.755   4.661   2.603  0.3391  0.3427 -0.2720
22439SOL    HW167895   7.698   4.635   2.531 -0.0242  1.1355 -0.2785
22439SOL    HW267896   7.842   4.666   2.565  0.2410  0.2124 -0.5161
22440SOL     OW67897   6.078   3.475   8.198  0.1824  0.3503 -0.0455
22440SOL    HW167898   6.060   3.561   8.236 -0.8406 -0.3139  1.0660
22440SOL    HW267899   6.143   3.437   8.256  0.3759  0.2393 -0.3343
22441SOL     OW67900   4.445   3.127   1.308  0.2670 -0.1591 -0.1911
22441SOL    HW167901   4.500   3.192   1.266 -0.0485 -0.7023 -1.4922
22441SOL    HW267902   4.380   3.178   1.356  1.3722  0.4782  0.6793
22442SOL     OW67903   5.407   9.060   8.987 -0.1887 -0.3385 -0.1131
22442SOL    HW167904   5.449   8.996   8.930  2.5620  0.3788  0.9898
22442SOL    HW267905   5.375   9.009   9.061  0.7605 -0.6191  0.1110
22443SOL     OW67906   8.300   7.661   3.055 -0.7425 -0.5093 -0.2478
22443SOL    HW167907   8.234   7.597   3.028 -0.4104 -0.8382 -0.2763
22443SOL    HW267908   8.286   7.735   2.995 -0.8641 -0.7146 -0.4752
22444SOL     OW67909   4.025   7.618   8.857  0.2985 -0.3970 -0.0393
22444SOL    HW167910   3.967   7.665   8.917  0.5718 -0.7946  0.5581
22444SOL    HW267911   3.999   7.647   8.770 -0.8927 -0.6860  0.2045
22445SOL     OW67912   6.231   0.724   9.537 -0.5467  0.4007 -0.7636
22445SOL    HW167913   6.254   0.674   9.615  0.8316 -0.6160 -1.7843
22445SOL    HW267914   6.279   0.806   9.546  0.2933 -0.0659 -0.9543
22446SOL     OW67915   8.139   4.867   1.401 -0.0022  0.0088  0.1892
22446SOL    HW167916   8.193   4.883   1.479  0.2153 -1.1168  0.2953
22446SOL    HW267917   8.060   4.919   1.415  0.5447  0.7582  0.5915
22447SOL     OW67918   9.855   7.689   1.317  0.4835 -0.3906 -0.1391
22447SOL    HW167919   9.925   7.687   1.382 -1.5630  1.9251  2.3645
22447SOL    HW267920   9.832   7.782   1.309  1.0120 -0.4092 -4.8138
22448SOL     OW67921   6.921   5.422   3.261  0.1903  0.0998  0.5218
22448SOL    HW167922   6.899   5.360   3.331 -2.3386 -0.8289 -0.9522
22448SOL    HW267923   6.865   5.497   3.277  1.1119  0.7885  0.6192
22449SOL     OW67924   1.004   2.897   4.652  0.4078 -0.0219 -0.2449
22449SOL    HW167925   0.927   2.892   4.596  0.4186  0.6010 -0.3154
22449SOL    HW267926   1.019   2.990   4.664 -0.7408 -0.0622  2.3362
22450SOL     OW67927   2.217   7.170   0.632 -0.5210 -0.4196 -0.3236
22450SOL    HW167928   2.146   7.161   0.696 -0.7018  1.7595 -0.1411
22450SOL    HW267929   2.290   7.207   0.682  0.3019 -1.3758 -0.7921
22451SOL     OW67930   7.221   1.500   8.413 -1.2397 -0.5984 -0.2354
22451SOL    HW167931   7.168   1.578   8.431 -3.2422 -1.5281 -1.6593
22451SOL    HW267932   7.192   1.436   8.478 -0.3208 -0.4871  0.2989
22452SOL     OW67933   7.756   4.809   2.231 -0.2883 -0.1440 -0.7073
22452SOL    HW167934   7.783   4.875   2.167  0.7871  0.2619  0.1277
22452SOL    HW267935   7.661   4.819   2.237 -0.0915  1.7708 -0.1525
22453SOL     OW67936   1.655   2.559   0.743  0.3892  0.2501 -0.7355
22453SOL    HW167937   1.651   2.578   0.649 -1.1150 -0.2027 -0.7951
22453SOL    HW267938   1.733   2.604   0.774  0.1468  1.5700 -1.9527
22454SOL     OW67939   5.590   3.292   1.336 -0.3349  0.8074 -0.4185
22454SOL    HW167940   5.499   3.290   1.306 -0.5277  2.1475  0.0085
22454SOL    HW267941   5.596   3.220   1.399 -0.7235 -0.1323 -1.4375
22455SOL     OW67942   1.916   9.351   2.094 -0.2948 -0.0908  0.1526
22455SOL    HW167943   1.943   9.441   2.078 -1.5567  0.4563  0.9223
22455SOL    HW267944   1.996   9.306   2.121  0.2370  0.9602  0.3872
22456SOL     OW67945   7.549   1.135   5.286 -0.2908  0.8925  0.3042
22456SOL    HW167946   7.635   1.155   5.324  0.5181  3.3698 -2.3877
22456SOL    HW267947   7.491   1.202   5.323 -0.9202 -0.2197  1.4180
22457SOL     OW67948   9.922   7.229   6.096 -0.2426 -0.9595  0.2461
22457SOL    HW167949   9.945   7.154   6.151  0.5828 -0.3969  0.6767
22457SOL    HW267950  10.005   7.257   6.058 -0.5094 -0.1009  0.2890
22458SOL     OW67951   0.376   2.389   4.732  0.3857  0.3042 -0.7418
22458SOL    HW167952   0.465   2.422   4.747  0.5660 -0.7332  0.7274
22458SOL    HW267953   0.324   2.428   4.802  0.0510 -0.4263 -0.5766
22459SOL     OW67954   4.143   0.217   7.014  0.8714 -0.7437 -0.1120
22459SOL    HW167955   4.168   0.302   7.050  0.3754 -0.8978  0.6214
22459SOL    HW267956   4.138   0.159   7.090  1.8111 -1.5912 -0.6733
22460SOL     OW67957   7.783   9.219   4.254  0.2617  0.2045  0.2357
22460SOL    HW167958   7.783   9.203   4.160  1.2359 -0.3344  0.3175
22460SOL    HW267959   7.812   9.310   4.263 -0.2845  0.4050 -0.0013
22461SOL     OW67960   5.169   6.051   9.350  0.1927 -0.5479  0.1850
22461SOL    HW167961   5.105   6.072   9.282  0.8282 -0.4984 -0.4077
22461SOL    HW267962   5.178   6.132   9.400  0.8940 -0.1042 -0.6489
22462SOL     OW67963   8.462   4.840   3.988 -0.0303 -0.0534 -0.2961
22462SOL    HW167964   8.541   4.791   4.012  0.8535  1.7266  0.6540
22462SOL    HW267965   8.490   4.894   3.914 -0.9553 -0.8136 -1.2387
22463SOL     OW67966   9.061   3.830   4.107  0.3441  0.4202 -0.0727
22463SOL    HW167967   9.044   3.748   4.060 -0.9535  0.6414 -0.0285
22463SOL    HW267968   9.120   3.804   4.178 -0.0728 -0.4916 -0.0355
22464SOL     OW67969   3.982   0.676   3.912  0.6237  0.1411  0.2409
22464SOL    HW167970   3.899   0.634   3.932  1.5501 -2.2202 -0.5390
22464SOL    HW267971   4.043   0.642   3.979  1.2165  1.0005  0.1583
22465SOL     OW67972   4.949   9.910   5.844 -0.2600 -0.1809  0.2005
22465SOL    HW167973   4.912   9.898   5.931 -0.2520 -0.7058  0.1325
22465SOL    HW267974   4.886   9.870   5.785  1.5573 -3.4747  0.2738
22466SOL     OW67975   3.989   7.902   3.866  0.0421  0.1789  0.3442
22466SOL    HW167976   3.942   7.883   3.947  0.2409 -0.6434  0.2810
22466SOL    HW267977   4.033   7.985   3.882 -0.8643  0.6095  0.6530
22467SOL     OW67978   1.460   4.618   1.324 -0.4180  0.4728 -0.0760
22467SOL    HW167979   1.467   4.672   1.246 -0.7809  0.0141 -0.4341
22467SOL    HW267980   1.519   4.545   1.308 -0.5259  0.3552  0.0567
22468SOL     OW67981   9.043   7.668   4.299 -0.2511 -0.2328 -0.1063
22468SOL    HW167982   9.046   7.578   4.267 -1.1295 -0.3614  0.1297
22468SOL    HW267983   9.134   7.698   4.298  0.0816 -1.2172  0.0698
22469SOL     OW67984   3.848   1.042   3.373  0.5014 -0.2834  0.6426
22469SOL    HW167985   3.900   1.100   3.317  1.8252 -2.2116 -0.2042
22469SOL    HW267986   3.891   0.957   3.368 -1.9069 -1.6391  1.0758
22470SOL     OW67987   7.052   7.570   2.375 -0.9535  0.3055  0.2071
22470SOL    HW167988   6.978   7.514   2.397 -1.4515  1.2485  1.0380
22470SOL    HW267989   7.101   7.521   2.309 -1.6320 -0.8763  0.5524
22471SOL     OW67990   2.238   1.629   9.186 -0.4334 -0.3574  0.2747
22471SOL    HW167991   2.196   1.692   9.129  0.4811  0.0031 -0.0113
22471SOL    HW267992   2.312   1.596   9.135  0.5911  0.2114  1.3564
22472SOL     OW67993   0.487   3.938   5.988  0.1503 -0.3877 -0.5402
22472SOL    HW167994   0.468   3.914   5.897 -2.3229 -0.5049 -0.0655
22472SOL    HW267995   0.517   4.028   5.983 -1.0069 -0.0277 -1.4048
22473SOL     OW67996   6.139   3.373   5.992  0.2561 -0.6801  0.2253
22473SOL    HW167997   6.056   3.354   6.034 -0.2977 -0.9162 -0.9336
22473SOL    HW267998   6.131   3.334   5.904  1.0730  0.4451 -0.3738
22474SOL     OW67999   7.039   6.132   2.469 -0.5509  0.5186 -0.3882
22474SOL    HW168000   7.105   6.068   2.495  0.9151  1.9851 -0.3600
22474SOL    HW268001   7.010   6.104   2.382  0.6286  0.2561 -0.7045
22475SOL     OW68002   6.851   8.799   7.724  0.5465  0.0357  0.1727
22475SOL    HW168003   6.763   8.770   7.746  0.3628 -0.1242 -0.7288
22475SOL    HW268004   6.890   8.725   7.677  1.7456 -0.5191  1.9483
22476SOL     OW68005   6.650   9.423   4.920 -0.1267  0.1455  0.9187
22476SOL    HW168006   6.620   9.478   4.848  2.0108  1.9247  1.2720
22476SOL    HW268007   6.691   9.348   4.877 -1.5102 -0.3547  0.3964
22477SOL     OW68008   0.087   0.674   6.771 -0.0376  0.3423  0.2592
22477SOL    HW168009   0.048   0.593   6.739 -0.3671  1.0541 -1.1852
22477SOL    HW268010   0.121   0.717   6.693  0.5895  1.3625  1.0713
22478SOL     OW68011   6.305   3.005   8.892 -0.7433  0.2772  0.2028
22478SOL    HW168012   6.339   2.983   8.979 -0.4837  1.5196  0.4306
22478SOL    HW268013   6.326   2.928   8.838  1.2541  0.4503  0.6448
22479SOL     OW68014   3.870   5.743   6.890  0.2107  0.0046  0.1616
22479SOL    HW168015   3.785   5.711   6.859  1.0233 -2.3050  0.1016
22479SOL    HW268016   3.925   5.743   6.812  0.1027  2.3102  0.0293
22480SOL     OW68017   5.481   5.285   1.789  0.1976  0.2438  0.3541
22480SOL    HW168018   5.439   5.243   1.714  0.1617 -1.4509  1.2729
22480SOL    HW268019   5.444   5.241   1.865  0.2394  1.9086  1.4050
22481SOL     OW68020   4.175   2.450   7.048  0.3260 -0.2362  0.1518
22481SOL    HW168021   4.155   2.361   7.076  1.0924 -0.4263  0.1212
22481SOL    HW268022   4.096   2.479   7.003  0.0360 -0.8662  0.2371
22482SOL     OW68023   2.141   2.181   6.469  0.1184  0.2332  0.0860
22482SOL    HW168024   2.228   2.142   6.480  0.4822  1.2803  1.1844
22482SOL    HW268025   2.099   2.169   6.555 -0.6160  0.2280 -0.2672
22483SOL     OW68026   4.254   8.815   3.297 -0.4692 -0.2776  0.3691
22483SOL    HW168027   4.315   8.830   3.369  1.2641  0.6820 -1.2211
22483SOL    HW268028   4.194   8.889   3.300  0.4479  0.5050  0.0405
22484SOL     OW68029   3.605   0.595   6.754 -0.7087  0.5333  0.5079
22484SOL    HW168030   3.693   0.562   6.776 -0.2980 -0.9194 -2.7452
22484SOL    HW268031   3.550   0.517   6.758 -1.4315  1.0393  0.4350
22485SOL     OW68032   7.648   7.754   8.742  0.2350 -0.6273  0.0001
22485SOL    HW168033   7.723   7.775   8.687 -1.0824  2.3511 -0.8837
22485SOL    HW268034   7.675   7.777   8.831  0.6565 -0.4705 -0.1699
22486SOL     OW68035   8.460   1.639   8.888  0.3355  0.9337 -0.6522
22486SOL    HW168036   8.420   1.661   8.804 -0.3661  2.8470  0.1136
22486SOL    HW268037   8.389   1.602   8.940  0.7844 -0.3117 -0.8932
22487SOL     OW68038   2.823   9.251   3.345 -0.1575  0.0678  0.0846
22487SOL    HW168039   2.809   9.343   3.324 -0.7060 -0.3182 -1.3682
22487SOL    HW268040   2.786   9.204   3.271 -1.7770 -1.3975  1.7306
22488SOL     OW68041   0.548   3.881   7.183 -0.3389  0.0749  0.4517
22488SOL    HW168042   0.555   3.869   7.278  3.0586  0.1324  0.3359
22488SOL    HW268043   0.515   3.970   7.173 -0.7753  0.0628  1.5931
22489SOL     OW68044   3.428  -0.029   1.396 -0.1118 -0.7704  0.2818
22489SOL    HW168045   3.430   0.025   1.317 -2.1746 -0.3007  0.4913
22489SOL    HW268046   3.379   0.024   1.460  0.0997 -1.8182  1.3503
22490SOL     OW68047   1.186   3.144   1.816 -0.3974  0.2750  0.6518
22490SOL    HW168048   1.200   3.193   1.897  0.9966  2.7971 -0.9721
22490SOL    HW268049   1.098   3.168   1.788 -0.1741  0.9050  0.4793
22491SOL     OW68050   7.881   2.039   7.998 -0.3746 -0.4780  0.4714
22491SOL    HW168051   7.927   2.010   7.919  2.1091  3.1170  0.3109
22491SOL    HW268052   7.949   2.041   8.065 -0.5315  3.1844  0.7539
22492SOL     OW68053   3.583   9.488   1.525 -0.4496 -0.4970  0.1745
22492SOL    HW168054   3.542   9.505   1.610 -0.2608 -3.0009  0.8324
22492SOL    HW268055   3.668   9.450   1.546 -0.4934 -1.3824 -1.1415
22493SOL     OW68056   6.517   1.043   4.192 -0.4666  0.1165  0.1939
22493SOL    HW168057   6.517   0.958   4.235  2.2546  0.0090  0.1551
22493SOL    HW268058   6.538   1.024   4.101 -1.5278  0.7278 -0.2001
22494SOL     OW68059   8.537   0.516   4.748  0.5465  0.3479 -0.2887
22494SOL    HW168060   8.571   0.479   4.829  0.9078  0.0788 -0.5648
22494SOL    HW268061   8.500   0.601   4.775 -1.6064 -0.7937  0.6119
22495SOL     OW68062   8.192   6.629   4.383  0.6223  0.2184 -0.4709
22495SOL    HW168063   8.113   6.652   4.432  0.5258  0.4613 -0.7291
22495SOL    HW268064   8.250   6.704   4.396  0.2096  0.7560 -1.5267
22496SOL     OW68065   2.535   9.020   0.001  0.0958  0.3336  0.1437
22496SOL    HW168066   2.477   9.002   0.074  0.1598 -0.3174  0.0386
22496SOL    HW268067   2.623   9.008   0.036  0.1277  0.0377 -0.0316
22497SOL     OW68068   9.122   5.478   4.114  0.0529 -0.3680  0.0600
22497SOL    HW168069   9.083   5.527   4.187 -1.6694 -0.2211 -0.8995
22497SOL    HW268070   9.208   5.517   4.102  0.0931  0.0711  1.5540
22498SOL     OW68071   8.094   5.476   5.739  0.6649  0.5340  0.3207
22498SOL    HW168072   8.183   5.439   5.733  1.0338  1.5520 -0.7486
22498SOL    HW268073   8.074   5.505   5.650 -0.0179  1.9572  0.9154
22499SOL     OW68074   4.067   4.097   6.634 -0.7659  0.3239 -0.7187
22499SOL    HW168075   4.158   4.103   6.664 -1.3206 -1.1877  1.5069
22499SOL    HW268076   4.037   4.188   6.630  0.9514  0.8864 -2.0383
22500SOL     OW68077   5.449   5.451   0.045 -0.0640  0.5443  0.5626
22500SOL    HW168078   5.522   5.390   0.052 -1.3776 -1.0548  0.9168
22500SOL    HW268079   5.490   5.536   0.029  1.9038 -0.1368  1.7026
22501SOL     OW68080   5.604   4.126   0.718 -0.5468  0.3428 -0.1593
22501SOL    HW168081   5.524   4.110   0.667 -0.4813  0.7027 -0.3800
22501SOL    HW268082   5.598   4.219   0.743  0.7486  0.9564 -1.8820
22502SOL     OW68083   0.937   5.527   3.032 -0.3048 -0.0337 -0.2005
22502SOL    HW168084   1.005   5.576   2.986 -0.7910  0.8887  0.0440
22502SOL    HW268085   0.936   5.562   3.120 -1.3707  0.2698 -0.3099
22503SOL     OW68086   5.071   3.444   7.318 -0.2412 -0.3736 -0.1503
22503SOL    HW168087   5.053   3.485   7.233 -1.7960  0.1399  0.3915
22503SOL    HW268088   5.115   3.362   7.296  1.2798  0.6985 -1.3475
22504SOL     OW68089   8.283   8.177   8.552 -0.0792 -0.1511 -0.5996
22504SOL    HW168090   8.193   8.206   8.539 -0.4570 -1.2382 -0.5333
22504SOL    HW268091   8.281   8.084   8.530  1.2864  0.0624 -1.7210
22505SOL     OW68092   7.763   1.706   7.971 -0.0668  0.2670 -0.0569
22505SOL    HW168093   7.737   1.644   7.903  1.4749 -0.0587 -0.4097
22505SOL    HW268094   7.849   1.737   7.942 -0.3490  1.7881  0.6543
22506SOL     OW68095   9.886   3.819   2.277 -0.0430  0.0081 -0.2140
22506SOL    HW168096   9.852   3.905   2.252 -0.6919  0.1690  1.1435
22506SOL    HW268097   9.859   3.808   2.368 -0.7929 -2.0539 -0.6389
22507SOL     OW68098   0.795   0.744   0.583 -0.1708 -0.9558 -0.3055
22507SOL    HW168099   0.774   0.734   0.676 -1.7353  2.2542 -0.1763
22507SOL    HW268100   0.822   0.657   0.555  0.8165 -1.9388  3.2353
22508SOL     OW68101   5.376   2.025   0.389  0.0463  0.0511 -0.2289
22508SOL    HW168102   5.313   2.074   0.336  0.8152  0.6897 -0.5676
22508SOL    HW268103   5.349   1.933   0.380 -2.0226  0.4446  1.2134
22509SOL     OW68104   6.113   9.809   4.083  0.2159 -0.3995  0.5341
22509SOL    HW168105   6.167   9.883   4.111  0.1091  0.1973 -0.7733
22509SOL    HW268106   6.048   9.848   4.024  0.8621 -1.6722 -1.0980
22510SOL     OW68107   1.670   9.931   0.947  0.0515  0.5529  0.3585
22510SOL    HW168108   1.750   9.879   0.945 -0.3827 -0.0957 -1.0289
22510SOL    HW268109   1.673   9.984   0.867 -1.1507  0.1215  0.0048
22511SOL     OW68110   6.807   5.531   8.764 -0.2490  0.0793  0.5137
22511SOL    HW168111   6.775   5.620   8.753  0.3063  0.3925  1.2935
22511SOL    HW268112   6.730   5.476   8.755 -0.4850  0.5725 -0.6883
22512SOL     OW68113   3.952   4.990   6.852  0.2136  0.1199  0.8182
22512SOL    HW168114   3.863   5.017   6.874  0.1579  0.1812  0.5220
22512SOL    HW268115   3.941   4.935   6.774  0.5482  1.0236  0.1265
22513SOL     OW68116   8.906   8.279   1.420  0.5514  0.3405  0.2009
22513SOL    HW168117   8.835   8.226   1.384 -1.1566  2.1047  0.8254
22513SOL    HW268118   8.896   8.365   1.379  2.1445  0.7351  0.5594
22514SOL     OW68119   4.123   4.082   9.884 -0.0116  0.4083 -0.2265
22514SOL    HW168120   4.071   4.004   9.902 -0.8675  1.0748  0.2401
22514SOL    HW268121   4.206   4.048   9.848 -0.0208 -0.7404  0.7958
22515SOL     OW68122   0.997   1.996   2.005  0.5596  0.0292  0.3632
22515SOL    HW168123   0.962   2.083   2.023  1.0986  0.1830  0.6784
22515SOL    HW268124   0.975   1.944   2.082 -0.6074 -0.3820 -0.2271
22516SOL     OW68125   5.714   2.145   1.323 -0.1989 -0.5791 -0.3368
22516SOL    HW168126   5.630   2.188   1.338 -0.0127 -0.3434  0.0565
22516SOL    HW268127   5.778   2.200   1.369  0.0348 -1.3356  0.2672
22517SOL     OW68128   4.978   8.113   3.527 -0.3616  0.2318 -0.2123
22517SOL    HW168129   5.004   8.109   3.619 -2.2775  1.5578  0.4445
22517SOL    HW268130   4.911   8.045   3.517 -0.3894  0.3044 -0.5468
22518SOL     OW68131   0.119   6.884   9.106  0.2933  0.4789  0.4856
22518SOL    HW168132   0.125   6.867   9.012  2.9159  0.5091  0.5619
22518SOL    HW268133   0.098   6.977   9.112 -0.0964  0.4324 -0.0469
22519SOL     OW68134   4.675   5.056   7.073 -0.1976 -0.0038  0.0112
22519SOL    HW168135   4.591   5.055   7.028 -0.1363 -0.6813 -0.0951
22519SOL    HW268136   4.664   4.993   7.145  0.8622 -1.6945 -1.2164
22520SOL     OW68137   8.391   7.397   7.043  0.5671  0.0959 -0.5832
22520SOL    HW168138   8.307   7.368   7.080  0.2327  0.2951 -1.1657
22520SOL    HW268139   8.418   7.469   7.099  0.5496 -0.2295 -0.1501
22521SOL     OW68140   0.566   3.068   4.181  0.5596  0.2443  0.1501
22521SOL    HW168141   0.659   3.046   4.195  0.5827  0.5479  0.5134
22521SOL    HW268142   0.528   3.064   4.269 -0.0553 -1.1142 -0.1552
22522SOL     OW68143   1.343   7.561   4.952  0.3217 -0.0727  0.1343
22522SOL    HW168144   1.322   7.635   4.894 -2.1102  0.6168  1.7114
22522SOL    HW268145   1.331   7.596   5.041  0.1683 -2.0771  0.9582
22523SOL     OW68146   4.848   5.734   1.121 -0.1308 -0.0740 -0.1163
22523SOL    HW168147   4.911   5.776   1.062 -0.1418 -0.5081 -0.4370
22523SOL    HW268148   4.788   5.805   1.146  0.0950  0.1936 -0.3282
22524SOL     OW68149   9.804   5.748   8.696 -0.3034 -0.1849 -0.0644
22524SOL    HW168150   9.721   5.725   8.655 -0.0900 -0.3481 -0.4150
22524SOL    HW268151   9.789   5.833   8.737 -0.4735  0.0691 -0.6386
22525SOL     OW68152   8.622   0.193   7.238 -0.2213 -0.0165 -0.2533
22525SOL    HW168153   8.712   0.175   7.214  0.1012  0.4068  0.5962
22525SOL    HW268154   8.573   0.185   7.156  0.8470  1.4835 -1.0783
22526SOL     OW68155   2.450   5.796   0.691  0.4049  0.3760 -0.1703
22526SOL    HW168156   2.449   5.834   0.779  1.8745 -1.8072  0.8680
22526SOL    HW268157   2.383   5.728   0.693  1.9023 -1.1529  0.0259
22527SOL     OW68158   0.171   0.447   8.626 -0.4469  0.8911 -0.1290
22527SOL    HW168159   0.152   0.509   8.697  0.0181  1.9144 -0.8864
22527SOL    HW268160   0.144   0.493   8.546  0.3985  0.3238 -0.7480
22528SOL     OW68161   4.656   5.862   8.213 -0.1730 -0.4129  0.0286
22528SOL    HW168162   4.628   5.952   8.199 -0.0522 -0.5905 -1.4908
22528SOL    HW268163   4.743   5.869   8.252 -1.2033  0.1188  2.3683
22529SOL     OW68164   4.040   1.558   4.143 -0.3996  0.4552 -0.4514
22529SOL    HW168165   4.096   1.540   4.068 -0.8404 -1.0189 -0.4525
22529SOL    HW268166   3.996   1.475   4.161 -1.8555  1.3206  0.1587
22530SOL     OW68167   4.922   5.771   7.294  0.1134  0.2903  0.1816
22530SOL    HW168168   4.860   5.713   7.339  1.1497 -1.8334 -0.9517
22530SOL    HW268169   4.876   5.797   7.214  0.7817 -1.7504 -0.9465
22531SOL     OW68170   6.979   7.816   5.928 -0.4175 -0.3673  0.2737
22531SOL    HW168171   6.905   7.764   5.957 -0.2813 -0.3749  0.6163
22531SOL    HW268172   6.949   7.859   5.848 -0.6278 -0.7432  0.1501
22532SOL     OW68173   4.327   0.423   4.524 -1.0774 -0.1779  0.2697
22532SOL    HW168174   4.269   0.348   4.533 -0.2387 -1.0359 -1.1865
22532SOL    HW268175   4.353   0.424   4.432  1.3849  0.0311  0.8871
22533SOL     OW68176   5.464   9.379   1.039 -0.0180 -0.1211 -0.5973
22533SOL    HW168177   5.432   9.383   0.949 -0.1460 -0.2720 -0.5594
22533SOL    HW268178   5.478   9.471   1.063 -0.7184 -0.0307 -0.5154
22534SOL     OW68179   1.176   8.928   7.836  0.0887 -0.3156 -0.2678
22534SOL    HW168180   1.114   8.856   7.824  0.6733 -0.8119 -0.3147
22534SOL    HW268181   1.256   8.887   7.867 -0.2344  0.5318  1.8706
22535SOL     OW68182   1.500   5.030   0.782 -0.3955  0.0198 -0.0818
22535SOL    HW168183   1.448   5.070   0.713 -1.8115  0.2024  1.0480
22535SOL    HW268184   1.574   5.089   0.795 -0.9633  0.7933 -0.3564
22536SOL     OW68185   0.421   4.599   4.347  0.2251  0.0505 -0.1399
22536SOL    HW168186   0.367   4.628   4.274 -1.0120 -0.0018  0.7191
22536SOL    HW268187   0.482   4.671   4.363 -0.0343  0.3937 -0.6976
22537SOL     OW68188   2.820   4.821   1.564 -0.2330 -0.2010 -0.2058
22537SOL    HW168189   2.792   4.838   1.654  1.5576  0.1524  0.3242
22537SOL    HW268190   2.759   4.870   1.510 -1.5723 -0.7308  0.7888
22538SOL     OW68191   0.789   6.803   1.286 -0.7212 -0.4137 -0.0861
22538SOL    HW168192   0.769   6.731   1.346 -1.7020  1.4208  1.9258
22538SOL    HW268193   0.733   6.875   1.316  0.7400  1.4237 -1.5372
22539SOL     OW68194   9.949   9.825   3.405 -0.6464  0.2347  0.1504
22539SOL    HW168195   9.937   9.835   3.311  0.8699  0.0729 -0.0812
22539SOL    HW268196   9.991   9.907   3.433 -0.7956  0.1544  0.6237
22540SOL     OW68197   6.885   4.686   3.925  0.2516  0.0250 -0.2757
22540SOL    HW168198   6.962   4.737   3.949 -0.3564  0.6960  0.2932
22540SOL    HW268199   6.812   4.729   3.970 -0.4793 -0.5165 -0.8997
22541SOL     OW68200   6.935   9.344   0.187  0.0766  0.1961  0.6491
22541SOL    HW168201   6.875   9.324   0.258  0.4623 -0.4051  0.8060
22541SOL    HW268202   7.017   9.300   0.210 -0.0494 -0.7466 -0.5919
22542SOL     OW68203   8.292   4.263   4.653  0.1991  0.0541 -0.0064
22542SOL    HW168204   8.202   4.260   4.686 -1.2418  0.6325 -3.4639
22542SOL    HW268205   8.327   4.345   4.687 -0.6486 -0.0325  1.1422
22543SOL     OW68206   1.887   3.419   9.656 -0.0560  0.2476  0.4084
22543SOL    HW168207   1.913   3.509   9.640 -0.1258  0.6457  2.3171
22543SOL    HW268208   1.894   3.408   9.751  1.2538 -2.1511  0.1321
22544SOL     OW68209   8.960   0.992   5.644 -0.2621 -0.2676 -0.1285
22544SOL    HW168210   8.865   0.981   5.647 -0.2005 -0.9561 -0.5111
22544SOL    HW268211   8.981   1.041   5.723 -0.9338 -0.1012 -0.0444
22545SOL     OW68212   4.490   1.482   3.153  1.1075 -0.3382 -0.0698
22545SOL    HW168213   4.425   1.550   3.135 -1.9963 -2.9459  0.4521
22545SOL    HW268214   4.468   1.450   3.241  3.1739 -1.2832  0.1600
22546SOL     OW68215   2.364   9.685   9.792  0.0835 -0.3848  0.1058
22546SOL    HW168216   2.320   9.600   9.797  2.4612 -1.7797 -1.0651
22546SOL    HW268217   2.425   9.677   9.719  0.5792  2.2733  0.1171
22547SOL     OW68218   8.172   8.774   7.154  0.3896 -0.3212 -0.3819
22547SOL    HW168219   8.093   8.803   7.107 -0.9274 -1.8175  0.8142
22547SOL    HW268220   8.217   8.717   7.092  1.4731  1.8161 -1.6804
22548SOL     OW68221   8.720   5.407   9.693  0.0093 -0.2757  0.5300
22548SOL    HW168222   8.796   5.349   9.687 -0.8291 -1.2489 -1.3631
22548SOL    HW268223   8.645   5.349   9.698 -0.7977  0.6208 -0.5351
22549SOL     OW68224   0.812   1.501   6.267 -0.3825 -0.5035 -0.3155
22549SOL    HW168225   0.826   1.536   6.179 -0.3665 -1.1260 -0.5629
22549SOL    HW268226   0.880   1.543   6.321  0.2807 -0.9217 -0.8129
22550SOL     OW68227   7.222   8.525   3.779 -0.6408 -0.0510  0.1341
22550SOL    HW168228   7.233   8.445   3.830 -0.9203  0.3867  0.8911
22550SOL    HW268229   7.261   8.505   3.694 -0.2796 -0.8298  0.4767
22551SOL     OW68230   8.719   6.682   3.375  0.2022 -0.5409  0.0792
22551SOL    HW168231   8.802   6.700   3.330  0.8249  0.7294  1.6368
22551SOL    HW268232   8.745   6.652   3.462 -0.9545  0.8656  0.9476
22552SOL     OW68233   5.594   9.881   3.262 -0.3347  0.5800  0.7522
22552SOL    HW168234   5.616   9.845   3.176 -1.3542  1.8004 -0.0404
22552SOL    HW268235   5.553   9.808   3.308  0.7357 -0.2521  0.4361
22553SOL     OW68236   4.510   0.570   3.569 -0.0487 -0.2945  0.2390
22553SOL    HW168237   4.526   0.490   3.519  1.8346 -1.0002  1.8100
22553SOL    HW268238   4.508   0.639   3.503  0.5244 -1.3887 -0.9754
22554SOL     OW68239   1.063   9.121   1.324  0.6947 -0.4641 -0.5525
22554SOL    HW168240   0.981   9.166   1.304  1.0346  1.2963  1.6688
22554SOL    HW268241   1.117   9.186   1.368  2.2413 -2.3489  0.5129
22555SOL     OW68242   4.353   4.766   1.420 -0.1690  0.2466  0.7992
22555SOL    HW168243   4.302   4.820   1.359  0.6802  1.0732  0.7957
22555SOL    HW268244   4.291   4.743   1.489 -1.2771 -1.0995 -0.5873
22556SOL     OW68245   7.977   7.056   9.359 -0.3180  0.2751 -0.3859
22556SOL    HW168246   7.951   7.031   9.271 -0.6920 -0.5268 -0.0577
22556SOL    HW268247   8.064   7.095   9.349 -0.6570  0.8438 -1.1920
22557SOL     OW68248   9.859   2.401   9.728 -0.2221 -0.1046 -0.9719
22557SOL    HW168249   9.780   2.416   9.780  0.8650 -0.8939  1.0158
22557SOL    HW268250   9.903   2.329   9.773  2.2052  1.0820 -1.3213
22558SOL     OW68251   6.121   4.201   9.283  0.6819 -0.1728  0.0757
22558SOL    HW168252   6.207   4.161   9.297  1.3339  1.2042  0.1823
22558SOL    HW268253   6.129   4.289   9.319 -0.1307  0.6932 -1.7195
22559SOL     OW68254   2.348   3.320   9.003  0.2268  0.4998 -0.6483
22559SOL    HW168255   2.436   3.356   8.987  0.5897 -0.0577  0.0288
22559SOL    HW268256   2.362   3.250   9.066 -0.6787  0.2085 -0.7576
22560SOL     OW68257   7.525   1.864   9.610 -0.0850 -0.1785 -0.4934
22560SOL    HW168258   7.589   1.935   9.617 -1.2137  0.7086  1.7814
22560SOL    HW268259   7.577   1.784   9.623  0.6743  0.4904  0.7765
22561SOL     OW68260   0.192   1.717   1.404 -0.3201  0.5038 -0.3466
22561SOL    HW168261   0.164   1.674   1.484  2.3506 -1.6842 -0.4511
22561SOL    HW268262   0.193   1.810   1.426  2.5301 -0.1214  3.0426
22562SOL     OW68263   0.813   0.783   5.316  0.4646 -0.2882  0.5128
22562SOL    HW168264   0.798   0.724   5.242 -1.6511 -0.1297  0.7514
22562SOL    HW268265   0.768   0.741   5.390 -0.2799  1.1378  0.9076
22563SOL     OW68266   6.613   1.411   1.443  0.5800 -0.2730 -0.2870
22563SOL    HW168267   6.679   1.394   1.510  0.4817 -1.0276 -0.3826
22563SOL    HW268268   6.558   1.480   1.481 -0.0746 -1.3688  0.8428
22564SOL     OW68269   9.372   7.073   0.461  0.2440  0.0912  0.2192
22564SOL    HW168270   9.343   7.164   0.467  0.0527  0.0463 -0.0094
22564SOL    HW268271   9.439   7.064   0.529 -2.0437 -0.4754  2.5545
22565SOL     OW68272   5.491   8.912   8.760  0.4581  0.0735  0.0760
22565SOL    HW168273   5.453   8.886   8.676  0.5821 -0.7062  0.2593
22565SOL    HW268274   5.535   8.834   8.792 -0.2881  0.1111  1.2612
22566SOL     OW68275   2.549   3.279   5.557  0.4673 -0.2719 -0.3813
22566SOL    HW168276   2.529   3.192   5.592  1.9699 -0.5137 -0.0744
22566SOL    HW268277   2.643   3.289   5.571  0.3351  1.3532 -0.5405
22567SOL     OW68278   5.620   4.137   6.424  0.0661 -0.1692  0.0477
22567SOL    HW168279   5.708   4.158   6.394  0.2653 -0.1251  0.6515
22567SOL    HW268280   5.633   4.100   6.511 -0.5516  0.2823  0.3319
22568SOL     OW68281   3.096   4.099   5.524  0.1102  0.3112 -0.0968
22568SOL    HW168282   3.105   4.006   5.541 -0.5182 -0.3442 -2.8675
22568SOL    HW268283   3.002   4.116   5.531  0.2322  0.7724  0.5012
22569SOL     OW68284   7.411   7.614   4.586 -0.1984 -0.0108 -0.6434
22569SOL    HW168285   7.423   7.524   4.556 -0.6181  0.0610 -1.0364
22569SOL    HW268286   7.323   7.616   4.622  0.0700  0.0671  0.0407
22570SOL     OW68287   4.358   0.930   7.224 -0.1193  0.1623  0.0776
22570SOL    HW168288   4.324   1.007   7.268  0.6037  0.2572  0.4805
22570SOL    HW268289   4.280   0.877   7.205 -0.3521 -0.6105  2.8119
22571SOL     OW68290   6.576   0.719   0.921  0.2768 -0.0889  0.1072
22571SOL    HW168291   6.604   0.805   0.951  4.1370 -1.5644  1.3186
22571SOL    HW268292   6.517   0.737   0.848  0.5919  3.5349  0.5655
22572SOL     OW68293   5.326   5.715   8.562 -0.0247  0.4631  0.0516
22572SOL    HW168294   5.333   5.650   8.492 -1.7993  0.3774 -0.1124
22572SOL    HW268295   5.272   5.785   8.524  2.0707  2.2105  0.1343
22573SOL     OW68296   7.468   6.337   7.630 -0.0970 -0.2333  0.2923
22573SOL    HW168297   7.436   6.250   7.655  0.2036 -0.8436 -1.3328
22573SOL    HW268298   7.557   6.321   7.600 -0.9969  0.0679 -2.8977
22574SOL     OW68299   8.672   3.688   9.002  0.9271 -0.9361  0.5081
22574SOL    HW168300   8.622   3.671   8.922  1.6348  0.8737 -0.3795
22574SOL    HW268301   8.703   3.602   9.029 -1.1518 -1.8884  0.1058
22575SOL     OW68302  -0.005   5.181   8.021 -0.6659 -0.0316  0.6639
22575SOL    HW168303  -0.001   5.210   8.112  1.2265  2.7946 -0.1802
22575SOL    HW268304   0.052   5.104   8.018  0.6450  0.8627  1.5916
22576SOL     OW68305   2.462   1.520   4.791 -0.4100  0.3223 -0.0287
22576SOL    HW168306   2.433   1.600   4.834 -3.4169 -0.2990 -0.6866
22576SOL    HW268307   2.510   1.472   4.858 -0.3438  1.7157  0.9651
22577SOL     OW68308   2.951   5.010   3.592 -0.1634  0.3209  0.5023
22577SOL    HW168309   2.928   5.097   3.626  1.3207  0.1576  2.0825
22577SOL    HW268310   2.866   4.969   3.574 -1.0300  1.0596  2.5239
22578SOL     OW68311   6.730   7.606   9.427 -0.1247  0.2289 -0.0751
22578SOL    HW168312   6.792   7.615   9.355  2.3228  0.5181  1.9425
22578SOL    HW268313   6.695   7.517   9.418 -0.5072  0.5328 -2.0248
22579SOL     OW68314   8.241   7.621   0.984 -0.4485  0.8708  0.0613
22579SOL    HW168315   8.193   7.632   0.902 -0.3683 -0.0622 -0.1237
22579SOL    HW268316   8.177   7.583   1.044 -0.0258 -0.1272 -0.1076
22580SOL     OW68317   5.168   7.856   3.439  0.4683  0.1348  0.7016
22580SOL    HW168318   5.211   7.941   3.451 -1.8888  1.3615  1.1189
22580SOL    HW268319   5.141   7.830   3.527 -2.1622  0.8948  0.2028
22581SOL     OW68320   9.363   5.848   6.546 -0.0237 -0.0611 -0.1791
22581SOL    HW168321   9.320   5.865   6.462 -0.6064  2.5375  0.5391
22581SOL    HW268322   9.427   5.918   6.555  0.6081 -0.7735  1.1884
22582SOL     OW68323   1.530   5.980   3.752  0.2598  0.4142  0.6615
22582SOL    HW168324   1.511   6.021   3.836 -2.2249 -1.0844  0.9446
22582SOL    HW268325   1.460   6.010   3.694 -0.3960 -1.5920  0.3042
22583SOL     OW68326   0.347   0.918   3.058  0.6687 -0.0730  0.4152
22583SOL    HW168327   0.394   0.897   3.139 -2.2545 -0.9586  2.0330
22583SOL    HW268328   0.260   0.943   3.087  0.2934  2.3172 -2.3681
22584SOL     OW68329   3.752   3.294   0.147 -0.6247 -0.2096  0.1076
22584SOL    HW168330   3.812   3.220   0.146 -0.2368  0.1054 -0.0107
22584SOL    HW268331   3.764   3.334   0.233 -1.2441 -0.6136  0.3888
22585SOL     OW68332   0.021   3.074   5.907 -0.3607  0.7053  0.3339
22585SOL    HW168333   0.059   3.161   5.922 -1.5925  1.3248 -0.0728
22585SOL    HW268334  -0.070   3.082   5.934 -0.6702 -0.2679 -0.3696
22586SOL     OW68335   4.448   7.495   5.654  0.6234 -0.1420 -0.0584
22586SOL    HW168336   4.420   7.404   5.640 -0.5983  0.1701  0.2539
22586SOL    HW268337   4.403   7.545   5.586 -0.2806  0.4924  0.9759
22587SOL     OW68338   6.270   2.859   6.291  0.0920  0.2603  0.1193
22587SOL    HW168339   6.213   2.803   6.344 -0.6024 -0.4089 -1.2830
22587SOL    HW268340   6.347   2.874   6.346 -0.3571 -0.8375  1.0915
22588SOL     OW68341   4.482   6.550   0.393 -0.0381  0.0367  0.4688
22588SOL    HW168342   4.490   6.457   0.370  0.7990 -0.1870  1.5377
22588SOL    HW268343   4.477   6.596   0.309  2.2667 -0.7676 -0.2013
22589SOL     OW68344   1.129   3.511   8.092 -0.4096 -0.2222 -0.0150
22589SOL    HW168345   1.067   3.574   8.128 -0.5262 -0.7481  0.7110
22589SOL    HW268346   1.187   3.490   8.166  0.5153  0.1124 -0.6237
22590SOL     OW68347   2.458   5.999   9.529  0.4212  0.6372  0.1586
22590SOL    HW168348   2.504   5.918   9.548  0.6014 -0.2401 -3.3673
22590SOL    HW268349   2.526   6.066   9.527  0.7496  0.3004  0.0321
22591SOL     OW68350   6.033   1.905   5.922 -0.8499  0.3645  0.3572
22591SOL    HW168351   5.975   1.981   5.914 -0.9668  0.7730  3.7428
22591SOL    HW268352   6.120   1.942   5.933 -0.8972  0.0566  1.9743
22592SOL     OW68353   9.244   2.367   3.900 -0.2759  0.2569  0.1081
22592SOL    HW168354   9.197   2.397   3.823  0.5245 -0.0851 -0.5393
22592SOL    HW268355   9.236   2.438   3.964  0.3065  1.1848 -0.8339
22593SOL     OW68356   0.877   6.768   4.423 -0.4772 -0.1216  0.3228
22593SOL    HW168357   0.817   6.707   4.380 -1.0720  0.5396  0.1911
22593SOL    HW268358   0.853   6.763   4.516 -0.2775 -0.3531  0.3641
22594SOL     OW68359   8.860   2.752   3.338  0.2911  0.2557 -0.2008
22594SOL    HW168360   8.781   2.803   3.358  1.4352  1.4226  1.6479
22594SOL    HW268361   8.845   2.667   3.381  0.7949  1.1553  1.8800
22595SOL     OW68362   5.688   6.166   6.170 -0.6535 -0.4377  0.2844
22595SOL    HW168363   5.633   6.244   6.168 -2.8849 -1.9299 -0.3041
22595SOL    HW268364   5.699   6.142   6.078  1.4049  0.0641  0.3656
22596SOL     OW68365   6.234   7.286   0.134 -0.5400 -0.0501  0.0923
22596SOL    HW168366   6.265   7.341   0.206 -0.1948  0.0311 -0.1179
22596SOL    HW268367   6.292   7.307   0.061 -0.5044 -0.5830 -0.0330
22597SOL     OW68368   0.509   2.512   8.292  0.6921  0.0071  0.0213
22597SOL    HW168369   0.512   2.563   8.372 -0.6767 -0.6242  0.5133
22597SOL    HW268370   0.489   2.575   8.223  0.7959  0.3938  0.3454
22598SOL     OW68371   9.679   8.918   4.021 -0.2341 -0.2171  0.6229
22598SOL    HW168372   9.631   8.907   3.939  0.5575  1.0874 -0.0438
22598SOL    HW268373   9.690   8.829   4.055 -2.2461 -0.6289  0.3196
22599SOL     OW68374   7.518   5.850   1.438  0.3036  0.8585  0.0447
22599SOL    HW168375   7.500   5.821   1.528  3.7675 -0.3919  0.4619
22599SOL    HW268376   7.471   5.787   1.383 -0.2527  0.4625  0.9457
22600SOL     OW68377   4.855   3.601   0.164  0.1231 -0.8564 -0.2286
22600SOL    HW168378   4.842   3.688   0.127  1.2302 -0.6475 -0.1781
22600SOL    HW268379   4.866   3.543   0.089  0.9873 -0.6663 -0.2627
22601SOL     OW68380   2.514   4.098   5.377 -0.0892 -0.1167 -0.0625
22601SOL    HW168381   2.505   4.030   5.311 -0.4917  0.0607 -0.1946
22601SOL    HW268382   2.424   4.114   5.407  0.0743 -0.0969  0.4232
22602SOL     OW68383   9.116   4.202   2.701 -0.0818  0.0131 -0.4233
22602SOL    HW168384   9.148   4.122   2.743 -0.3567 -0.8161 -1.7571
22602SOL    HW268385   9.045   4.232   2.759 -0.2095 -0.8970 -0.0947
22603SOL     OW68386   9.640   8.013   6.426 -0.2643 -0.3574 -0.5089
22603SOL    HW168387   9.627   7.967   6.343 -1.0212 -1.1141  0.0138
22603SOL    HW268388   9.595   7.959   6.491  0.1173  0.3448  0.3637
22604SOL     OW68389   2.502   6.757   6.488  0.4920  0.2385 -0.5698
22604SOL    HW168390   2.573   6.707   6.447  0.0481 -0.5825 -0.3430
22604SOL    HW268391   2.531   6.770   6.579  1.2369  1.6118 -0.9652
22605SOL     OW68392   6.922   7.679   9.246  0.1888  0.1850  0.7068
22605SOL    HW168393   6.944   7.616   9.177  0.2638 -1.3893  2.1106
22605SOL    HW268394   6.937   7.765   9.205 -3.6887 -0.4213 -2.6324
22606SOL     OW68395   0.142   2.566   8.988 -0.3980 -0.3284 -0.4692
22606SOL    HW168396   0.191   2.597   8.912 -0.2002  1.8011  0.4468
22606SOL    HW268397   0.105   2.645   9.027  0.1686 -1.2106  2.0999
22607SOL     OW68398   3.222   0.512   3.352 -0.0782  0.1479  0.3529
22607SOL    HW168399   3.129   0.532   3.362 -0.6715 -1.8150 -0.6799
22607SOL    HW268400   3.252   0.569   3.281 -0.6924  0.2302  0.1605
22608SOL     OW68401   5.888   9.575   6.167 -0.5681  0.1138 -0.3571
22608SOL    HW168402   5.963   9.622   6.131 -0.1669 -0.3913 -0.1867
22608SOL    HW268403   5.856   9.631   6.238 -0.6129  0.5286 -0.7031
22609SOL     OW68404   3.494   4.047   2.416 -0.3127 -0.1140  0.5459
22609SOL    HW168405   3.410   4.003   2.429 -0.3029 -0.1351  0.5366
22609SOL    HW268406   3.551   4.011   2.483 -0.8131  1.2103  1.7345
22610SOL     OW68407   3.027   6.444   6.470 -0.5253 -0.3080  0.5780
22610SOL    HW168408   2.963   6.387   6.427 -1.0647  2.9508 -3.4552
22610SOL    HW268409   2.992   6.532   6.461  2.8821  1.3097  1.3846
22611SOL     OW68410   7.791   8.624   7.075 -0.1249  0.1293  0.4589
22611SOL    HW168411   7.786   8.719   7.082  0.2663  0.1288  0.8274
22611SOL    HW268412   7.822   8.608   6.986  0.1509  0.3612  0.5118
22612SOL     OW68413   0.866   7.534   0.192 -0.3442  0.1783  0.2818
22612SOL    HW168414   0.787   7.510   0.142 -1.4050  2.6812  0.6142
22612SOL    HW268415   0.938   7.492   0.145 -1.9577 -4.0241  1.1763
22613SOL     OW68416   4.384   5.522   9.626 -0.1282  0.2486 -0.6502
22613SOL    HW168417   4.447   5.454   9.651  1.9132  1.5255 -1.9990
22613SOL    HW268418   4.342   5.547   9.708  0.3130 -1.4164  0.1316
22614SOL     OW68419   5.918   1.864   7.025  0.2187  0.1861 -0.1422
22614SOL    HW168420   5.897   1.774   7.000 -1.3360  0.8281 -1.2605
22614SOL    HW268421   5.841   1.914   7.001  0.7035  1.6938  1.3031
22615SOL     OW68422   2.779   5.245   5.906 -0.2927 -0.1499 -0.4538
22615SOL    HW168423   2.837   5.181   5.865  2.5477  1.5258  0.6524
22615SOL    HW268424   2.799   5.327   5.861 -0.3550  0.8392  1.2202
22616SOL     OW68425   1.079   2.263   3.329 -0.0094  0.0241 -0.4108
22616SOL    HW168426   1.066   2.296   3.418 -0.3586  1.7793 -1.0833
22616SOL    HW268427   1.146   2.320   3.292 -1.9607  1.2851 -2.2215
22617SOL     OW68428   0.564   7.447   0.050 -0.3076 -0.0045 -0.1912
22617SOL    HW168429   0.549   7.430  -0.043 -3.1581  0.0731  0.1714
22617SOL    HW268430   0.521   7.375   0.095  0.7849  0.1122  1.1076
22618SOL     OW68431   3.151   5.760   4.931  0.7696 -0.1044  0.4682
22618SOL    HW168432   3.111   5.708   5.000  1.9622 -1.8962 -0.1044
22618SOL    HW268433   3.206   5.823   4.977  0.9610 -0.7710  1.1836
22619SOL     OW68434   5.401   7.269   1.869  0.1488  0.1233  0.0693
22619SOL    HW168435   5.435   7.180   1.867  0.9873  0.3945  1.3408
22619SOL    HW268436   5.478   7.324   1.863 -0.2462  0.7608  0.6866
22620SOL     OW68437   3.656   1.323   8.205  0.0541  0.1901  0.4009
22620SOL    HW168438   3.690   1.271   8.277 -0.0331 -0.7113 -0.1965
22620SOL    HW268439   3.593   1.266   8.161 -0.6125  1.0660  0.1829
22621SOL     OW68440   7.940   5.882   0.270 -0.2848  0.1954  0.3884
22621SOL    HW168441   7.964   5.791   0.287 -0.2428  0.3416  1.1145
22621SOL    HW268442   7.947   5.890   0.175 -1.6496 -0.9482  0.1445
22622SOL     OW68443   3.139   1.702   7.161  0.5878  0.2320 -0.2184
22622SOL    HW168444   3.184   1.683   7.243 -1.8060  0.1372  1.1395
22622SOL    HW268445   3.111   1.617   7.128 -2.0901  0.4845  1.1144
22623SOL     OW68446   6.734   3.548   4.267  0.5176 -0.1054  0.1351
22623SOL    HW168447   6.667   3.521   4.205  0.4483  0.0950  0.1231
22623SOL    HW268448   6.725   3.487   4.340  1.2674 -0.9782 -0.4936
22624SOL     OW68449   7.769   0.656   1.040 -0.1476 -0.0111 -0.5832
22624SOL    HW168450   7.756   0.678   1.132 -0.6498  0.4561 -0.7605
22624SOL    HW268451   7.824   0.578   1.041  0.1667  0.2132  0.1060
22625SOL     OW68452   5.250   1.319   1.365  0.2919  0.2521  0.2226
22625SOL    HW168453   5.196   1.277   1.431  0.4831  0.0991  0.2837
22625SOL    HW268454   5.197   1.320   1.286  0.1500  0.2276  0.3187
22626SOL     OW68455   5.315   8.321   3.126 -0.7311  0.5942 -0.2144
22626SOL    HW168456   5.325   8.289   3.036 -1.0660  0.5496 -0.2375
22626SOL    HW268457   5.322   8.243   3.181  2.3685  0.9218  0.0377
22627SOL     OW68458   3.422   5.621   2.307  0.0888  0.2750  0.0098
22627SOL    HW168459   3.451   5.642   2.396 -0.1008  2.4357 -0.3780
22627SOL    HW268460   3.400   5.528   2.310  1.2071  0.0241  1.9038
22628SOL     OW68461   3.976   1.927   4.678 -0.0450  0.1661 -0.2649
22628SOL    HW168462   3.932   1.967   4.603 -0.6041  1.8191  0.8696
22628SOL    HW268463   3.905   1.887   4.729  0.1501  0.2319  0.0623
22629SOL     OW68464   7.833   4.306   6.255  0.6322  0.1589 -0.2290
22629SOL    HW168465   7.771   4.242   6.221 -0.4690  1.7127 -1.2807
22629SOL    HW268466   7.917   4.282   6.217  0.3220 -0.8881 -0.2618
22630SOL     OW68467   0.067   0.052   8.428  0.1113 -0.2501  0.4066
22630SOL    HW168468  -0.028   0.050   8.442  0.3309 -1.3345  2.1429
22630SOL    HW268469   0.081   0.129   8.373 -1.8623 -0.6722 -0.7906
22631SOL     OW68470   4.056   5.943   2.954 -0.4645 -0.8264 -0.3141
22631SOL    HW168471   4.079   5.992   2.876 -4.1292 -0.2410 -1.2479
22631SOL    HW268472   4.023   6.010   3.015  1.3666 -1.3973  1.4144
22632SOL     OW68473   4.723   6.970   7.864 -0.2318  0.2901  0.6124
22632SOL    HW168474   4.810   6.936   7.887 -0.6923  0.0020  1.9905
22632SOL    HW268475   4.734   7.065   7.866 -0.3099  0.2855  2.3315
22633SOL     OW68476   7.097   8.163   7.004  0.0223 -0.4846  0.4445
22633SOL    HW168477   7.091   8.220   7.081  0.4940  0.5878 -0.2890
22633SOL    HW268478   7.014   8.116   7.003 -1.4015  1.8567 -0.1758
22634SOL     OW68479   0.088   9.514   8.326 -0.0152 -0.1723  0.1462
22634SOL    HW168480   0.076   9.607   8.342 -0.5517 -0.0254 -1.0558
22634SOL    HW268481   0.112   9.478   8.412  0.0130  1.0285  0.6573
22635SOL     OW68482   0.266   9.588   6.636  0.0857 -0.0985  0.3323
22635SOL    HW168483   0.170   9.595   6.636 -0.0295 -0.5057  2.8212
22635SOL    HW268484   0.283   9.503   6.596 -0.7907 -1.0275  1.8209
22636SOL     OW68485   2.992   4.460   3.690  0.5206 -0.2178 -0.2416
22636SOL    HW168486   3.000   4.550   3.658  0.1362 -0.4248 -0.9397
22636SOL    HW268487   2.910   4.459   3.739  0.5717 -0.1692 -0.1537
22637SOL     OW68488   5.050   5.976   7.443  0.0150  0.2585  0.0619
22637SOL    HW168489   5.133   5.945   7.478  1.0820  0.4430 -2.1392
22637SOL    HW268490   5.017   5.902   7.391 -0.1660  0.8826 -0.7307
22638SOL     OW68491   4.312   2.571   3.370 -0.2399 -0.1481 -0.1411
22638SOL    HW168492   4.388   2.540   3.419 -0.2453 -0.7389 -0.5015
22638SOL    HW268493   4.242   2.511   3.395  0.0138 -1.1024 -1.6811
22639SOL     OW68494   5.129   6.202   5.233 -0.5177 -0.4702  0.0069
22639SOL    HW168495   5.193   6.134   5.254 -1.0548 -1.1370 -0.4624
22639SOL    HW268496   5.159   6.239   5.150  0.4977  0.7908  0.8938
22640SOL     OW68497  10.017   4.528   4.658  0.1337  0.7592 -0.1671
22640SOL    HW168498   9.971   4.454   4.618 -0.1005  1.6321 -1.5549
22640SOL    HW268499   9.952   4.567   4.718  0.3314 -0.2621  0.7491
22641SOL     OW68500   8.032   5.105   0.905  0.3541 -0.3960 -0.3656
22641SOL    HW168501   8.049   5.180   0.847 -1.9602  0.0116 -0.5895
22641SOL    HW268502   7.969   5.138   0.968  0.6900 -1.6649  0.6674
22642SOL     OW68503   7.852   8.429   1.601  0.2787  0.0478 -0.8208
22642SOL    HW168504   7.841   8.497   1.535  1.9244  0.6637 -0.4962
22642SOL    HW268505   7.828   8.471   1.684  2.0469  0.5176 -0.5104
22643SOL     OW68506   1.753   8.014   7.028 -0.6459  0.0121 -0.1788
22643SOL    HW168507   1.755   7.920   7.045  0.5279  0.2142  0.9674
22643SOL    HW268508   1.783   8.023   6.938 -1.5242 -0.7406 -0.5680
22644SOL     OW68509   2.371   5.165   0.829  0.5161 -0.5796  0.1590
22644SOL    HW168510   2.415   5.245   0.860  1.7003 -1.8800  2.0700
22644SOL    HW268511   2.416   5.094   0.875 -1.8671 -2.2136  0.1444
22645SOL     OW68512   6.461   0.989   3.656 -0.2215  0.6522 -0.3383
22645SOL    HW168513   6.398   0.942   3.602 -1.3306  0.8570  0.7320
22645SOL    HW268514   6.425   1.078   3.663  0.4831  0.9378 -0.1748
22646SOL     OW68515   7.900   2.910   5.237  0.3215 -0.4722 -0.1713
22646SOL    HW168516   7.903   2.876   5.148  1.9594  2.1598 -1.2227
22646SOL    HW268517   7.946   2.844   5.290  1.0916 -1.1350 -1.6181
22647SOL     OW68518   7.158   2.641   0.820  0.1979  0.0917 -0.0868
22647SOL    HW168519   7.122   2.652   0.733  1.5410  1.5970 -0.5073
22647SOL    HW268520   7.249   2.668   0.812  0.8036 -1.2912  1.4379
22648SOL     OW68521   5.100   0.275   2.935  0.4746  0.7011  0.0058
22648SOL    HW168522   5.015   0.308   2.907 -0.4876 -0.8337  0.9372
22648SOL    HW268523   5.102   0.185   2.903 -0.0642 -0.6624  3.3401
22649SOL     OW68524   5.966   1.190   5.881 -0.2164  0.1229  0.2471
22649SOL    HW168525   5.920   1.201   5.798 -1.2134  0.3757  0.8185
22649SOL    HW268526   5.907   1.227   5.946  1.6967  2.4906  0.7851
22650SOL     OW68527   3.504   5.933   7.907  0.2018 -0.0744 -0.1790
22650SOL    HW168528   3.486   5.891   7.991  1.2905 -1.7282 -0.7420
22650SOL    HW268529   3.599   5.944   7.905  0.0887  0.9646 -0.7429
22651SOL     OW68530   4.153   0.894   9.489 -0.2008  0.1169 -0.2008
22651SOL    HW168531   4.149   0.912   9.395 -1.4868  1.6075  0.0905
22651SOL    HW268532   4.223   0.951   9.521 -0.7025  0.6645 -0.0626
22652SOL     OW68533   2.889   5.091   2.351  0.0860 -0.6979  0.1205
22652SOL    HW168534   2.894   5.007   2.306 -2.2534 -0.2417 -1.1429
22652SOL    HW268535   2.854   5.070   2.437 -1.9885 -0.9240 -0.7274
22653SOL     OW68536   6.996   9.593   0.767 -0.1092 -0.1451  0.1342
22653SOL    HW168537   6.976   9.684   0.747 -1.5631 -0.2142  1.1029
22653SOL    HW268538   6.916   9.545   0.745  0.3896 -1.0777  0.2889
22654SOL     OW68539   4.111   6.523   3.181  0.4732 -0.4916  0.0933
22654SOL    HW168540   4.113   6.558   3.269 -0.1377  2.7827 -1.0627
22654SOL    HW268541   4.074   6.435   3.191 -0.5013  0.1500  2.9662
22655SOL     OW68542   3.758   8.504   7.621 -0.4236  0.2116  0.9910
22655SOL    HW168543   3.842   8.527   7.659  0.1215  0.5962 -0.3785
22655SOL    HW268544   3.729   8.583   7.575 -0.6277 -0.4688 -0.0957
22656SOL     OW68545   2.770   8.005   1.075 -0.1030  0.0663  0.2141
22656SOL    HW168546   2.706   8.064   1.115 -0.3115 -1.4835  2.3142
22656SOL    HW268547   2.847   8.011   1.131 -0.0539 -1.4444  0.3424
22657SOL     OW68548   0.355   7.686   5.164  0.0318 -0.1267  0.3124
22657SOL    HW168549   0.344   7.591   5.176 -0.4842 -0.0851  0.1806
22657SOL    HW268550   0.435   7.694   5.112  1.1298 -0.4033  1.8688
22658SOL     OW68551   0.923   3.993   5.763 -0.2453 -0.7710 -0.0330
22658SOL    HW168552   0.972   4.053   5.820  0.2500 -0.4516 -0.7736
22658SOL    HW268553   0.955   3.906   5.788  0.2657 -0.6082 -0.0932
22659SOL     OW68554   7.777   0.905   1.511 -0.2757  0.5799  0.0976
22659SOL    HW168555   7.872   0.916   1.514 -0.2699  1.2060 -1.4433
22659SOL    HW268556   7.742   0.986   1.548 -0.2067  0.8654 -0.4591
22660SOL     OW68557   3.496   1.407   2.978 -0.1143  0.1308 -0.0120
22660SOL    HW168558   3.508   1.502   2.973 -0.3846  0.1096 -1.6985
22660SOL    HW268559   3.508   1.377   2.887 -0.3893 -1.4014  0.4375
22661SOL     OW68560   3.456   6.583   3.828  0.7005 -0.1225  0.1089
22661SOL    HW168561   3.514   6.509   3.847 -0.1449 -0.5603  1.0685
22661SOL    HW268562   3.444   6.627   3.912  0.8163  0.8400 -0.3621
22662SOL     OW68563   7.642   3.673   3.216  0.3853 -0.4457  0.4362
22662SOL    HW168564   7.601   3.760   3.221  0.9677 -0.1438  0.1135
22662SOL    HW268565   7.674   3.656   3.304 -0.8378 -0.9005  0.8190
22663SOL     OW68566   1.833   8.838   1.788  0.0685 -0.4951 -0.9370
22663SOL    HW168567   1.907   8.878   1.742 -0.1365 -0.5192 -1.2990
22663SOL    HW268568   1.867   8.756   1.823  0.9681  0.7718  1.3051
22664SOL     OW68569   6.040   8.444   9.516  0.0864 -0.0220 -0.0715
22664SOL    HW168570   6.064   8.379   9.450 -1.4395  0.9079 -1.6123
22664SOL    HW268571   5.946   8.457   9.504  0.1768  1.7376  0.8633
22665SOL     OW68572   4.375   0.913   3.907 -0.3270  0.3475 -0.2985
22665SOL    HW168573   4.309   0.974   3.939 -0.6172  0.0953 -0.4023
22665SOL    HW268574   4.384   0.934   3.814  0.4773  1.0448 -0.0712
22666SOL     OW68575   2.265   5.480   7.167  0.0526 -0.3401 -0.4300
22666SOL    HW168576   2.192   5.476   7.105  1.6357  0.2150 -2.4370
22666SOL    HW268577   2.331   5.422   7.129  0.7269 -0.7415  1.2767
22667SOL     OW68578   7.615   6.264   1.760  0.5843  0.1093 -0.3106
22667SOL    HW168579   7.581   6.353   1.767  0.4649  0.0244  0.2200
22667SOL    HW268580   7.702   6.268   1.799  0.9543  0.1941 -1.1315
22668SOL     OW68581   0.516   5.139   0.728  0.0008 -0.4779 -0.2263
22668SOL    HW168582   0.517   5.105   0.817 -0.8680  0.9730  0.3640
22668SOL    HW268583   0.425   5.160   0.711  0.0738 -1.2001 -1.6612
22669SOL     OW68584   4.158   9.944   2.210 -0.1490 -0.1481 -0.1690
22669SOL    HW168585   4.185   9.864   2.165 -0.3167 -0.4255  0.2117
22669SOL    HW268586   4.195  10.015   2.158 -3.0661 -0.2882 -2.6530
22670SOL     OW68587   1.855   6.980   9.223 -0.2665  0.1919 -0.3469
22670SOL    HW168588   1.853   7.062   9.175 -0.9495  0.5276  0.2472
22670SOL    HW268589   1.842   6.913   9.156  0.1498  0.5649 -0.8107
22671SOL     OW68590   2.722   4.827   3.376 -0.1722  0.4254 -0.7604
22671SOL    HW168591   2.670   4.858   3.302 -0.1002  1.2804 -0.4584
22671SOL    HW268592   2.658   4.812   3.445 -0.3248 -1.0174 -1.1836
22672SOL     OW68593   8.498   7.728   7.474  0.0820 -0.1541  0.1425
22672SOL    HW168594   8.578   7.770   7.442  1.7847 -2.2577  1.3436
22672SOL    HW268595   8.491   7.759   7.565  0.3517 -1.0241  0.4701
22673SOL     OW68596   6.658   0.970   0.982  0.3542 -0.6496 -0.2295
22673SOL    HW168597   6.645   1.055   0.939  0.4765 -0.6225 -0.2135
22673SOL    HW268598   6.711   0.990   1.059  0.8441 -0.8141 -0.5167
22674SOL     OW68599   7.985   9.053   3.609  0.2293 -0.1866 -0.1648
22674SOL    HW168600   8.049   8.988   3.581  0.8862  0.3131  0.1472
22674SOL    HW268601   7.909   9.038   3.553  1.0003 -0.1128 -1.2551
22675SOL     OW68602   5.176   0.905   7.511  0.1298  0.1369  0.8539
22675SOL    HW168603   5.089   0.930   7.543 -1.5678 -0.5786 -2.6769
22675SOL    HW268604   5.211   0.985   7.471 -2.5855 -1.0075 -4.7941
22676SOL     OW68605   6.632   7.757   0.402 -0.2525  0.0575  0.0402
22676SOL    HW168606   6.611   7.694   0.334 -0.1556 -0.2673  0.3095
22676SOL    HW268607   6.548   7.774   0.445 -0.7516  1.9638 -1.5790
22677SOL     OW68608   2.694   0.589   6.288  0.0048  0.0022 -0.1312
22677SOL    HW168609   2.710   0.664   6.345  2.7775 -0.7417  0.2411
22677SOL    HW268610   2.636   0.622   6.220  0.6433  2.3088  0.3646
22678SOL     OW68611   9.435   1.495   9.025 -0.5552 -0.8748 -0.2988
22678SOL    HW168612   9.467   1.423   9.080 -0.1834 -0.7540 -0.3529
22678SOL    HW268613   9.351   1.465   8.992  0.8510 -2.5241 -2.6841
22679SOL     OW68614   6.549   9.726   7.004  0.2273 -0.1304 -0.5713
22679SOL    HW168615   6.529   9.637   7.032  0.0024  0.2239  0.4444
22679SOL    HW268616   6.481   9.748   6.941 -2.1423  0.7080  2.1070
22680SOL     OW68617   0.789   5.406   9.300  0.5077  0.2797  0.0431
22680SOL    HW168618   0.733   5.387   9.225  1.6839 -0.6958 -0.6261
22680SOL    HW268619   0.831   5.489   9.278  1.5858 -0.4647 -0.8876
22681SOL     OW68620   6.299   6.276   7.258  0.2601  0.2624  0.3310
22681SOL    HW168621   6.295   6.364   7.219 -0.3887  1.0036  1.9740
22681SOL    HW268622   6.384   6.242   7.232  0.4708  1.3327 -0.4432
22682SOL     OW68623   2.836   0.325   2.145  0.5207  0.5214 -0.6963
22682SOL    HW168624   2.834   0.391   2.214  2.0684  0.1754 -0.2767
22682SOL    HW268625   2.775   0.358   2.079  0.9681  2.1886 -0.3280
22683SOL     OW68626   4.467   3.759   9.363  0.3211 -0.5691  0.2135
22683SOL    HW168627   4.510   3.783   9.445 -2.8250  0.3634  1.7504
22683SOL    HW268628   4.440   3.668   9.375  1.5746 -1.0877 -0.6636
22684SOL     OW68629   8.772   7.936   7.967 -0.2551  0.0917 -0.0809
22684SOL    HW168630   8.752   8.015   7.916 -0.5918  0.4823  0.6386
22684SOL    HW268631   8.868   7.932   7.969 -0.2053  1.0507  0.7010
22685SOL     OW68632   3.141   9.104   0.089  0.0291 -0.6339 -0.7153
22685SOL    HW168633   3.184   9.173   0.138 -1.1480 -0.7181  0.4865
22685SOL    HW268634   3.168   9.023   0.133  1.5412 -1.0041 -2.2170
22686SOL     OW68635   2.182   9.036   6.200 -0.6043 -0.2909  0.5309
22686SOL    HW168636   2.090   9.019   6.177 -0.9821  0.9835  1.0158
22686SOL    HW268637   2.178   9.110   6.260  0.8886  0.8746 -0.7382
22687SOL     OW68638   3.945   3.139   3.572  0.2341  0.5344 -0.0432
22687SOL    HW168639   3.876   3.088   3.614 -0.9861  0.5931 -1.8560
22687SOL    HW268640   4.024   3.088   3.585 -0.0824  0.4834  2.1345
22688SOL     OW68641   8.103   1.221   4.188 -0.2060  0.7979 -0.4734
22688SOL    HW168642   8.114   1.315   4.173 -0.7794  0.8123 -0.8057
22688SOL    HW268643   8.066   1.187   4.107 -0.9990  0.4625  0.0207
22689SOL     OW68644   6.452   8.298   0.773  0.1219 -0.6607 -0.4798
22689SOL    HW168645   6.488   8.215   0.743 -0.0586  0.1091 -3.1142
22689SOL    HW268646   6.357   8.285   0.772  0.1113 -0.6098 -0.2578
22690SOL     OW68647   4.959   6.295   8.224 -0.4387 -0.2238  0.8074
22690SOL    HW168648   4.981   6.387   8.237  1.3156 -0.7222  1.6718
22690SOL    HW268649   4.929   6.291   8.133  0.4332  1.0480  0.4285
22691SOL     OW68650   8.218   1.504   9.085 -0.1720 -0.1539  0.4227
22691SOL    HW168651   8.144   1.445   9.070 -0.7256  0.8729 -1.0376
22691SOL    HW268652   8.284   1.448   9.127 -1.8403 -1.0328  2.0631
22692SOL     OW68653   4.583   8.451   8.833  0.1289 -0.1498 -0.7356
22692SOL    HW168654   4.497   8.475   8.867 -0.5679 -2.3347 -0.8084
22692SOL    HW268655   4.645   8.484   8.898 -0.8097  0.6048 -0.2055
22693SOL     OW68656   0.171   2.177   6.650 -0.0443  0.1773 -0.0816
22693SOL    HW168657   0.196   2.226   6.572  0.5373  0.9825  0.5910
22693SOL    HW268658   0.118   2.238   6.702  1.0370  0.2694  0.9639
22694SOL     OW68659   1.904   2.810   3.442  0.4276  0.2405  0.0215
22694SOL    HW168660   1.963   2.799   3.517  1.2803 -1.8415 -0.8543
22694SOL    HW268661   1.961   2.840   3.371  0.0061  0.3651 -0.2639
22695SOL     OW68662   4.258   9.334   7.082  0.5033  0.2771 -0.0246
22695SOL    HW168663   4.177   9.347   7.131  1.6381  0.8752  1.7938
22695SOL    HW268664   4.267   9.239   7.076 -0.4202  0.1986 -0.4594
22696SOL     OW68665   8.085   4.311   6.415 -0.0585  0.5302 -0.5802
22696SOL    HW168666   8.084   4.234   6.472 -1.8300  0.5864 -0.4923
22696SOL    HW268667   8.071   4.276   6.327 -4.1713  0.8703 -0.2390
22697SOL     OW68668   0.209   6.988   1.346  0.1231 -0.4313  0.1753
22697SOL    HW168669   0.279   6.925   1.330 -0.3267 -0.9703  0.2840
22697SOL    HW268670   0.143   6.938   1.395 -0.1469  0.1832  0.4505
22698SOL     OW68671   3.256   0.069   1.593 -0.0927  0.8579  0.1036
22698SOL    HW168672   3.215   0.135   1.537 -1.4364  0.7273  0.8863
22698SOL    HW268673   3.270   0.114   1.676  0.3532  0.5753  0.1846
22699SOL     OW68674   1.330   7.690   5.204 -0.0453  0.2109 -0.1948
22699SOL    HW168675   1.407   7.747   5.201 -1.0376  1.6256 -0.0115
22699SOL    HW268676   1.256   7.750   5.201 -1.1601 -0.9168  2.1264
22700SOL     OW68677   5.800   2.364   7.727 -0.3455  0.5251 -0.4072
22700SOL    HW168678   5.760   2.351   7.640 -0.0170  0.8862 -0.6131
22700SOL    HW268679   5.853   2.286   7.740  1.1435  1.3360 -1.3819
22701SOL     OW68680   6.907   2.837   8.994 -0.2610  0.3451  0.7040
22701SOL    HW168681   6.851   2.866   8.922 -0.0982  0.5568  0.6620
22701SOL    HW268682   6.994   2.829   8.954 -0.2296  0.1639  0.8054
22702SOL     OW68683   0.611   4.236   4.625  0.1251 -0.5277 -0.1853
22702SOL    HW168684   0.592   4.305   4.687  0.4456  0.1052 -0.7798
22702SOL    HW268685   0.679   4.273   4.568  0.6989 -1.5189 -0.1724
22703SOL     OW68686   9.595   5.608   7.602 -0.6180 -0.0341  0.0658
22703SOL    HW168687   9.598   5.563   7.687  0.8699  1.5030  0.9012
22703SOL    HW268688   9.685   5.602   7.569 -1.1668 -0.5282 -1.3841
22704SOL     OW68689   9.529   4.780   3.151  0.5206  0.0555  0.6326
22704SOL    HW168690   9.438   4.759   3.174  0.4315 -1.0995 -0.6490
22704SOL    HW268691   9.529   4.786   3.056  2.0622 -1.5004  0.4683
22705SOL     OW68692   2.873   7.642   8.918  0.3789 -0.3202 -0.1164
22705SOL    HW168693   2.866   7.615   8.826 -0.0371  1.2812 -0.5986
22705SOL    HW268694   2.949   7.700   8.920  1.4597 -1.7125  0.9508
22706SOL     OW68695   9.181   1.532   8.583  0.1711 -0.4918  0.1670
22706SOL    HW168696   9.209   1.598   8.520  0.2566  0.4106  1.1107
22706SOL    HW268697   9.231   1.552   8.662 -1.5893 -0.1356  1.2474
22707SOL     OW68698   7.924   7.307   0.077  0.1052  0.2860 -0.0978
22707SOL    HW168699   8.015   7.337   0.069  0.3723 -0.3573  0.4700
22707SOL    HW268700   7.887   7.319  -0.011  0.8554  0.1836 -0.4353
22708SOL     OW68701   7.435   0.066   1.644 -0.3892 -0.2870  0.3100
22708SOL    HW168702   7.351   0.071   1.690 -0.3291  0.9587  0.3217
22708SOL    HW268703   7.501   0.082   1.712 -0.2988  1.5688 -0.1514
22709SOL     OW68704   4.212   9.084   6.915 -0.3344  0.1557 -0.3125
22709SOL    HW168705   4.199   9.029   6.992 -2.4750 -0.0125 -0.7373
22709SOL    HW268706   4.142   9.059   6.855  0.6567  0.9995 -1.9241
22710SOL     OW68707   5.442   0.524   2.510 -0.6419 -0.5392  0.1608
22710SOL    HW168708   5.403   0.598   2.464  1.9337  1.5168  1.0477
22710SOL    HW268709   5.454   0.458   2.442 -1.3781  0.5226 -1.0533
22711SOL     OW68710   5.698   9.341   6.550  0.2375  0.0922  0.2215
22711SOL    HW168711   5.658   9.374   6.631  0.4605  1.1922 -0.0984
22711SOL    HW268712   5.656   9.257   6.535 -0.4595  0.2873  1.0023
22712SOL     OW68713   3.371   5.692   8.923 -0.3474 -0.4078  0.2176
22712SOL    HW168714   3.421   5.719   8.999  0.3970 -0.5407 -0.2188
22712SOL    HW268715   3.332   5.608   8.948 -0.9503  0.0497  0.8174
22713SOL     OW68716   5.343   6.011   8.053 -0.3106  0.8286 -1.0664
22713SOL    HW168717   5.287   6.070   8.104 -0.9921  2.2735 -3.3220
22713SOL    HW268718   5.394   6.069   7.996  1.8695 -0.5999 -0.6921
22714SOL     OW68719   1.407   4.185   6.289 -0.3498 -0.0897  0.2454
22714SOL    HW168720   1.361   4.267   6.268 -0.1303  0.1182  0.5602
22714SOL    HW268721   1.377   4.164   6.377  0.6645  0.4104  0.7255
22715SOL     OW68722   4.741   7.907   7.405 -0.0255  0.1568  0.2935
22715SOL    HW168723   4.694   7.967   7.347 -1.6069 -1.0106  0.3054
22715SOL    HW268724   4.727   7.943   7.492 -1.4250 -0.4699  0.3545
22716SOL     OW68725   8.382   7.209   8.469  0.5330 -0.1678  0.2740
22716SOL    HW168726   8.407   7.300   8.487 -2.0127  0.5788  0.3888
22716SOL    HW268727   8.358   7.209   8.377 -1.0805 -0.2924  0.6718
22717SOL     OW68728   9.230   9.947   7.832  0.3874  0.0064  0.1707
22717SOL    HW168729   9.191   9.861   7.818 -0.0755  0.2991 -0.3622
22717SOL    HW268730   9.264   9.972   7.746  1.1956  0.0307  0.4852
22718SOL     OW68731   6.408   5.087   7.831  1.0133  0.0636  0.2416
22718SOL    HW168732   6.368   5.066   7.916  0.3121  0.2859 -0.0240
22718SOL    HW268733   6.471   5.156   7.851  0.9569  0.0111  0.6099
22719SOL     OW68734   7.794   2.441   2.934  0.5781  0.3127 -0.2037
22719SOL    HW168735   7.720   2.495   2.962  1.7520  2.1126 -0.3614
22719SOL    HW268736   7.823   2.396   3.014  0.1897  0.6956  0.1579
22720SOL     OW68737   6.163   8.941   4.902 -0.2659  0.4065  0.1232
22720SOL    HW168738   6.086   8.992   4.928  0.0502  1.3062 -0.6346
22720SOL    HW268739   6.143   8.911   4.814 -0.2508 -0.3981  0.3916
22721SOL     OW68740   6.824   5.625   9.550  0.5257  0.3539 -0.0206
22721SOL    HW168741   6.758   5.567   9.513  2.2119 -0.7677 -1.4489
22721SOL    HW268742   6.800   5.712   9.519 -1.7668  0.4258  1.7555
22722SOL     OW68743   2.834   7.075   6.794  0.0106 -0.1737 -0.2305
22722SOL    HW168744   2.888   7.048   6.869 -0.0510  1.2436  0.3581
22722SOL    HW268745   2.867   7.162   6.772 -0.9389  0.0161 -0.9346
22723SOL     OW68746   9.623   7.200   3.563 -0.2962 -0.1124  0.1644
22723SOL    HW168747   9.536   7.176   3.532 -0.5037 -0.0817  0.7274
22723SOL    HW268748   9.617   7.198   3.658  0.6866 -1.4457  0.2204
22724SOL     OW68749   1.894   0.780   7.199 -0.3248 -0.2528 -0.9431
22724SOL    HW168750   1.826   0.846   7.214 -1.3696 -1.7013  1.2385
22724SOL    HW268751   1.852   0.714   7.144  0.1575  0.0523 -1.6876
22725SOL     OW68752   4.322   3.222   8.846 -0.5637  0.7274  0.0245
22725SOL    HW168753   4.360   3.248   8.762  1.0848 -0.2642  0.4158
22725SOL    HW268754   4.384   3.254   8.911  0.1285 -1.6658  0.6477
22726SOL     OW68755   9.200   3.362   9.136  0.2094  0.0148 -0.1849
22726SOL    HW168756   9.173   3.271   9.129 -0.8900  0.0191  2.6276
22726SOL    HW268757   9.278   3.361   9.190  0.2074  0.7335 -0.1499
22727SOL     OW68758   7.356   1.216   4.974  0.0380 -0.1202  0.6793
22727SOL    HW168759   7.371   1.124   4.997  0.0718  0.1439  1.7832
22727SOL    HW268760   7.407   1.230   4.894  0.7555 -0.8218  1.0043
22728SOL     OW68761   8.923   6.920   2.549  0.0997  0.5677  0.0707
22728SOL    HW168762   8.833   6.889   2.540  0.3507 -0.1024 -0.1870
22728SOL    HW268763   8.916   7.016   2.548 -0.4943  0.5400 -1.2748
22729SOL     OW68764   5.305   4.619   9.682 -0.0883 -0.1488  0.1454
22729SOL    HW168765   5.358   4.679   9.630  0.2560 -0.2761  0.3439
22729SOL    HW268766   5.331   4.635   9.773  0.8823 -1.4092  0.1240
22730SOL     OW68767   5.632   9.871   0.059  0.1555  0.3193  0.0038
22730SOL    HW168768   5.721   9.857   0.091 -0.2257  0.6239  1.2770
22730SOL    HW268769   5.586   9.907   0.135 -1.3622 -0.9888 -0.2501
22731SOL     OW68770   5.526   6.527   1.645  0.1781 -0.3727 -0.2006
22731SOL    HW168771   5.454   6.521   1.708 -0.2165  1.4152 -0.4176
22731SOL    HW268772   5.503   6.466   1.576 -1.0764  0.0395 -0.1782
22732SOL     OW68773   1.281   6.613   1.976  0.2073  0.1204  0.0146
22732SOL    HW168774   1.340   6.581   2.044  0.6958  0.2666 -0.3375
22732SOL    HW268775   1.266   6.705   1.999  0.3870  0.1751 -0.0871
22733SOL     OW68776   8.104   5.319   9.926  0.2197  0.0314  0.5406
22733SOL    HW168777   8.074   5.229   9.915  0.9032 -0.0054 -1.4585
22733SOL    HW268778   8.194   5.311   9.956  0.2027  0.0498  0.5940
22734SOL     OW68779   7.797   8.264   9.854  0.2589 -0.3522 -0.3800
22734SOL    HW168780   7.742   8.222   9.788  0.9470  0.3775 -1.4628
22734SOL    HW268781   7.752   8.346   9.874 -1.1265 -1.5182  1.7928
22735SOL     OW68782   0.952   9.241   2.557  0.1762  0.1503 -0.0089
22735SOL    HW168783   0.905   9.171   2.601  0.1064  0.6521  0.7322
22735SOL    HW268784   1.030   9.255   2.611  0.3609  0.4047 -0.3400
22736SOL     OW68785   9.041   3.305   7.001 -0.0190 -0.1453 -0.3375
22736SOL    HW168786   9.107   3.332   7.066 -0.5723 -1.3202  0.7515
22736SOL    HW268787   9.074   3.339   6.918  1.4913  0.1028  0.3319
22737SOL     OW68788   3.128   4.848   6.092 -0.1878  0.7041  0.4484
22737SOL    HW168789   3.211   4.807   6.115 -0.2216  0.2941 -0.1407
22737SOL    HW268790   3.131   4.855   5.997 -1.4259 -0.6005  0.2952
22738SOL     OW68791   6.526   4.193   1.840 -0.2831  0.3489 -0.2357
22738SOL    HW168792   6.589   4.249   1.794  0.0766 -0.5077 -0.8181
22738SOL    HW268793   6.564   4.105   1.835 -1.0134 -0.0101  0.3365
22739SOL     OW68794   4.438   0.256   7.918  0.0434  0.3508 -0.0240
22739SOL    HW168795   4.487   0.303   7.851  0.3667  1.5190  0.9881
22739SOL    HW268796   4.348   0.284   7.907  0.3154  1.7331  0.9337
22740SOL     OW68797   7.871   1.877   7.548 -0.1643  0.1920 -0.1940
22740SOL    HW168798   7.780   1.904   7.555 -0.0647  0.9997 -1.6916
22740SOL    HW268799   7.867   1.782   7.536 -0.7223  0.0599  0.9081
22741SOL     OW68800   4.438   7.858   5.082 -0.3317  0.2455 -0.7122
22741SOL    HW168801   4.526   7.893   5.095 -0.2593 -0.6139  1.6292
22741SOL    HW268802   4.382   7.910   5.141 -0.6020 -1.8945  1.0722
22742SOL     OW68803   8.361   5.717   6.624 -1.0548 -0.0786  1.2073
22742SOL    HW168804   8.279   5.670   6.608 -0.1796 -1.4242  0.3728
22742SOL    HW268805   8.426   5.669   6.571 -0.3048  2.8492 -0.7586
22743SOL     OW68806   2.662   3.349   2.454  0.0020  0.4532  0.1031
22743SOL    HW168807   2.678   3.262   2.419  0.7338 -0.6532  2.9089
22743SOL    HW268808   2.576   3.373   2.419  0.5711 -0.5376 -2.1831
22744SOL     OW68809   2.429   6.992   4.070 -0.3632  0.5959 -0.0669
22744SOL    HW168810   2.452   7.076   4.029 -1.4343  0.4062 -1.1062
22744SOL    HW268811   2.489   6.929   4.031 -1.1570  0.4752 -1.1411
22745SOL     OW68812   1.173   2.621   1.302 -0.4084  0.1144  0.1258
22745SOL    HW168813   1.125   2.704   1.297 -0.4841  0.0363 -0.5418
22745SOL    HW268814   1.106   2.554   1.289 -0.3470 -0.0592  0.6701
22746SOL     OW68815   8.082   8.507   8.754  0.3961 -0.2661  0.2834
22746SOL    HW168816   8.152   8.467   8.702  1.0066  0.0222  0.8774
22746SOL    HW268817   8.063   8.444   8.823 -1.4220 -1.3144 -1.0722
22747SOL     OW68818   0.935   7.044   1.267  0.0034  0.0401  0.0046
22747SOL    HW168819   0.884   6.967   1.293  0.4114  0.1390  1.1620
22747SOL    HW268820   1.015   7.007   1.230 -0.4143 -0.1003 -0.7729
22748SOL     OW68821   0.955   5.370   1.517 -0.3747 -0.1840  0.6466
22748SOL    HW168822   0.997   5.312   1.454  1.2863 -0.3694  1.8767
22748SOL    HW268823   0.884   5.412   1.467  2.8848  2.2652 -2.4004
22749SOL     OW68824   5.986   7.949   7.575  0.4026  0.0575 -0.5963
22749SOL    HW168825   6.079   7.938   7.596  0.1010  0.2294  0.9256
22749SOL    HW268826   5.962   7.868   7.530  0.7841 -0.9663  0.9660
22750SOL     OW68827   3.303   8.905   6.404  0.1125 -0.0684  0.3324
22750SOL    HW168828   3.289   8.852   6.325 -0.7556  1.6922 -0.7533
22750SOL    HW268829   3.251   8.861   6.471 -1.8445  0.1985 -0.9216
22751SOL     OW68830   5.208   6.691   6.616  0.1382 -0.5234  0.8614
22751SOL    HW168831   5.256   6.751   6.674  2.7441 -1.5613 -0.0614
22751SOL    HW268832   5.277   6.648   6.566 -1.9039 -1.3183 -1.3992
22752SOL     OW68833   3.621   3.698   0.340 -0.2480  0.2144  0.1193
22752SOL    HW168834   3.620   3.614   0.293 -0.7292  1.9872 -3.3999
22752SOL    HW268835   3.714   3.716   0.354 -0.1202 -0.6608  0.4823
22753SOL     OW68836   6.119   9.075   2.089 -0.3442 -0.4095 -0.6651
22753SOL    HW168837   6.151   9.048   2.175 -1.1103  0.0958 -0.2084
22753SOL    HW268838   6.049   9.137   2.108  0.2289  0.5750 -1.6701
22754SOL     OW68839   2.189   6.277   6.365  0.6616  0.2809 -0.1856
22754SOL    HW168840   2.186   6.183   6.381 -1.2833  0.5920  1.6584
22754SOL    HW268841   2.237   6.286   6.282 -1.2103 -2.4895 -1.7054
22755SOL     OW68842   6.928   0.132   6.867 -0.3369 -0.1581  0.5425
22755SOL    HW168843   6.972   0.091   6.792 -2.6249 -0.4172 -0.7226
22755SOL    HW268844   6.993   0.125   6.938  1.0458 -1.9828 -0.7795
22756SOL     OW68845   6.599   4.876   2.934  0.2644  0.1474  0.5798
22756SOL    HW168846   6.682   4.829   2.939 -0.3049 -0.9952 -0.2262
22756SOL    HW268847   6.604   4.942   3.003  0.4549 -2.1378  2.8950
22757SOL     OW68848   9.666   1.323   9.518  0.5660  0.7001  0.1696
22757SOL    HW168849   9.702   1.393   9.572  0.6785  1.0491 -0.3439
22757SOL    HW268850   9.652   1.250   9.578  0.3943  1.1855  0.7265
22758SOL     OW68851   0.764   4.675   9.857  0.0533 -0.4252 -0.0341
22758SOL    HW168852   0.689   4.729   9.882  1.1418  0.8541  0.5829
22758SOL    HW268853   0.743   4.588   9.892 -2.5516 -0.9782 -2.5999
22759SOL     OW68854   2.670   6.804   6.741  0.4772 -0.3133  0.1889
22759SOL    HW168855   2.677   6.753   6.822 -1.2932 -2.1474 -0.7116
22759SOL    HW268856   2.743   6.865   6.745  2.0297 -2.1261  1.9241
22760SOL     OW68857   4.693   5.826   3.746  0.4917  0.1212 -0.4389
22760SOL    HW168858   4.735   5.743   3.772 -0.1526  0.1641  0.7828
22760SOL    HW268859   4.672   5.813   3.653  2.6216 -0.1375 -0.9466
22761SOL     OW68860   7.770   7.866   8.957  0.0848 -0.1477  0.3906
22761SOL    HW168861   7.835   7.798   8.969  0.3033  0.0826  0.5147
22761SOL    HW268862   7.819   7.948   8.958 -0.2316  0.0462  0.7657
22762SOL     OW68863   1.226   5.577   4.029 -0.2616  0.2496 -0.1509
22762SOL    HW168864   1.137   5.601   4.056 -0.9484 -0.4290 -1.7055
22762SOL    HW268865   1.242   5.493   4.073  0.0710  0.8922  1.0098
22763SOL     OW68866   4.822   2.527   4.769  0.0126  0.1491  0.6299
22763SOL    HW168867   4.783   2.442   4.789 -0.6072 -0.0576 -1.2362
22763SOL    HW268868   4.748   2.582   4.743  0.5627  0.8352  0.4796
22764SOL     OW68869   3.357   5.429   1.615 -0.3313 -0.2330  0.4186
22764SOL    HW168870   3.347   5.399   1.524  0.3475  2.1038 -0.4815
22764SOL    HW268871   3.442   5.394   1.642 -0.1780 -0.2929 -0.1231
22765SOL     OW68872   4.804   1.827   1.576  0.3838 -0.3504 -0.1056
22765SOL    HW168873   4.800   1.917   1.544 -0.5433 -0.5981 -0.7241
22765SOL    HW268874   4.807   1.835   1.671  1.4449  0.3493 -0.1779
22766SOL     OW68875   3.059   1.078   3.827 -0.0783 -0.8850  0.1945
22766SOL    HW168876   3.125   1.132   3.869 -0.2326 -0.6708  0.1605
22766SOL    HW268877   3.109   1.005   3.788  0.3038 -0.0303 -0.9735
22767SOL     OW68878   4.328   0.682   1.956 -0.2837  0.1240  0.2412
22767SOL    HW168879   4.371   0.766   1.971  0.8211 -0.3749 -0.0551
22767SOL    HW268880   4.235   0.704   1.950 -0.0658  1.2559  0.6550
22768SOL     OW68881   3.737   5.877   2.058  0.2557  0.3735  0.0468
22768SOL    HW168882   3.813   5.873   1.999  0.8284  1.3156  0.6859
22768SOL    HW268883   3.776   5.881   2.145 -0.5007  1.6613  0.3442
22769SOL     OW68884   8.243   3.868   2.174 -0.5802  0.0736 -0.7965
22769SOL    HW168885   8.316   3.891   2.117 -0.1678 -0.1136 -0.3516
22769SOL    HW268886   8.260   3.915   2.256 -0.9228 -0.0226 -0.6649
22770SOL     OW68887   8.936   2.771   0.525 -0.1997  0.1596 -0.0809
22770SOL    HW168888   8.892   2.817   0.453  1.9917  1.0426 -0.9575
22770SOL    HW268889   8.989   2.838   0.568  0.0142 -0.7651  1.1585
22771SOL     OW68890   6.263   7.870   3.168  0.3889  0.0608  0.1618
22771SOL    HW168891   6.210   7.936   3.213  1.7410  0.9174  0.5462
22771SOL    HW268892   6.217   7.788   3.184 -1.1846  0.8554 -0.0999
22772SOL     OW68893   3.093   5.940   9.006 -0.1246 -0.7354  0.0260
22772SOL    HW168894   3.039   6.019   9.016 -1.1419 -1.4133 -0.0163
22772SOL    HW268895   3.098   5.926   8.911  0.1859 -0.6433  0.0262
22773SOL     OW68896   8.982   8.187   7.319  0.1481  0.0168 -0.0428
22773SOL    HW168897   8.954   8.225   7.236 -0.8991  1.0842  0.7680
22773SOL    HW268898   8.961   8.253   7.385 -0.6986 -1.5052  1.2929
22774SOL     OW68899   0.178   0.709   1.689 -0.3642 -0.1850 -0.0955
22774SOL    HW168900   0.242   0.707   1.760 -0.5119  0.1000  0.0480
22774SOL    HW268901   0.170   0.618   1.661 -0.0842 -0.2566  0.0547
22775SOL     OW68902   1.008   1.810   8.396 -0.0105 -0.1631 -0.4222
22775SOL    HW168903   0.932   1.811   8.454  0.1040 -2.9044 -0.0772
22775SOL    HW268904   0.977   1.851   8.315 -1.4573 -0.0498  0.1651
22776SOL     OW68905   6.516   3.576   7.431 -0.0851 -0.0445 -0.3079
22776SOL    HW168906   6.575   3.521   7.482 -0.2779 -1.1061 -1.1895
22776SOL    HW268907   6.428   3.548   7.456 -0.1908  0.2385 -0.3570
22777SOL     OW68908   4.592   5.594   9.915  0.0384  0.2041  0.4493
22777SOL    HW168909   4.503   5.609   9.949 -0.6462 -2.4601  0.0822
22777SOL    HW268910   4.613   5.504   9.942  2.5021  0.6415  0.1919
22778SOL     OW68911   8.466   5.910   8.735  0.5447  0.1145  0.0927
22778SOL    HW168912   8.436   6.000   8.727 -0.0349 -0.1013 -0.2060
22778SOL    HW268913   8.561   5.916   8.728  0.5199  0.7133  0.2042
22779SOL     OW68914   7.842   0.323   4.796 -0.3454  0.5302  0.8300
22779SOL    HW168915   7.916   0.343   4.740  0.3230 -1.1806  1.0178
22779SOL    HW268916   7.765   0.347   4.745  0.3132  2.3200  0.6265
22780SOL     OW68917   1.396   4.487   9.078 -0.1461 -0.0828 -0.2577
22780SOL    HW168918   1.443   4.446   9.150  0.8076 -0.7834 -1.2505
22780SOL    HW268919   1.465   4.518   9.019 -0.8905  1.2155 -0.4804
22781SOL     OW68920   1.992   1.496   4.450  0.0933 -0.3152  1.0303
22781SOL    HW168921   2.062   1.515   4.387 -1.3356  0.4420 -0.3862
22781SOL    HW268922   1.980   1.401   4.443 -0.7911 -0.1103 -0.7086
22782SOL     OW68923   8.731   2.007   7.686 -0.6833 -0.6978  0.6238
22782SOL    HW168924   8.759   2.099   7.679 -1.0425 -0.4683  1.9187
22782SOL    HW268925   8.797   1.958   7.637 -0.0674  0.1861  0.5444
22783SOL     OW68926   8.061   1.461   8.386 -0.2734 -0.0813 -0.5409
22783SOL    HW168927   8.137   1.515   8.404  0.5769 -1.8400  1.6752
22783SOL    HW268928   8.019   1.502   8.310  2.0009  1.8104 -0.8802
22784SOL     OW68929   5.103   1.193   6.777  0.2937  0.1122  0.1839
22784SOL    HW168930   5.108   1.125   6.710 -2.5395 -1.9761  1.8921
22784SOL    HW268931   5.193   1.202   6.808  1.1911 -0.8683 -1.9502
22785SOL     OW68932   2.616   3.180   4.271 -0.5108 -0.1775 -0.0790
22785SOL    HW168933   2.618   3.151   4.363  2.9861  1.0790  0.3977
22785SOL    HW268934   2.536   3.142   4.236 -0.4175 -3.3823  2.6348
22786SOL     OW68935   3.263   1.863   2.043 -0.0998 -0.1715  0.0144
22786SOL    HW168936   3.234   1.774   2.021 -0.7281  0.0320  0.0148
22786SOL    HW268937   3.183   1.915   2.045  0.2977  0.4607 -0.2700
22787SOL     OW68938   4.683   4.761   4.350  0.2087  0.7878 -0.4558
22787SOL    HW168939   4.659   4.823   4.280 -0.0751 -0.1482 -1.2079
22787SOL    HW268940   4.602   4.711   4.365 -0.0219  1.6178  1.2366
22788SOL     OW68941   5.554   8.295   4.143  0.7454  0.2302 -0.3193
22788SOL    HW168942   5.528   8.374   4.095 -0.8189  0.2391  0.4521
22788SOL    HW268943   5.647   8.308   4.162  0.6416  1.6717 -0.6383
22789SOL     OW68944   8.549   1.128   7.185 -0.4683  0.2058  0.7303
22789SOL    HW168945   8.611   1.198   7.163  0.7023 -1.1779 -0.5852
22789SOL    HW268946   8.591   1.082   7.258  0.8856 -1.6068 -1.0611
22790SOL     OW68947   6.995   2.578   5.243  0.0809  0.1891  0.9431
22790SOL    HW168948   6.914   2.628   5.252 -0.2748 -0.1053 -0.5077
22790SOL    HW268949   7.062   2.634   5.282 -0.7025  0.6937  1.6082
22791SOL     OW68950   4.697   7.943   6.749 -0.0584  0.4685  0.1249
22791SOL    HW168951   4.730   7.934   6.660 -0.6095  2.6567 -0.3550
22791SOL    HW268952   4.761   7.999   6.793  0.5781 -1.1432  1.3716
22792SOL     OW68953   8.479   8.866   7.041 -0.1577 -0.0649  0.0704
22792SOL    HW168954   8.426   8.795   7.005  0.2064 -0.8319  0.9938
22792SOL    HW268955   8.538   8.890   6.970 -0.4255 -0.5463 -0.3245
22793SOL     OW68956   6.130   4.393   9.667  0.3057  0.3280 -0.0738
22793SOL    HW168957   6.115   4.341   9.746  0.1060 -1.3982 -1.2137
22793SOL    HW268958   6.043   4.427   9.643  0.2644  0.3285  0.0765
22794SOL     OW68959   8.921   2.754   0.167  0.0124  0.3776  0.7973
22794SOL    HW168960   8.871   2.674   0.182 -0.8093  0.9657  1.3080
22794SOL    HW268961   8.855   2.824   0.166  0.8250  1.1894  1.5754
22795SOL     OW68962   4.076   9.555   9.733  0.3038 -0.0279  0.0538
22795SOL    HW168963   4.144   9.600   9.684  0.0796  0.2855  0.0284
22795SOL    HW268964   4.100   9.568   9.825  0.5189 -0.2944  0.0366
22796SOL     OW68965   8.908   3.132   5.803  0.8846  0.5681 -0.5826
22796SOL    HW168966   8.970   3.137   5.730  0.7539 -1.2014 -0.8608
22796SOL    HW268967   8.833   3.084   5.768  0.9164 -0.5291  0.7589
22797SOL     OW68968   1.477   8.886   4.087 -0.7945 -0.0045  0.1253
22797SOL    HW168969   1.440   8.925   4.166  0.4479  0.4707  0.4942
22797SOL    HW268970   1.476   8.792   4.103 -2.5319 -0.0821 -0.2003
22798SOL     OW68971   0.840   8.635   9.486  0.5151 -0.5491 -0.4052
22798SOL    HW168972   0.903   8.681   9.430 -0.3044  0.2804 -0.6704
22798SOL    HW268973   0.759   8.686   9.477 -0.1967 -1.5989 -0.0783
22799SOL     OW68974   2.881   9.288   0.870 -0.2585 -0.2516 -0.5404
22799SOL    HW168975   2.846   9.324   0.952 -1.2804 -1.5530 -0.3699
22799SOL    HW268976   2.966   9.252   0.895 -0.1129  0.2528 -0.2853
22800SOL     OW68977   8.252   8.211   6.596  0.3140  0.3138  0.0212
22800SOL    HW168978   8.221   8.211   6.506  0.6439  0.7435 -0.0969
22800SOL    HW268979   8.237   8.122   6.627  0.9499 -0.0562 -0.7166
22801SOL     OW68980   4.228   1.907   6.769  0.2023  0.1063 -0.0194
22801SOL    HW168981   4.263   1.857   6.695  0.1238  0.1282 -0.0717
22801SOL    HW268982   4.210   1.841   6.836 -1.3164 -0.1403 -0.6335
22802SOL     OW68983   3.448   5.209   7.985  0.2988  0.5707 -0.2694
22802SOL    HW168984   3.477   5.118   7.979  2.6686  1.0264  2.2379
22802SOL    HW268985   3.368   5.206   8.037 -0.2268 -0.1125 -1.0818
22803SOL     OW68986   3.318   5.277   7.468  0.2141  0.1562  0.2047
22803SOL    HW168987   3.234   5.250   7.432  1.1936 -2.0450 -0.6610
22803SOL    HW268988   3.297   5.343   7.533 -1.8975  2.1247 -2.2674
22804SOL     OW68989   4.471   2.702   4.938 -0.7948  0.8270 -0.6235
22804SOL    HW168990   4.419   2.677   5.014  0.5011 -0.4869 -0.1173
22804SOL    HW268991   4.506   2.789   4.960  1.4241 -0.4373  1.3957
22805SOL     OW68992   4.626   3.374   1.619  0.2329 -0.0811 -0.3101
22805SOL    HW168993   4.677   3.306   1.664 -1.7473 -0.3078  1.7537
22805SOL    HW268994   4.546   3.330   1.592  0.5863  0.5217 -2.5813
22806SOL     OW68995   6.965   7.774   9.724  0.4285  0.0741 -0.0353
22806SOL    HW168996   6.950   7.853   9.672 -0.8423  0.2302  0.5097
22806SOL    HW268997   6.958   7.804   9.815  1.4832 -0.3950  0.2079
22807SOL     OW68998   3.064   2.087   9.057 -0.4527 -0.8294 -0.0632
22807SOL    HW168999   3.080   2.042   9.140 -0.9154 -1.1381 -0.1379
22807SOL    HW269000   2.974   2.065   9.035  0.1621 -2.1213 -1.4807
22808SOL     OW69001   6.722   2.146   3.768  0.6376  0.1922 -1.0955
22808SOL    HW169002   6.771   2.064   3.771  2.5952  1.3069 -0.8987
22808SOL    HW269003   6.718   2.174   3.860 -0.1921  0.2465 -1.1395
22809SOL     OW69004   2.150   3.659   2.634 -0.6034 -0.3146 -0.3733
22809SOL    HW169005   2.099   3.634   2.711  0.5231 -0.3513  0.3793
22809SOL    HW269006   2.165   3.753   2.644  1.7445 -0.7420  0.8537
22810SOL     OW69007   9.814   4.749   7.306 -0.0863  0.4827 -0.6083
22810SOL    HW169008   9.757   4.813   7.262  0.0462  0.3304 -1.0090
22810SOL    HW269009   9.839   4.688   7.236 -0.4321 -0.1647 -0.1725
22811SOL     OW69010   2.966   4.724   3.573  0.5470 -0.4115  0.2023
22811SOL    HW169011   2.973   4.678   3.490  3.9655  0.9141 -0.4201
22811SOL    HW269012   2.981   4.816   3.551  0.1261  0.1649  2.1251
22812SOL     OW69013   4.761   3.329   2.318 -0.2842 -0.3188 -0.5126
22812SOL    HW169014   4.729   3.294   2.402  1.5960 -0.1815  0.3135
22812SOL    HW269015   4.839   3.278   2.299  0.7239  1.2902 -0.9098
22813SOL     OW69016   2.951   3.515   7.819  0.0259 -0.4256  0.4038
22813SOL    HW169017   2.870   3.567   7.814  0.9684  1.3366  1.9970
22813SOL    HW269018   2.970   3.510   7.913  0.8422 -2.3623  0.1776
22814SOL     OW69019   4.839   1.164   2.102 -0.2545  0.2119 -0.2753
22814SOL    HW169020   4.806   1.219   2.030 -1.5578  0.5201  0.5234
22814SOL    HW269021   4.760   1.126   2.141  0.3951  0.3815  1.2667
22815SOL     OW69022   2.141   2.178   2.047 -0.0946 -0.0586 -0.0672
22815SOL    HW169023   2.209   2.204   2.109 -1.7936  1.5000  1.2749
22815SOL    HW269024   2.135   2.250   1.985  0.3195 -0.7721 -0.9602
22816SOL     OW69025   0.694   9.534   5.432 -0.1130 -0.4751  0.0697
22816SOL    HW169026   0.781   9.563   5.458 -0.2755  1.0533 -0.9808
22816SOL    HW269027   0.676   9.581   5.351 -1.5017 -1.5689 -0.3011
22817SOL     OW69028   2.617   1.152   7.943 -0.3131 -0.1534 -0.1716
22817SOL    HW169029   2.665   1.070   7.956 -0.9439 -0.9664 -2.4832
22817SOL    HW269030   2.525   1.128   7.953 -0.4253  0.7035  1.0051
22818SOL     OW69031   7.126   9.003   8.813 -0.0310 -0.6115  0.1247
22818SOL    HW169032   7.048   9.045   8.778 -0.2931  0.3442  1.7488
22818SOL    HW269033   7.106   8.989   8.906  1.8912  0.1327  0.7079
22819SOL     OW69034   2.823   1.370   9.558 -0.0524 -0.5998 -0.2457
22819SOL    HW169035   2.839   1.409   9.644 -0.0029  0.0453 -0.5361
22819SOL    HW269036   2.908   1.374   9.514  0.1235 -1.6888 -0.0385
22820SOL     OW69037   3.136   2.691   0.389 -0.2873  0.7037  0.3639
22820SOL    HW169038   3.221   2.724   0.420 -0.4656  1.3045  0.2177
22820SOL    HW269039   3.073   2.758   0.414 -0.7527  0.1766  0.6256
22821SOL     OW69040   8.629   0.024   9.257 -0.1371 -0.1977 -0.0743
22821SOL    HW169041   8.702   0.084   9.245 -0.1956 -0.2641 -0.8193
22821SOL    HW269042   8.564   0.075   9.306  0.4705 -0.2036  0.7548
22822SOL     OW69043   9.325   3.957   8.782 -0.4827  0.0981 -0.4406
22822SOL    HW169044   9.380   3.880   8.767  0.9709  1.0434 -0.1628
22822SOL    HW269045   9.387   4.028   8.795 -1.7872  1.5684 -1.8529
22823SOL     OW69046   1.868   3.765   9.367  0.0744  0.2572 -0.0813
22823SOL    HW169047   1.905   3.842   9.323  0.3847  0.7042  0.9178
22823SOL    HW269048   1.875   3.694   9.303 -0.3616  1.0958 -1.0748
22824SOL     OW69049   7.050   1.141   5.379  0.2753 -0.1142 -0.8658
22824SOL    HW169050   7.097   1.169   5.300  0.0580  0.6312 -0.7441
22824SOL    HW269051   6.965   1.110   5.348  0.0638  0.4846 -0.9070
22825SOL     OW69052   7.935   4.594   8.506 -0.6501  0.4061 -0.1135
22825SOL    HW169053   7.864   4.597   8.570  0.2212 -4.5119  1.5385
22825SOL    HW269054   8.012   4.626   8.553 -0.5960 -0.3118  0.2966
22826SOL     OW69055   8.591   3.882   2.549  0.2875  0.5058  0.1341
22826SOL    HW169056   8.590   3.793   2.583  0.6326  0.4118 -0.1023
22826SOL    HW269057   8.505   3.893   2.507 -0.3219  0.7643  1.3829
22827SOL     OW69058   5.203   8.454   6.396 -0.2537  0.6994 -0.8556
22827SOL    HW169059   5.121   8.460   6.445 -0.2188  0.2483 -0.7430
22827SOL    HW269060   5.176   8.442   6.305 -0.3144  0.4456 -0.8053
22828SOL     OW69061   2.406   4.935   8.303 -0.2337 -0.3956  0.2586
22828SOL    HW169062   2.360   4.851   8.302 -1.2780  0.1432  1.1236
22828SOL    HW269063   2.475   4.924   8.238 -0.4346 -1.8703  0.2443
22829SOL     OW69064   2.444   6.433   1.520  0.4740  0.1318 -0.4519
22829SOL    HW169065   2.353   6.441   1.546  0.5887 -0.7383  0.2729
22829SOL    HW269066   2.491   6.413   1.601  1.1772 -0.2714 -0.9421
22830SOL     OW69067   7.534   4.492   6.865 -0.2393  0.3653  0.1824
22830SOL    HW169068   7.443   4.496   6.835 -0.4634  1.6863  0.9807
22830SOL    HW269069   7.585   4.488   6.785 -0.9594  0.2705 -0.2889
22831SOL     OW69070   0.092   2.044   5.616 -0.1424 -0.1516  0.5072
22831SOL    HW169071   0.172   2.096   5.624 -0.5343  0.6375 -0.5514
22831SOL    HW269072   0.123   1.955   5.598  0.5100  0.3750 -1.1793
22832SOL     OW69073   1.264   3.678   2.846 -0.0776  0.0542 -0.0505
22832SOL    HW169074   1.304   3.611   2.902 -1.2244 -0.8381 -0.2629
22832SOL    HW269075   1.260   3.756   2.901  1.5383  0.0571  0.1125
22833SOL     OW69076   5.580   2.491   7.956 -0.0236 -0.4618  0.2191
22833SOL    HW169077   5.675   2.480   7.949 -0.0713 -0.3141 -0.8214
22833SOL    HW269078   5.563   2.493   8.050  1.1894  0.9924  0.4564
22834SOL     OW69079   9.737   6.289   9.799  0.7148 -0.3858  0.0291
22834SOL    HW169080   9.667   6.254   9.853  1.6846 -2.8842 -0.1618
22834SOL    HW269081   9.751   6.378   9.831 -3.0004  0.5419 -0.4597
22835SOL     OW69082   1.050   6.993   0.254 -0.2742  0.1251 -0.2995
22835SOL    HW169083   0.986   6.932   0.292 -0.7951 -0.4031 -1.9359
22835SOL    HW269084   1.047   6.976   0.160  1.9317  0.4417 -0.4915
22836SOL     OW69085   1.908   6.353   1.081  0.1143  0.1424 -0.2823
22836SOL    HW169086   1.939   6.268   1.112 -1.6199 -0.9754 -1.4223
22836SOL    HW269087   1.954   6.417   1.136  0.7322 -1.5559  1.2829
22837SOL     OW69088   0.837   6.929   9.634  0.2521  0.1838  0.6726
22837SOL    HW169089   0.758   6.966   9.594  0.6394 -0.9816 -1.3318
22837SOL    HW269090   0.860   6.990   9.703  0.2720  3.1187 -1.7317
22838SOL     OW69091   3.428   9.014   0.696  0.5679  0.2315  0.0432
22838SOL    HW169092   3.335   9.031   0.680  0.8444  0.9310 -0.9409
22838SOL    HW269093   3.473   9.090   0.659  1.6603 -1.0586 -1.4442
22839SOL     OW69094   6.793   9.741   4.478 -0.2449  0.1550  0.8075
22839SOL    HW169095   6.860   9.695   4.429 -1.4933  0.2966 -1.1336
22839SOL    HW269096   6.838   9.817   4.515  1.4472 -1.6217  2.6647
22840SOL     OW69097   6.944   2.527   2.205  0.2489 -0.5706  0.3440
22840SOL    HW169098   6.899   2.607   2.234  0.8044 -0.0832 -0.0984
22840SOL    HW269099   7.024   2.559   2.164 -0.0383 -1.2885 -0.8262
22841SOL     OW69100   8.703   5.094   0.404  0.2669 -0.3617  0.4367
22841SOL    HW169101   8.725   5.020   0.346  2.9234 -0.2315  1.1465
22841SOL    HW269102   8.712   5.171   0.348  0.4254 -0.3958  0.4140
22842SOL     OW69103   7.523   1.381   0.239  0.2661 -0.3754 -0.6544
22842SOL    HW169104   7.461   1.308   0.238  0.0394 -0.1831 -0.6045
22842SOL    HW269105   7.480   1.450   0.190  0.9657 -0.6656 -1.7205
22843SOL     OW69106   0.540   7.868   7.918  0.0105 -0.1615  0.1714
22843SOL    HW169107   0.588   7.787   7.902  0.0011 -0.1789  0.2293
22843SOL    HW269108   0.539   7.876   8.014 -0.3839 -0.3318  0.1825
22844SOL     OW69109   2.800   2.239   5.539  0.3533 -0.6320  0.4827
22844SOL    HW169110   2.771   2.251   5.449 -0.0913 -0.6310  0.6244
22844SOL    HW269111   2.895   2.232   5.533  0.5510  1.4708  0.2153
22845SOL     OW69112   7.333   6.466   0.336 -0.1798 -0.3820 -0.7593
22845SOL    HW169113   7.300   6.389   0.383  0.0634 -1.1883 -1.8445
22845SOL    HW269114   7.422   6.441   0.309  0.8429  1.2049  0.9034
22846SOL     OW69115   5.314   0.085   6.598 -0.3590  0.0670 -0.0083
22846SOL    HW169116   5.378   0.039   6.544  0.2926 -0.8475  1.4775
22846SOL    HW269117   5.230   0.046   6.573  0.1093 -1.4919  0.7356
22847SOL     OW69118   4.823   6.535   1.213  0.0933 -0.1838 -0.4370
22847SOL    HW169119   4.867   6.606   1.167 -0.4939  0.3210 -0.2298
22847SOL    HW269120   4.826   6.561   1.305  3.0514 -2.1100  0.1628
22848SOL     OW69121   5.453   3.987   6.833 -0.0020 -0.0916  0.3258
22848SOL    HW169122   5.358   3.985   6.828 -0.0058 -1.2087  0.7362
22848SOL    HW269123   5.473   4.067   6.881 -0.6901  0.5616 -0.4417
22849SOL     OW69124   9.976   2.221   3.930  0.4694 -0.0785  0.3086
22849SOL    HW169125   9.886   2.253   3.928  0.6613  0.5456  1.3346
22849SOL    HW269126   9.967   2.127   3.946  0.0145  0.1091  1.2366
22850SOL     OW69127   0.616   9.775   3.521 -0.3227  0.7143  0.1655
22850SOL    HW169128   0.532   9.739   3.551 -0.7405  2.7498  1.6401
22850SOL    HW269129   0.678   9.752   3.590  0.1102  0.1308 -0.4111
22851SOL     OW69130   8.288   1.961   6.937 -0.0271 -0.0671  0.4465
22851SOL    HW169131   8.265   1.871   6.911  1.0619 -0.2982  0.2147
22851SOL    HW269132   8.210   2.012   6.917 -0.2708 -0.7673 -0.5148
22852SOL     OW69133   8.483   6.489   1.627  0.0983 -0.5416  0.1040
22852SOL    HW169134   8.530   6.451   1.702  0.4950 -1.0324 -0.3798
22852SOL    HW269135   8.408   6.432   1.614 -0.2996 -0.1141  0.4909
22853SOL     OW69136   1.960   4.221   8.626 -0.6630 -0.1572 -0.0856
22853SOL    HW169137   1.998   4.180   8.548  0.2767 -2.3926  1.4484
22853SOL    HW269138   1.981   4.314   8.617 -0.4352 -0.3750 -2.3882
22854SOL     OW69139   7.168   3.005   7.376 -0.0305  0.6060 -0.6226
22854SOL    HW169140   7.257   3.017   7.409 -0.3756  0.8382  0.2512
22854SOL    HW269141   7.128   3.091   7.384 -0.3822  0.4688 -0.8833
22855SOL     OW69142   8.573   7.167   1.435 -0.2135 -0.5986 -0.0697
22855SOL    HW169143   8.512   7.240   1.426 -0.5947 -1.1317 -2.4635
22855SOL    HW269144   8.624   7.188   1.514 -0.6980  1.9389 -0.3409
22856SOL     OW69145   1.818   9.421   3.366  0.2486 -0.5720  0.0753
22856SOL    HW169146   1.757   9.454   3.432  0.0163 -0.8799  0.0159
22856SOL    HW269147   1.899   9.405   3.414 -1.0933 -5.0746  1.3741
22857SOL     OW69148   0.402   9.041   1.041 -0.1525  0.0616 -0.0081
22857SOL    HW169149   0.442   8.959   1.072  1.2337  0.3352 -0.9746
22857SOL    HW269150   0.462   9.072   0.973 -0.9068  1.6534  0.0266
22858SOL     OW69151   0.377   5.613   5.522 -0.0460 -0.3164  0.0838
22858SOL    HW169152   0.300   5.619   5.465 -0.0011 -0.7015 -0.0211
22858SOL    HW269153   0.452   5.620   5.463 -0.0010  0.2678  0.2113
22859SOL     OW69154   5.086   9.225   1.992 -0.0266 -0.1677  0.1518
22859SOL    HW169155   5.138   9.282   1.935  0.0815 -0.0795  0.3394
22859SOL    HW269156   5.111   9.251   2.081 -1.1980  0.6432  0.2722
22860SOL     OW69157   6.133   5.712   4.605 -0.3457  0.0681 -0.4448
22860SOL    HW169158   6.045   5.690   4.634 -0.0197 -0.3578  0.2648
22860SOL    HW269159   6.160   5.784   4.663  0.1744 -0.5403  0.0863
22861SOL     OW69160   5.151   3.809   6.355 -0.5237 -0.3324  0.4104
22861SOL    HW169161   5.201   3.752   6.415 -1.0296 -0.5469  0.6349
22861SOL    HW269162   5.209   3.884   6.340 -0.3012 -0.3701  1.0155
22862SOL     OW69163   1.487   0.550   4.490 -0.2338  0.5466 -0.3950
22862SOL    HW169164   1.497   0.643   4.469 -0.5898  0.7172  0.1676
22862SOL    HW269165   1.393   0.533   4.479 -0.0438  0.0317 -1.3478
22863SOL     OW69166   4.313   6.992   1.944 -0.1022  0.3703  0.2754
22863SOL    HW169167   4.246   6.932   1.976 -0.1906  0.2801 -0.0804
22863SOL    HW269168   4.264   7.066   1.908 -0.0444 -0.2487 -1.1003
22864SOL     OW69169   3.372   3.335   7.283  0.5353 -0.7287 -0.2239
22864SOL    HW169170   3.368   3.372   7.371  0.4596 -0.6875 -0.2446
22864SOL    HW269171   3.282   3.309   7.263  0.1236  1.1210 -1.0798
22865SOL     OW69172   0.056   2.386   8.685 -0.4238  0.0021  0.3186
22865SOL    HW169173   0.128   2.388   8.621 -0.2393 -2.9303  0.3078
22865SOL    HW269174   0.100   2.373   8.769 -0.8521  0.6766  0.6578
22866SOL     OW69175   8.088   1.504   5.560 -0.5752  0.1203 -0.7668
22866SOL    HW169176   8.073   1.415   5.528 -2.1152 -0.2912  0.9477
22866SOL    HW269177   8.172   1.499   5.605 -0.4429 -0.3572 -1.0615
22867SOL     OW69178   7.096   6.117   8.741  0.1579 -0.5220  0.0958
22867SOL    HW169179   7.010   6.117   8.784 -0.2616  1.9288 -0.5773
22867SOL    HW269180   7.138   6.197   8.773  1.0704 -0.2687 -1.6529
22868SOL     OW69181   9.197   5.399   6.579 -0.2138 -0.5258  0.4501
22868SOL    HW169182   9.249   5.365   6.506  0.3084 -2.3078  1.5652
22868SOL    HW269183   9.259   5.451   6.630 -0.5465  0.6085 -0.2726
22869SOL     OW69184   9.847   8.613   8.358 -0.3730  0.1558 -0.3977
22869SOL    HW169185   9.904   8.648   8.427 -2.5392  1.7699  0.6906
22869SOL    HW269186   9.821   8.689   8.307 -0.6495 -0.7104 -1.5811
22870SOL     OW69187   9.658   1.030   1.175 -0.4808 -0.5194 -0.0227
22870SOL    HW169188   9.743   1.071   1.186 -0.0792 -1.4128  0.2903
22870SOL    HW269189   9.623   1.023   1.264 -1.4850  1.0623 -0.2549
22871SOL     OW69190   5.665   7.594   3.619  0.3534 -0.1171 -0.1236
22871SOL    HW169191   5.745   7.635   3.650  2.0348 -2.8760 -0.4788
22871SOL    HW269192   5.685   7.565   3.530  0.2352 -3.6195  0.8273
22872SOL     OW69193   9.887   8.386   3.167  0.2241 -0.1479  0.5331
22872SOL    HW169194   9.910   8.446   3.096 -0.8921 -1.3748 -0.9408
22872SOL    HW269195   9.837   8.440   3.228 -0.4594  0.5461 -0.5889
22873SOL     OW69196   7.769   2.964   3.121 -0.5298 -0.5436  0.0327
22873SOL    HW169197   7.856   2.928   3.101 -0.3062 -0.1828  0.3367
22873SOL    HW269198   7.771   2.979   3.215 -0.6380  0.2180 -0.0840
22874SOL     OW69199   8.006   4.221   8.196 -0.0495 -0.2694 -0.5150
22874SOL    HW169200   7.922   4.265   8.196  0.4851  0.8058  0.6794
22874SOL    HW269201   8.004   4.164   8.273 -0.1518 -1.2193 -1.1969
22875SOL     OW69202   8.576   4.436   4.018 -0.1730  0.1005 -0.8528
22875SOL    HW169203   8.518   4.369   4.053 -0.2117  0.7167  0.3282
22875SOL    HW269204   8.581   4.502   4.088  1.2850  0.4497 -1.2484
22876SOL     OW69205   2.977   5.081   5.815  0.3050 -0.2728  0.0237
22876SOL    HW169206   3.040   5.088   5.744  1.2879 -1.4986  0.7263
22876SOL    HW269207   2.954   4.988   5.818  0.5362 -0.3130  1.4871
22877SOL     OW69208   9.901   8.246   8.510  0.4913  0.1481 -0.0752
22877SOL    HW169209   9.849   8.175   8.547  0.9257 -0.8884 -1.3781
22877SOL    HW269210   9.967   8.264   8.577  0.2864 -0.5786  0.3400
22878SOL     OW69211   3.365   6.834   6.664  0.6099  0.0571  0.4547
22878SOL    HW169212   3.389   6.837   6.572 -0.7773  0.3073  0.0678
22878SOL    HW269213   3.369   6.925   6.693 -2.0252  0.4847 -0.2603
22879SOL     OW69214   0.066   0.602   0.852 -0.0357 -0.1681 -0.1507
22879SOL    HW169215   0.078   0.679   0.907  0.4565  0.0723 -0.5825
22879SOL    HW269216   0.090   0.528   0.908  1.1632  0.1275 -0.2462
22880SOL     OW69217   3.772   9.484   2.964 -0.1084  0.0086  0.3133
22880SOL    HW169218   3.834   9.528   2.906  0.0998  0.1596  0.6515
22880SOL    HW269219   3.750   9.550   3.030 -0.7947  0.0286  0.0745
22881SOL     OW69220   1.485   9.925   9.930 -0.1586  0.0285  0.9999
22881SOL    HW169221   1.499   9.902  10.022  0.2235  1.2837  1.2889
22881SOL    HW269222   1.493  10.021   9.929  1.2176 -0.0749 -0.5788
22882SOL     OW69223   7.973   0.804   4.432 -0.0153  0.2295 -0.6096
22882SOL    HW169224   8.041   0.869   4.417  0.8111 -0.8451 -1.7616
22882SOL    HW269225   7.988   0.737   4.365 -1.9784 -0.2405 -0.6603
22883SOL     OW69226   7.699   1.967   6.022 -0.7163  0.8900 -0.0852
22883SOL    HW169227   7.672   2.058   6.008 -0.2439  0.8998 -0.9951
22883SOL    HW269228   7.634   1.932   6.083 -1.1260  1.7269 -0.0278
22884SOL     OW69229   0.670   5.586   4.961 -0.3780  0.5148 -0.5603
22884SOL    HW169230   0.639   5.528   4.891 -1.3123  1.3360 -0.8605
22884SOL    HW269231   0.761   5.561   4.974 -1.3780 -2.8773  1.2164
22885SOL     OW69232   4.573   9.957   9.716  0.4054 -0.0600 -0.1361
22885SOL    HW169233   4.529   9.972   9.799  3.9288 -2.8182  2.5806
22885SOL    HW269234   4.652  10.011   9.721  0.9561 -0.7055 -1.4350
22886SOL     OW69235   4.174   5.029   3.297 -0.2506  0.5227 -0.0518
22886SOL    HW169236   4.137   5.117   3.294  0.1430  0.6945  0.1215
22886SOL    HW269237   4.147   4.995   3.382 -0.6920  0.3448 -0.2577
22887SOL     OW69238   6.985   5.491   6.139  0.4009 -0.0056 -0.0302
22887SOL    HW169239   7.025   5.405   6.135 -0.6845 -0.4916 -0.9497
22887SOL    HW269240   6.892   5.474   6.150  0.4278  1.1030  2.8669
22888SOL     OW69241   2.142   6.874   6.803  0.4449 -0.6458  0.0633
22888SOL    HW169242   2.218   6.830   6.767  0.2491 -1.6500  0.8212
22888SOL    HW269243   2.150   6.863   6.898 -0.4661 -0.4691  0.1744
22889SOL     OW69244   5.199   3.989   3.329  0.0073 -0.1342 -0.1687
22889SOL    HW169245   5.269   3.924   3.331  1.3047  1.2535  1.3118
22889SOL    HW269246   5.144   3.967   3.404 -0.4147 -0.4039 -0.5482
22890SOL     OW69247   1.883   2.475   3.808  0.1636  0.4090  0.0587
22890SOL    HW169248   1.796   2.449   3.839 -0.2047 -0.0107 -1.2487
22890SOL    HW269249   1.868   2.559   3.765  0.6145  0.8624  0.7816
22891SOL     OW69250   2.529   7.603   4.770  0.1689 -0.6998  0.3333
22891SOL    HW169251   2.604   7.562   4.726  0.5683 -1.3927  1.6115
22891SOL    HW269252   2.564   7.683   4.809 -0.0967 -0.2845 -0.2666
22892SOL     OW69253   1.236   3.040   1.430 -0.4231 -0.5069 -0.0546
22892SOL    HW169254   1.236   3.135   1.428 -1.2069 -0.5009 -0.3733
22892SOL    HW269255   1.158   3.017   1.480 -0.3325 -0.9825 -0.1243
22893SOL     OW69256   8.929   1.868   7.536 -0.7253 -0.4068 -0.2780
22893SOL    HW169257   8.895   1.896   7.452 -0.9167 -0.0771 -0.0903
22893SOL    HW269258   8.996   1.803   7.514 -1.4297 -1.0187 -0.6456
22894SOL     OW69259   5.227   5.800   5.014 -0.3436 -0.6050 -0.0017
22894SOL    HW169260   5.218   5.705   5.016 -0.1357 -0.6310 -0.2602
22894SOL    HW269261   5.153   5.832   5.065 -2.0162 -0.8128 -2.1134
22895SOL     OW69262   2.770   1.611   2.892  0.0579 -0.0059  0.3269
22895SOL    HW169263   2.834   1.592   2.824 -0.4111  0.4134 -0.2360
22895SOL    HW269264   2.814   1.673   2.950 -0.3485  1.4913 -0.8987
22896SOL     OW69265   2.064   8.239   9.057  0.0114 -0.0189  0.1053
22896SOL    HW169266   2.054   8.239   9.152 -0.2534 -2.0298  0.1207
22896SOL    HW269267   1.985   8.283   9.025 -0.3890 -0.2324  0.7802
22897SOL     OW69268   3.280   7.241   4.794  0.2535 -0.2532 -0.3934
22897SOL    HW169269   3.372   7.237   4.823  0.2167  0.8232 -0.0965
22897SOL    HW269270   3.281   7.300   4.719 -0.5163  1.7736  1.0897
22898SOL     OW69271   2.618   0.115   0.216  0.1566 -0.5670 -0.4277
22898SOL    HW169272   2.622   0.136   0.123  0.1217 -0.0274 -0.3071
22898SOL    HW269273   2.614   0.199   0.260 -2.0811 -0.8256 -0.0262
22899SOL     OW69274   8.004   8.688   2.926  0.2822  0.1197 -0.6828
22899SOL    HW169275   7.957   8.678   3.008  1.3318  0.2174 -0.0539
22899SOL    HW269276   8.046   8.603   2.912 -1.1936 -0.4536 -1.9852
22900SOL     OW69277   8.246   2.081   7.200  0.3349  0.4548  0.6998
22900SOL    HW169278   8.161   2.037   7.202 -0.9088  2.5804 -1.0341
22900SOL    HW269279   8.290   2.045   7.123 -0.7046  2.1247 -0.7503
22901SOL     OW69280   7.954   0.995   0.946 -0.0825 -0.1138  0.0561
22901SOL    HW169281   7.915   0.930   0.887  1.9500 -0.5433 -0.9024
22901SOL    HW269282   8.042   1.009   0.912  1.1592 -0.2576  2.9099
22902SOL     OW69283   2.562   4.613   1.980 -0.1183 -0.4241  0.0893
22902SOL    HW169284   2.620   4.609   2.055 -0.3964  0.0319  0.3369
22902SOL    HW269285   2.538   4.522   1.962  2.4737 -0.8893 -1.4486
22903SOL     OW69286   3.176   2.540   4.166 -0.4393  0.4590 -0.0366
22903SOL    HW169287   3.159   2.630   4.137 -2.5345  0.0276 -0.2793
22903SOL    HW269288   3.148   2.539   4.258 -0.1377  0.1231  0.0550
22904SOL     OW69289   7.761   0.306   6.443  0.2320  0.6892  0.3505
22904SOL    HW169290   7.679   0.350   6.466 -0.0322 -0.0040  0.7643
22904SOL    HW269291   7.825   0.377   6.437 -0.2438  1.1599  0.7215
22905SOL     OW69292   4.431   2.847   0.205  0.4320 -0.0540  0.5611
22905SOL    HW169293   4.384   2.930   0.200  1.4394  0.5182  0.3646
22905SOL    HW269294   4.369   2.787   0.246  0.4062  1.3469  2.7711
22906SOL     OW69295   7.119   4.420   8.917 -0.0528 -0.6453  0.4423
22906SOL    HW169296   7.133   4.337   8.871 -0.6997 -0.7347  0.3993
22906SOL    HW269297   7.193   4.426   8.977  0.4815 -0.8193 -0.1739
22907SOL     OW69298   6.761   3.042   6.830  0.1258 -0.1337 -0.3210
22907SOL    HW169299   6.779   3.115   6.889  0.6861 -0.3665 -0.1936
22907SOL    HW269300   6.692   2.992   6.874  1.0128 -0.6843  0.4872
22908SOL     OW69301   8.927   5.298   6.625  0.1891  0.8021 -0.1773
22908SOL    HW169302   8.932   5.267   6.716  1.1905  1.8329  0.1336
22908SOL    HW269303   9.005   5.351   6.613  0.2525  0.3975 -1.7646
22909SOL     OW69304   5.935   5.692   3.473 -0.3637  0.7896  0.0926
22909SOL    HW169305   5.866   5.737   3.424  0.0262  0.1849 -1.0306
22909SOL    HW269306   5.888   5.634   3.533 -0.8343  1.3592  0.2895
22910SOL     OW69307   9.691   9.208   6.057  0.5440 -0.2410  0.5018
22910SOL    HW169308   9.735   9.272   6.000 -0.3354 -0.1472 -0.0882
22910SOL    HW269309   9.598   9.218   6.037 -0.3074  2.3977  4.5894
22911SOL     OW69310   9.455   7.717   3.539  0.4330  0.2716 -0.0428
22911SOL    HW169311   9.388   7.736   3.473  1.1268 -1.6998 -1.4186
22911SOL    HW269312   9.532   7.765   3.510  0.2828  0.7096  0.2690
22912SOL     OW69313   4.718   9.691   5.435  0.1327 -0.0991  0.3760
22912SOL    HW169314   4.643   9.738   5.396 -0.8257 -1.3289  0.6683
22912SOL    HW269315   4.794   9.742   5.409 -0.5845 -0.0950 -1.9422
22913SOL     OW69316   7.300   8.701   9.226 -0.8247  0.5109  0.4846
22913SOL    HW169317   7.227   8.664   9.274 -0.1474  0.3288  1.4078
22913SOL    HW269318   7.360   8.628   9.213  0.8644  1.2985  2.9733
22914SOL     OW69319   4.978   8.029   3.172  0.4125 -0.6037  0.3090
22914SOL    HW169320   4.912   8.023   3.103  0.4332  1.1333  0.0829
22914SOL    HW269321   4.932   7.999   3.251  0.3022 -2.3220 -0.3788
22915SOL     OW69322   4.177   6.426   8.171 -0.0169  0.1620 -0.4715
22915SOL    HW169323   4.115   6.425   8.098 -0.6785  0.7361  0.0605
22915SOL    HW269324   4.258   6.459   8.133  0.4555 -2.0568 -1.5213
22916SOL     OW69325   4.126   7.452   5.478 -0.0567  0.8905  0.3171
22916SOL    HW169326   4.194   7.518   5.466  0.8514  0.0173  0.5311
22916SOL    HW269327   4.164   7.371   5.443 -1.0370  0.4169  0.3117
22917SOL     OW69328   7.683   2.748   0.990  0.1493 -0.7567 -0.0175
22917SOL    HW169329   7.718   2.829   1.026  1.2741 -1.7936  1.3119
22917SOL    HW269330   7.589   2.765   0.980  0.6851  1.5355 -2.1517
22918SOL     OW69331   0.121   2.910   6.214 -0.1938  0.7832  0.3184
22918SOL    HW169332   0.137   2.863   6.296  2.0025  2.2699  0.8197
22918SOL    HW269333   0.036   2.877   6.184 -0.2630 -1.0549  2.2881
22919SOL     OW69334   8.572   4.434   9.059 -0.0890  0.3364 -0.0676
22919SOL    HW169335   8.626   4.355   9.068 -0.5620 -0.0478 -0.4996
22919SOL    HW269336   8.614   4.482   8.987  0.7041  0.9144  0.7571
22920SOL     OW69337   6.131   6.561   3.780 -0.2564 -0.6869  0.3350
22920SOL    HW169338   6.166   6.642   3.744  2.2001 -1.3855  0.9267
22920SOL    HW269339   6.071   6.589   3.849 -0.1607  0.6255 -0.0926
22921SOL     OW69340   6.505   0.410   0.635 -0.4371  0.1095 -0.3233
22921SOL    HW169341   6.531   0.409   0.543 -1.7414  1.0664 -0.7433
22921SOL    HW269342   6.479   0.501   0.650  0.7638  0.2159  1.3063
22922SOL     OW69343   9.829   9.068   7.996  0.0502  0.5335  0.0334
22922SOL    HW169344   9.910   9.109   7.967  1.4848 -2.4037 -0.5515
22922SOL    HW269345   9.852   8.975   8.007 -3.7038 -0.9603 -2.4561
22923SOL     OW69346   9.035   6.787   1.141 -0.6994 -0.1439 -0.3049
22923SOL    HW169347   8.991   6.811   1.060 -0.0744  1.6326 -0.1737
22923SOL    HW269348   8.967   6.796   1.209 -1.1175 -1.2460 -0.5590
22924SOL     OW69349   6.365   0.938   3.014  0.3066 -0.4343 -0.4284
22924SOL    HW169350   6.445   0.892   3.040 -0.6645 -1.6281  0.5875
22924SOL    HW269351   6.302   0.868   2.994 -0.8375  0.4565 -0.0862
22925SOL     OW69352   3.229   0.852   0.994 -0.2686 -0.0469  0.1313
22925SOL    HW169353   3.273   0.800   1.061 -2.5664 -0.8537  1.1160
22925SOL    HW269354   3.143   0.872   1.032  0.1618  3.7922 -0.5510
22926SOL     OW69355   7.394   7.637   8.325 -0.1400  0.1087 -0.2746
22926SOL    HW169356   7.317   7.582   8.336  1.0204 -1.8476 -1.3586
22926SOL    HW269357   7.422   7.658   8.414 -0.1154 -1.8125  0.2091
22927SOL     OW69358   4.036   0.690   7.527  0.0681 -0.2056  1.1367
22927SOL    HW169359   3.965   0.679   7.464 -0.3390 -0.8289  1.7043
22927SOL    HW269360   4.041   0.785   7.540 -1.9427 -0.2322  2.5267
22928SOL     OW69361   0.725   8.704   2.113 -0.2430  0.0887  0.0261
22928SOL    HW169362   0.648   8.757   2.134  0.3026  1.5931 -1.5313
22928SOL    HW269363   0.744   8.655   2.193 -2.6130 -0.0887  0.5296
22929SOL     OW69364   2.445   2.521   4.723  0.8366 -0.0751 -0.1304
22929SOL    HW169365   2.483   2.455   4.665  1.5562 -0.5275  0.8174
22929SOL    HW269366   2.409   2.587   4.664 -0.4396 -1.5886 -1.1166
22930SOL     OW69367   5.889   2.001   9.315 -0.3265 -0.4711 -0.0185
22930SOL    HW169368   5.851   1.913   9.319 -1.4485 -0.0213 -0.1817
22930SOL    HW269369   5.974   1.989   9.274 -1.2280 -1.2648 -1.7550
22931SOL     OW69370   8.497   1.126   6.073 -0.3289 -0.8739  0.3764
22931SOL    HW169371   8.419   1.070   6.077  0.2245 -1.6678  0.3562
22931SOL    HW269372   8.472   1.205   6.120 -1.9926 -0.0355 -1.7894
22932SOL     OW69373   1.763   4.074   8.728  0.0071  0.2904 -0.0081
22932SOL    HW169374   1.692   4.118   8.774 -0.5659 -2.0780  1.5549
22932SOL    HW269375   1.830   4.141   8.718 -1.4298  1.9176  0.7805
22933SOL     OW69376   3.304   4.520   3.181 -0.5116  0.0758 -0.1802
22933SOL    HW169377   3.379   4.579   3.187 -2.2234  2.3792  0.0616
22933SOL    HW269378   3.282   4.500   3.272 -0.3952 -0.3425 -0.2413
22934SOL     OW69379   8.988   4.465   5.141 -0.1812  0.2021 -0.1378
22934SOL    HW169380   9.078   4.479   5.111 -0.3499  0.5812 -0.4920
22934SOL    HW269381   8.945   4.422   5.067 -0.6241  1.2137 -0.5003
22935SOL     OW69382   0.265   0.406   3.753  0.2390  0.2824  0.1730
22935SOL    HW169383   0.307   0.387   3.669 -0.5247 -0.8805  0.0338
22935SOL    HW269384   0.320   0.363   3.818 -0.0613 -0.2085  0.1059
22936SOL     OW69385   7.659   7.587   8.267 -0.2985 -0.2193  0.3156
22936SOL    HW169386   7.631   7.499   8.245 -1.0829  0.6007 -2.4008
22936SOL    HW269387   7.578   7.632   8.292  0.2631 -0.5058  2.8920
22937SOL     OW69388   9.772   6.054   4.383 -0.1815 -0.7515 -0.1618
22937SOL    HW169389   9.768   6.133   4.329  0.3687 -1.5301 -1.3658
22937SOL    HW269390   9.860   6.054   4.421 -0.0709 -0.9444 -0.4155
22938SOL     OW69391   1.254   0.775   8.448 -0.6256 -0.0681  0.0770
22938SOL    HW169392   1.269   0.868   8.465  0.3885 -0.5657  2.2626
22938SOL    HW269393   1.328   0.749   8.393  1.2978 -0.3201  2.5919
22939SOL     OW69394   6.375   4.614   1.539  0.5363 -0.4766 -0.0292
22939SOL    HW169395   6.468   4.594   1.548  0.5017 -0.1941  1.0595
22939SOL    HW269396   6.363   4.697   1.585 -0.0353  0.1047 -1.1894
22940SOL     OW69397   9.566   5.181   7.947  0.2145  0.3666 -0.0862
22940SOL    HW169398   9.488   5.125   7.947 -1.2977  2.4006 -0.0436
22940SOL    HW269399   9.597   5.178   8.038  1.0757 -1.5282 -0.3760
22941SOL     OW69400   6.856   6.036   9.789  0.0211 -0.2558 -0.0359
22941SOL    HW169401   6.773   6.029   9.741 -0.7614  0.3707  1.1619
22941SOL    HW269402   6.906   5.959   9.762 -0.3918  0.0398 -1.7982
22942SOL     OW69403   4.062   0.736   1.980  0.2175  0.9475 -0.0387
22942SOL    HW169404   4.058   0.812   2.038  0.6379  1.3962 -0.5776
22942SOL    HW269405   4.006   0.670   2.021  0.5576  1.2305  0.9034
22943SOL     OW69406   3.346   5.096   8.535 -0.1370 -0.3024 -0.0853
22943SOL    HW169407   3.357   5.085   8.441  1.1706  0.9663 -0.1150
22943SOL    HW269408   3.412   5.039   8.574 -0.8149 -0.9864  0.0915
22944SOL     OW69409   1.919   8.655   9.457 -0.5572 -0.6617  0.1048
22944SOL    HW169410   1.884   8.726   9.511  2.1471  0.4367  0.5449
22944SOL    HW269411   1.940   8.585   9.520  0.9078 -0.0797  0.3016
22945SOL     OW69412   6.077   6.376   6.543 -0.4206 -0.2470 -0.3590
22945SOL    HW169413   6.063   6.378   6.449  1.4098 -0.5455 -0.6697
22945SOL    HW269414   6.170   6.356   6.554 -0.5246  0.0518  1.5067
22946SOL     OW69415   3.797   2.475   0.004 -0.1221 -0.5260  0.3890
22946SOL    HW169416   3.805   2.544   0.069  0.2884 -0.7920  0.6225
22946SOL    HW269417   3.707   2.444   0.013 -0.4739  0.3323 -0.0789
22947SOL     OW69418   6.148   9.345   1.082  0.3897 -0.0026 -0.2052
22947SOL    HW169419   6.147   9.342   1.178 -0.2720 -0.7232 -0.2223
22947SOL    HW269420   6.218   9.286   1.057  0.4257  0.0245 -0.1694
22948SOL     OW69421   6.629   4.076   8.505  0.0457  0.1126 -0.7204
22948SOL    HW169422   6.624   4.065   8.410 -0.8956 -2.2085 -0.4593
22948SOL    HW269423   6.543   4.113   8.528  0.9704  2.5987 -0.9041
22949SOL     OW69424   2.055   9.984   0.260 -0.3201  0.2765 -0.4973
22949SOL    HW169425   2.044   9.902   0.309  1.2121 -0.3490 -1.1225
22949SOL    HW269426   2.149   9.988   0.242 -0.5478  1.5788 -1.5156
22950SOL     OW69427   7.411   6.751   3.524  0.1910  0.4547 -0.0292
22950SOL    HW169428   7.321   6.784   3.528 -0.1968 -0.5323 -0.4803
22950SOL    HW269429   7.441   6.752   3.615 -0.3655  0.5368  0.1566
22951SOL     OW69430   6.680   7.706   7.177  0.1372  0.1090  0.2335
22951SOL    HW169431   6.619   7.774   7.149  1.0484  0.6458 -0.5234
22951SOL    HW269432   6.744   7.753   7.231  2.0435  0.3639 -2.0635
22952SOL     OW69433   0.165   2.955   5.008 -0.5375 -0.3433 -0.3086
22952SOL    HW169434   0.117   3.022   4.959  0.3757  0.5709  0.0018
22952SOL    HW269435   0.141   2.970   5.099 -0.6724 -0.7322 -0.2796
22953SOL     OW69436   3.309   0.989   2.223  0.3518 -0.2864  0.1966
22953SOL    HW169437   3.230   0.965   2.271  0.5129 -1.3507 -0.0489
22953SOL    HW269438   3.381   0.948   2.271  0.8476  1.2835  0.8325
22954SOL     OW69439   6.935   6.674   6.459  0.1503  0.1308  0.9486
22954SOL    HW169440   7.020   6.680   6.501  0.7862 -1.6521  0.0136
22954SOL    HW269441   6.911   6.582   6.465 -0.9411  0.3047 -0.2480
22955SOL     OW69442   6.779   3.720   6.292  0.1212  0.6856 -0.2340
22955SOL    HW169443   6.744   3.768   6.217 -1.2006  0.4732  0.2315
22955SOL    HW269444   6.728   3.639   6.295 -1.1427  1.4702  1.9555
22956SOL     OW69445   9.606   3.584   6.728  0.5650 -0.5723 -0.1873
22956SOL    HW169446   9.552   3.511   6.695 -1.6079  0.0232  1.7579
22956SOL    HW269447   9.581   3.591   6.821  0.5739  2.7256 -0.3386
22957SOL     OW69448   9.901   3.763   2.878  0.1617  0.4705 -0.1561
22957SOL    HW169449   9.964   3.719   2.936 -0.4692 -0.0973  0.1150
22957SOL    HW269450   9.950   3.835   2.840  0.9072  0.1890  0.2456
22958SOL     OW69451   4.174   6.363   0.390 -0.3390  0.3721 -0.2112
22958SOL    HW169452   4.181   6.304   0.465  0.3953 -0.4770 -0.9172
22958SOL    HW269453   4.251   6.342   0.336 -0.2800  1.7037 -0.6779
22959SOL     OW69454   2.506   6.697   3.712 -0.1686 -0.1314 -0.1747
22959SOL    HW169455   2.443   6.706   3.641 -0.8159  0.6626  0.4801
22959SOL    HW269456   2.528   6.604   3.713 -1.5621 -0.4847 -0.2223
22960SOL     OW69457   0.633   3.298   8.001 -0.3808 -0.9640  0.1990
22960SOL    HW169458   0.560   3.353   8.030  0.1662  0.7248 -1.4302
22960SOL    HW269459   0.592   3.232   7.945 -1.0678 -2.4651  2.3287
22961SOL     OW69460   7.997   2.922   7.791 -0.4030  0.2593 -0.2513
22961SOL    HW169461   7.973   3.014   7.801  1.8861  0.6256  4.3193
22961SOL    HW269462   8.079   2.923   7.742 -0.2802  0.6737 -0.0368
22962SOL     OW69463   7.928   8.590   2.312 -0.0266 -0.0668  0.2883
22962SOL    HW169464   7.921   8.649   2.236 -0.4515  0.4470  0.7232
22962SOL    HW269465   7.912   8.503   2.276  0.2539  0.1174 -0.2990
22963SOL     OW69466   3.271   9.642   9.039  0.0874  0.2571 -0.1485
22963SOL    HW169467   3.363   9.615   9.035  0.5720  1.5162  1.3911
22963SOL    HW269468   3.243   9.648   8.948  0.8237 -2.3669 -0.6223
22964SOL     OW69469   5.218   3.619   5.743  0.0117 -0.5084  0.1127
22964SOL    HW169470   5.172   3.698   5.715  0.7205  0.7634  2.2849
22964SOL    HW269471   5.162   3.547   5.714 -0.5472  0.7337 -2.1270
22965SOL     OW69472   4.132   0.455   1.641  0.1361  0.0033 -0.4125
22965SOL    HW169473   4.086   0.538   1.633 -0.2798 -0.3583 -2.1006
22965SOL    HW269474   4.093   0.414   1.718 -1.9249  0.0077 -1.3925
22966SOL     OW69475   9.469   4.327   6.747 -0.0630 -0.1574  0.5679
22966SOL    HW169476   9.393   4.384   6.740 -0.6406 -1.0160 -0.3104
22966SOL    HW269477   9.544   4.384   6.729 -0.6793  0.2086 -0.9686
22967SOL     OW69478   2.993   8.772   1.642 -0.5204  0.0496 -0.0191
22967SOL    HW169479   2.931   8.733   1.581  0.2893 -0.4570 -0.5455
22967SOL    HW269480   3.054   8.820   1.586  0.8594 -1.2951  0.2708
22968SOL     OW69481   6.103   7.275   7.203  0.3360  0.2326  0.7229
22968SOL    HW169482   6.162   7.200   7.203  0.2009  0.1221  1.4553
22968SOL    HW269483   6.103   7.306   7.294  0.6186  1.2956  0.3830
22969SOL     OW69484   4.364   4.459   0.187  0.0085  0.4721 -0.1179
22969SOL    HW169485   4.350   4.494   0.275  0.4560  0.5684 -0.0818
22969SOL    HW269486   4.289   4.401   0.171 -0.9089  1.6903 -0.3116
22970SOL     OW69487   9.718   7.671   8.760 -0.1356  0.2536  0.1068
22970SOL    HW169488   9.810   7.670   8.734  0.0263  0.3154  0.6664
22970SOL    HW269489   9.687   7.583   8.742 -0.1076  0.3707 -0.5583
22971SOL     OW69490   6.614   1.321   0.016 -0.2016  0.5942 -0.2328
22971SOL    HW169491   6.615   1.298   0.108 -1.0805  1.2851 -0.0325
22971SOL    HW269492   6.522   1.312  -0.010  0.0575  0.2312 -1.0917
22972SOL     OW69493   2.749   7.321   4.435 -0.0645 -0.4255 -0.7990
22972SOL    HW169494   2.793   7.320   4.350 -0.3841 -1.8778 -0.9814
22972SOL    HW269495   2.664   7.280   4.419 -0.1070 -0.7777  0.2349
22973SOL     OW69496   3.052   3.967   4.282 -0.2973 -0.1750 -0.2441
22973SOL    HW169497   3.009   4.006   4.358 -0.6750 -0.1931 -0.4415
22973SOL    HW269498   3.081   4.042   4.230 -1.5670 -0.1153 -0.9291
22974SOL     OW69499   0.611   0.881   8.090  0.4998  0.5358 -0.4000
22974SOL    HW169500   0.559   0.801   8.096 -1.5291  1.9018  2.2455
22974SOL    HW269501   0.701   0.851   8.106  0.0956 -1.4231 -1.4516
22975SOL     OW69502   4.132   5.093   2.428  0.1885 -0.0072  0.2322
22975SOL    HW169503   4.069   5.031   2.393  1.5006 -1.4707  0.3324
22975SOL    HW269504   4.192   5.040   2.480  2.2722  1.0822 -0.9197
22976SOL     OW69505   8.863   0.054   7.136 -0.6968  0.0546  0.0900
22976SOL    HW169506   8.891   0.088   7.051 -0.5394  0.6409  0.3691
22976SOL    HW269507   8.818  -0.027   7.116  1.8413 -1.3582 -0.3571
22977SOL     OW69508   3.733   0.582   3.993 -0.2922  0.0378  0.0765
22977SOL    HW169509   3.660   0.636   3.964 -0.4646 -0.9246 -1.3720
22977SOL    HW269510   3.710   0.493   3.968  0.3427 -0.6330  1.7028
22978SOL     OW69511   2.479   6.866   5.731 -0.5394  0.9343  0.2657
22978SOL    HW169512   2.519   6.796   5.678 -0.9598  1.8269 -1.2731
22978SOL    HW269513   2.535   6.942   5.717 -0.4436  1.0954  1.4319
22979SOL     OW69514   7.974   2.871   0.105 -0.1568  0.0222  0.2192
22979SOL    HW169515   8.046   2.917   0.148  0.0341  0.4948 -0.6033
22979SOL    HW269516   7.939   2.814   0.174 -1.6988  2.7768  1.9145
22980SOL     OW69517   0.511   0.659   2.760 -0.0378  0.0852 -0.1251
22980SOL    HW169518   0.462   0.738   2.737 -0.2294  0.1807  0.5949
22980SOL    HW269519   0.449   0.588   2.744 -0.3310  0.1872  0.5376
22981SOL     OW69520   6.932   0.987   9.595  0.1176 -0.6988  0.1855
22981SOL    HW169521   6.837   0.986   9.607  0.1533 -1.5002  0.4501
22981SOL    HW269522   6.946   0.932   9.517  0.2979  0.1988 -0.4350
22982SOL     OW69523   4.803   2.475   9.144 -0.1876 -0.5942  0.1097
22982SOL    HW169524   4.732   2.428   9.099  0.5282 -1.9265  0.3229
22982SOL    HW269525   4.883   2.442   9.103  0.3391  0.5473  0.1988
22983SOL     OW69526   4.197   6.265   3.363 -0.0369 -0.1664 -0.0348
22983SOL    HW169527   4.111   6.280   3.322  0.7265 -1.0388 -2.0519
22983SOL    HW269528   4.219   6.175   3.340  1.5272  0.1155  0.2752
22984SOL     OW69529   6.311   0.075   5.954  0.1861  0.7536  0.2599
22984SOL    HW169530   6.241   0.132   5.922 -1.2516  0.0757  1.9664
22984SOL    HW269531   6.311   0.000   5.894  2.1057  2.4522 -2.0072
22985SOL     OW69532   7.968   9.597   9.809 -0.4318  0.6329  0.3230
22985SOL    HW169533   7.969   9.507   9.841  2.3769  0.1888 -0.6806
22985SOL    HW269534   8.033   9.642   9.862 -0.0178  1.3965 -0.7953
22986SOL     OW69535   9.160   6.466   3.986 -0.6116 -0.3028 -0.7813
22986SOL    HW169536   9.082   6.511   3.955 -0.8904 -0.5728 -0.4676
22986SOL    HW269537   9.142   6.446   4.078 -0.4639 -0.9979 -0.8976
22987SOL     OW69538   0.031   9.830   9.738  0.0832 -0.1460 -0.6629
22987SOL    HW169539  -0.007   9.743   9.724  0.9450 -0.6921  0.2826
22987SOL    HW269540  -0.007   9.859   9.821 -1.9432  1.3813 -2.0187
22988SOL     OW69541   6.138   8.295   0.085 -0.5230  0.6321  0.2112
22988SOL    HW169542   6.078   8.245   0.029  0.3618 -1.1347  0.7849
22988SOL    HW269543   6.117   8.387   0.067 -3.3538  0.0953  0.3214
22989SOL     OW69544   3.917   6.335   6.698 -0.3852 -0.5317  0.2541
22989SOL    HW169545   3.929   6.245   6.727  0.6944 -0.6418 -0.4520
22989SOL    HW269546   3.980   6.386   6.750 -0.1091 -0.3845 -0.2145
22990SOL     OW69547   9.116   1.848   2.412 -0.2739 -0.1403 -0.0514
22990SOL    HW169548   9.210   1.830   2.400 -0.0465 -0.2456  1.6806
22990SOL    HW269549   9.078   1.829   2.326  0.9349 -2.5274 -0.1679
22991SOL     OW69550   9.827   0.684   9.624  0.3730 -0.1861 -0.1525
22991SOL    HW169551   9.902   0.667   9.680 -0.4175  1.4405  1.5212
22991SOL    HW269552   9.760   0.718   9.684 -1.1942 -0.2048 -1.8082
22992SOL     OW69553   8.021   0.575   5.524  0.1302 -0.0429  0.0180
22992SOL    HW169554   8.064   0.541   5.446 -0.5977 -1.1206  0.0586
22992SOL    HW269555   8.082   0.555   5.596 -0.1900 -1.1187  0.0112
22993SOL     OW69556   3.709   1.320   8.993  0.5214  0.2239 -0.1573
22993SOL    HW169557   3.659   1.319   9.074 -1.3425  1.4066 -1.2043
22993SOL    HW269558   3.752   1.406   8.992  1.8780 -0.4255  0.3015
22994SOL     OW69559   3.061   6.469   6.936  0.0647  0.6067 -0.2661
22994SOL    HW169560   3.117   6.436   7.007  0.3492  2.6703  0.5377
22994SOL    HW269561   3.112   6.539   6.896 -0.0536 -0.5638 -2.6461
22995SOL     OW69562   9.949   8.590   7.369 -0.4361 -0.7229  0.5800
22995SOL    HW169563   9.921   8.502   7.347  1.8284 -1.3571 -0.1299
22995SOL    HW269564   9.871   8.634   7.401 -2.0842 -2.3634 -0.9562
22996SOL     OW69565   4.057   4.253   5.400  0.0152 -0.0206  0.2271
22996SOL    HW169566   4.000   4.181   5.370 -0.4574  0.0389  0.9695
22996SOL    HW269567   4.004   4.302   5.462  0.4554  0.7821 -0.0141
22997SOL     OW69568   3.629   3.119   7.357 -0.0050  0.2712  0.0162
22997SOL    HW169569   3.656   3.210   7.340 -0.3898  0.3004 -0.4398
22997SOL    HW269570   3.685   3.067   7.299 -0.1430  0.2556 -0.1042
22998SOL     OW69571   0.292   8.710   3.407 -0.6846  0.1517 -0.4997
22998SOL    HW169572   0.359   8.711   3.338 -1.3939 -0.8181 -1.2266
22998SOL    HW269573   0.337   8.745   3.484  0.4684  0.1517 -1.1455
22999SOL     OW69574   5.462   5.677   0.787  0.2871  0.2738  0.5048
22999SOL    HW169575   5.413   5.664   0.868 -1.9058 -2.4664 -1.1007
22999SOL    HW269576   5.513   5.597   0.776  0.2307  0.4150 -1.0100
23000SOL     OW69577   7.377   0.554   7.905 -0.0360 -0.5306 -0.0194
23000SOL    HW169578   7.362   0.490   7.975 -2.3063 -0.1414 -0.0779
23000SOL    HW269579   7.472   0.558   7.896  0.2665 -1.6116  2.0931
23001SOL     OW69580   5.799   6.861   5.857  0.7707 -0.4812  0.1045
23001SOL    HW169581   5.865   6.800   5.891  0.8084  0.6118  2.1593
23001SOL    HW269582   5.724   6.851   5.916  0.3319  0.5897 -0.2405
23002SOL     OW69583   1.036   4.504   9.291  0.1911 -0.2094  0.0155
23002SOL    HW169584   1.034   4.589   9.335 -0.8819 -0.0476 -0.3221
23002SOL    HW269585   1.097   4.517   9.219  0.4646  0.1037  0.2943
23003SOL     OW69586   7.866   0.791   3.350  0.1996 -0.0447 -0.0845
23003SOL    HW169587   7.883   0.768   3.259 -0.9347  0.7786 -0.5286
23003SOL    HW269588   7.908   0.721   3.401  1.0577 -0.3807 -1.2157
23004SOL     OW69589   5.166   2.469   9.382  0.1314 -0.3614  0.2181
23004SOL    HW169590   5.133   2.530   9.316  0.7165  0.4832  0.6759
23004SOL    HW269591   5.209   2.400   9.331 -1.6841 -1.1214 -0.3534
23005SOL     OW69592   3.657   4.072   5.671 -0.0051  0.1195  0.5728
23005SOL    HW169593   3.618   4.058   5.585 -0.4807 -0.5504  0.8890
23005SOL    HW269594   3.582   4.087   5.729  0.3601  1.7339  0.6764
23006SOL     OW69595   4.663   5.357   0.056 -0.3979  0.2455  0.1375
23006SOL    HW169596   4.648   5.287  -0.007  1.2010 -0.7023  0.7622
23006SOL    HW269597   4.647   5.316   0.141 -0.9545  1.0716  0.4445
23007SOL     OW69598   2.605   9.061   5.961  0.2320  0.1343  0.5396
23007SOL    HW169599   2.513   9.064   5.988 -0.3696  0.5075 -1.4140
23007SOL    HW269600   2.654   9.055   6.044 -1.5123  0.2798  1.6356
23008SOL     OW69601   1.105   2.207   5.826  0.0781  0.0080 -0.8238
23008SOL    HW169602   1.045   2.133   5.835 -0.1106  0.2626  0.0614
23008SOL    HW269603   1.056   2.283   5.856  0.6600  0.3118 -0.6197
23009SOL     OW69604   3.869   6.030   5.992 -0.0916  0.2484 -0.4510
23009SOL    HW169605   3.849   6.046   6.085  2.7640  1.7434  0.0329
23009SOL    HW269606   3.804   6.082   5.945 -1.0857  0.1246  0.7121
23010SOL     OW69607   5.162   5.452   4.562 -0.2838 -0.5196  0.5031
23010SOL    HW169608   5.131   5.538   4.533  0.9159 -1.1404 -3.0908
23010SOL    HW269609   5.244   5.470   4.609  1.4589  0.2679 -2.5973
23011SOL     OW69610   9.069   8.219   1.897 -0.0021  0.1770  0.1856
23011SOL    HW169611   9.073   8.263   1.982  3.1640 -0.0282  0.2627
23011SOL    HW269612   9.146   8.252   1.850  0.0289 -2.0247 -1.4406
23012SOL     OW69613   7.424   5.331   0.624  0.4243  0.2101 -0.0873
23012SOL    HW169614   7.337   5.343   0.586  0.3240  0.1775  0.1299
23012SOL    HW269615   7.407   5.298   0.713  0.6878 -1.5028 -0.6335
23013SOL     OW69616   5.809   0.071   4.877 -0.1311  0.0520 -0.1011
23013SOL    HW169617   5.843   0.106   4.794 -1.8260 -1.3750 -1.4823
23013SOL    HW269618   5.879   0.014   4.909  0.4578  0.4320 -0.6768
23014SOL     OW69619   3.524   8.781   9.922  0.4131 -0.3164 -0.3396
23014SOL    HW169620   3.555   8.860   9.966  0.3167 -0.4657  0.0007
23014SOL    HW269621   3.554   8.709   9.978 -0.1585 -0.4858 -0.2406
23015SOL     OW69622   4.907   4.577   7.350 -0.7782 -0.4571  0.3963
23015SOL    HW169623   4.840   4.619   7.295 -0.5059  1.6376  1.5675
23015SOL    HW269624   4.937   4.503   7.298 -0.5276  1.4140 -2.3285
23016SOL     OW69625   4.680   9.772   1.954 -0.3596 -0.0027 -0.1148
23016SOL    HW169626   4.615   9.821   1.903 -1.3588 -1.6472 -0.5324
23016SOL    HW269627   4.631   9.697   1.988  0.6496  0.2479  2.0682
23017SOL     OW69628   3.471   7.326   7.591 -0.2180 -0.1716 -0.4010
23017SOL    HW169629   3.533   7.267   7.547  1.1791  1.8991 -1.3624
23017SOL    HW269630   3.514   7.349   7.673 -0.9749 -0.8105  0.1939
23018SOL     OW69631   2.763   8.042   5.814  0.2982  0.4967  0.1796
23018SOL    HW169632   2.776   8.101   5.888 -1.2121  2.1818 -0.8125
23018SOL    HW269633   2.674   8.061   5.785  0.7907 -0.2545 -1.9559
23019SOL     OW69634   0.608   4.611   6.023  0.1756  0.4952  0.7544
23019SOL    HW169635   0.598   4.655   5.938 -0.9904 -0.5578  0.3284
23019SOL    HW269636   0.686   4.556   6.012  0.2834  0.6932  0.5107
23020SOL     OW69637   3.616   2.197   3.548  0.2086  0.5698 -0.4544
23020SOL    HW169638   3.553   2.214   3.619  1.3487 -1.1273  1.0459
23020SOL    HW269639   3.571   2.134   3.492  0.1122  0.3113 -0.0868
23021SOL     OW69640   6.356   2.424   3.935 -0.2765 -0.0066  0.1695
23021SOL    HW169641   6.359   2.455   3.845  0.7382  0.5502  0.3751
23021SOL    HW269642   6.273   2.456   3.970 -0.1571  0.7478 -0.2277
23022SOL     OW69643   1.550   1.814   1.366 -0.5815  0.4857  0.0659
23022SOL    HW169644   1.594   1.813   1.451 -0.3169 -0.0957 -0.0703
23022SOL    HW269645   1.608   1.764   1.309 -2.4573 -2.3420  0.4231
23023SOL     OW69646   0.595   4.713   5.767 -0.5849 -0.2791 -0.4860
23023SOL    HW169647   0.590   4.808   5.770 -0.3102 -0.2783 -0.0822
23023SOL    HW269648   0.688   4.693   5.761 -0.6061 -0.5437  0.0608
23024SOL     OW69649   9.967   3.270   8.553  0.3153 -0.0098 -0.2923
23024SOL    HW169650   9.974   3.178   8.581 -2.7500 -0.3815 -0.3520
23024SOL    HW269651   9.979   3.267   8.458  0.4337 -0.3148 -0.2688
23025SOL     OW69652   9.919   1.902   1.765  0.0732  0.2870  0.1419
23025SOL    HW169653   9.857   1.935   1.700  0.4175 -0.7852 -0.7538
23025SOL    HW269654   9.940   1.979   1.819  1.0710  1.6452 -2.0402
23026SOL     OW69655   4.900   8.717   5.996 -0.2271  0.3725  0.3699
23026SOL    HW169656   4.882   8.668   6.077  0.7395 -0.6456  0.0018
23026SOL    HW269657   4.872   8.657   5.926  1.1310  0.2514 -0.0945
23027SOL     OW69658   0.751   8.726   8.121 -0.2769  0.2374 -0.0712
23027SOL    HW169659   0.676   8.747   8.176 -0.8115 -1.7645  0.0478
23027SOL    HW269660   0.778   8.639   8.150  1.4071  0.4662 -0.8692
23028SOL     OW69661   1.726   6.747   7.988  0.4554 -0.1022 -0.4067
23028SOL    HW169662   1.661   6.703   8.043  2.2502 -0.8566  1.2280
23028SOL    HW269663   1.685   6.753   7.902 -2.0552  0.1674  0.7329
23029SOL     OW69664   0.393   5.255   7.300  0.7739 -0.2296  0.8381
23029SOL    HW169665   0.470   5.279   7.353  0.6151 -0.0642  0.9947
23029SOL    HW269666   0.373   5.166   7.326 -0.6631  0.5807  2.7187
23030SOL     OW69667   1.155   3.526   5.298 -0.1635  0.1583 -0.3339
23030SOL    HW169668   1.236   3.538   5.248 -0.3666  0.3407 -0.6219
23030SOL    HW269669   1.174   3.454   5.357 -0.7336 -1.8035 -2.4084
23031SOL     OW69670   4.444   6.073   0.583  0.1819 -0.4392  0.6489
23031SOL    HW169671   4.523   6.069   0.529  0.3035 -0.6032  0.8351
23031SOL    HW269672   4.417   5.982   0.593 -0.7261 -0.3107 -0.4159
23032SOL     OW69673   8.323   5.009   5.356  0.6769  0.2532  0.5554
23032SOL    HW169674   8.258   4.969   5.414  1.2896 -0.6918  0.6140
23032SOL    HW269675   8.282   5.091   5.326 -0.1852  0.0886  1.2534
23033SOL     OW69676   2.729   2.794   3.485  0.3183  0.4400  0.1917
23033SOL    HW169677   2.806   2.738   3.495  1.0057  0.9912 -1.6242
23033SOL    HW269678   2.721   2.840   3.569  1.2904 -0.4457  0.7835
23034SOL     OW69679   7.080   0.486   0.672  0.2161 -0.5168 -0.0024
23034SOL    HW169680   7.010   0.421   0.673 -0.7755  0.5105  2.0561
23034SOL    HW269681   7.074   0.526   0.585 -2.7125  0.5024  0.5548
23035SOL     OW69682   7.890   1.262   1.997  0.2701  1.2096 -0.3553
23035SOL    HW169683   7.912   1.328   1.931  1.8205  1.7211  0.6221
23035SOL    HW269684   7.794   1.254   1.992  0.3257  1.3009 -2.5602
23036SOL     OW69685   5.279   3.543   8.694  0.1506  0.1420  0.6554
23036SOL    HW169686   5.306   3.591   8.772 -0.3806 -0.0457  0.9612
23036SOL    HW269687   5.253   3.457   8.727  0.4489 -0.1282  0.2004
23037SOL     OW69688   1.021   6.821   7.088  0.0257  0.4909  0.6320
23037SOL    HW169689   0.973   6.840   7.007 -1.2144  0.3397  1.3238
23037SOL    HW269690   1.020   6.725   7.094 -2.1410  0.5607  2.1366
23038SOL     OW69691   2.616   3.866   6.144  0.0011  0.1678 -0.1401
23038SOL    HW169692   2.708   3.870   6.170 -0.1254  0.2182  0.3057
23038SOL    HW269693   2.618   3.829   6.056  0.4877  0.7375 -0.3722
23039SOL     OW69694   9.734   7.415   8.383 -0.0948 -0.0095 -0.8775
23039SOL    HW169695   9.775   7.328   8.391 -0.2875 -0.2679 -2.4257
23039SOL    HW269696   9.801   7.469   8.341  0.7907  1.2053  1.8409
23040SOL     OW69697   4.069   6.933   7.311 -0.0235 -0.5861 -0.8042
23040SOL    HW169698   4.136   6.972   7.255 -0.4412 -0.7887 -1.4476
23040SOL    HW269699   4.115   6.863   7.358  0.1049 -1.0416 -1.6028
23041SOL     OW69700   2.810   7.847   9.759 -0.3032  0.2913 -0.3977
23041SOL    HW169701   2.737   7.817   9.705 -0.0510  0.6659 -0.9440
23041SOL    HW269702   2.875   7.879   9.697  0.4893 -0.3770  0.0613
23042SOL     OW69703   7.714   9.254   3.131 -0.0767 -0.5829  0.3217
23042SOL    HW169704   7.750   9.305   3.058 -0.8458  3.9380  2.7382
23042SOL    HW269705   7.620   9.272   3.130 -0.3044 -1.5368  1.6266
23043SOL     OW69706   3.521   7.265   0.230 -0.3878  0.9367 -0.6737
23043SOL    HW169707   3.516   7.357   0.256  2.5420  1.3140 -1.1044
23043SOL    HW269708   3.546   7.219   0.311 -4.1985  0.0276  0.1623
23044SOL     OW69709   0.734   6.559   1.374 -0.0473  0.1587  0.7570
23044SOL    HW169710   0.786   6.479   1.360  0.8996  0.9595 -0.5285
23044SOL    HW269711   0.651   6.541   1.330  0.0419 -0.2417  0.7475
23045SOL     OW69712   5.198   3.999   9.374 -0.0039 -0.2682 -0.3170
23045SOL    HW169713   5.223   4.089   9.396 -1.7106 -0.1088  1.2111
23045SOL    HW269714   5.251   3.945   9.432 -0.5017 -0.1196  0.2897
23046SOL     OW69715   5.808   1.316   0.086 -0.0579 -0.5279 -0.1988
23046SOL    HW169716   5.846   1.376   0.150 -0.2266 -0.7327  0.0958
23046SOL    HW269717   5.819   1.229   0.125 -0.3602 -0.6341 -0.3469
23047SOL     OW69718   2.339   0.815   3.712  0.1689 -0.9876 -0.1983
23047SOL    HW169719   2.300   0.894   3.750  0.7461  0.2228 -1.9857
23047SOL    HW269720   2.280   0.744   3.738 -1.8994  0.4142 -0.7784
23048SOL     OW69721   1.082   3.607   9.001 -0.0222 -0.1312  0.3614
23048SOL    HW169722   1.006   3.548   9.005 -0.0145 -0.1013  1.2962
23048SOL    HW269723   1.136   3.581   9.076  0.8536 -0.0864 -0.2420
23049SOL     OW69724   4.236   7.366   8.278 -0.3040  0.2086 -0.1532
23049SOL    HW169725   4.162   7.381   8.338 -0.7837 -1.1334 -0.3893
23049SOL    HW269726   4.198   7.318   8.205  1.1634 -2.4851  0.7340
23050SOL     OW69727   6.492   3.142   5.623  0.1252 -0.1728 -0.2262
23050SOL    HW169728   6.414   3.197   5.622 -0.1013 -0.4899 -1.3425
23050SOL    HW269729   6.459   3.054   5.605  0.7397 -0.3118 -0.6772
23051SOL     OW69730   6.769   9.425   3.315 -0.0609 -0.0793  0.1791
23051SOL    HW169731   6.796   9.359   3.251 -0.0680 -0.9550  1.0619
23051SOL    HW269732   6.724   9.376   3.383  0.7175  0.7128  1.3043
23052SOL     OW69733   7.140   0.201   2.873  0.1845 -0.2315 -0.5176
23052SOL    HW169734   7.053   0.161   2.874  0.0565  0.0109 -1.2865
23052SOL    HW269735   7.128   0.282   2.824  0.5954  0.3999  0.4183
23053SOL     OW69736   2.161   9.895   9.541 -0.2732  0.0359 -0.1045
23053SOL    HW169737   2.129   9.811   9.508 -1.4767  1.2556 -2.2427
23053SOL    HW269738   2.206   9.935   9.467  1.5769  0.7106  1.3086
23054SOL     OW69739   2.006   5.514   7.731  0.5969 -0.3152 -0.3875
23054SOL    HW169740   1.946   5.440   7.744  0.3907 -0.1607 -0.4469
23054SOL    HW269741   2.008   5.528   7.637 -0.6051  0.7539 -0.2859
23055SOL     OW69742   5.421   9.212   5.041  0.1453  0.1317  0.0410
23055SOL    HW169743   5.507   9.214   4.998 -0.3068  1.7749 -0.8907
23055SOL    HW269744   5.359   9.194   4.970 -0.4030  0.5369  0.4108
23056SOL     OW69745   2.752   0.748   0.683  0.0220 -0.3803 -0.1459
23056SOL    HW169746   2.832   0.797   0.704  1.2198 -1.0578 -2.6431
23056SOL    HW269747   2.684   0.786   0.738  2.0410  0.2963  1.9977
23057SOL     OW69748   3.874   8.148   5.847 -0.0935 -0.3101 -0.3321
23057SOL    HW169749   3.849   8.113   5.761  0.1171 -0.8034 -0.1977
23057SOL    HW269750   3.839   8.237   5.848 -1.0003 -0.6490 -0.5260
23058SOL     OW69751   9.268   9.119   7.626 -0.4117 -0.6296 -0.1257
23058SOL    HW169752   9.330   9.138   7.556  0.4631  1.9919  1.2190
23058SOL    HW269753   9.322   9.113   7.705 -1.5853 -1.2696  0.6568
23059SOL     OW69754   1.626   1.393   0.164 -0.0431 -0.5532  0.1937
23059SOL    HW169755   1.628   1.459   0.233 -2.5353 -1.0461  0.8609
23059SOL    HW269756   1.665   1.436   0.088 -0.5877  1.3031  0.9084
23060SOL     OW69757   5.926   9.099   7.566  0.0626 -0.2260  0.1615
23060SOL    HW169758   5.923   9.006   7.546 -0.9518 -0.5815  1.8053
23060SOL    HW269759   5.845   9.135   7.529  0.9823  0.2699 -1.4853
23061SOL     OW69760   8.051   5.698   4.558 -0.3098 -1.2789  0.4135
23061SOL    HW169761   7.968   5.740   4.583 -0.1058 -1.4559  1.4465
23061SOL    HW269762   8.116   5.768   4.565 -0.4332 -1.0063 -0.9069
23062SOL     OW69763   3.185   0.108   3.927  0.2194  0.1649 -0.1642
23062SOL    HW169764   3.131   0.177   3.964 -0.9422 -0.3710 -0.8010
23062SOL    HW269765   3.147   0.027   3.962  0.1195 -0.2589 -1.2203
23063SOL     OW69766   9.252   0.403   1.182 -0.0676 -0.4222  0.2086
23063SOL    HW169767   9.194   0.384   1.256  0.2543 -2.4427 -0.0099
23063SOL    HW269768   9.315   0.466   1.218 -1.5264  0.7535  0.8355
23064SOL     OW69769   0.550   8.857   2.398 -0.7731  0.1619  0.2087
23064SOL    HW169770   0.531   8.775   2.444 -0.7569  0.3896  0.6250
23064SOL    HW269771   0.467   8.904   2.397 -0.5262  0.6321  0.9698
23065SOL     OW69772   0.644   8.151   3.691  0.2791 -0.1265 -0.2864
23065SOL    HW169773   0.570   8.091   3.703  1.5441 -1.9186 -1.0835
23065SOL    HW269774   0.650   8.198   3.774 -0.9124 -0.8984  0.2677
23066SOL     OW69775   1.890   3.520   5.072 -0.0608 -0.0283  0.0683
23066SOL    HW169776   1.804   3.559   5.087  0.4473  0.5268  1.6744
23066SOL    HW269777   1.893   3.507   4.977 -1.1805  1.6619 -0.2540
23067SOL     OW69778   3.367   5.983   8.469  0.5486  0.7587 -0.3739
23067SOL    HW169779   3.423   6.017   8.539  1.0269  1.7628 -1.2250
23067SOL    HW269780   3.372   6.048   8.400 -0.0057 -0.1652 -1.3188
23068SOL     OW69781   7.326   5.519   0.017 -0.3524  0.7568 -0.0844
23068SOL    HW169782   7.302   5.526   0.109 -1.7162  1.5439 -0.4601
23068SOL    HW269783   7.421   5.509   0.017 -0.4211 -0.2099  1.4307
23069SOL     OW69784   6.999   5.336   9.015 -0.1668  0.3949 -0.4142
23069SOL    HW169785   7.084   5.349   9.058  0.1105 -1.7799 -0.1730
23069SOL    HW269786   7.017   5.347   8.922  0.1085  1.1494 -0.2774
23070SOL     OW69787   3.208   8.032   1.765 -0.2948 -0.1512  0.1555
23070SOL    HW169788   3.161   7.979   1.700  0.7655  0.9831 -1.6116
23070SOL    HW269789   3.140   8.085   1.807 -0.7807  0.8300 -1.7520
23071SOL     OW69790   2.017   9.754   8.161  0.4110 -0.6356 -0.1536
23071SOL    HW169791   2.006   9.781   8.252  2.1954 -4.9174  1.5802
23071SOL    HW269792   2.103   9.787   8.137 -0.3011  1.0104 -0.6137
23072SOL     OW69793   1.319   4.555   8.437 -0.0119  0.6208  0.4132
23072SOL    HW169794   1.335   4.571   8.531 -0.9447  1.3657  0.4547
23072SOL    HW269795   1.401   4.582   8.395 -0.4919  2.7999  0.7772
23073SOL     OW69796   3.580   4.422   5.874 -0.0823 -0.2411  0.1350
23073SOL    HW169797   3.559   4.339   5.831  1.2630 -0.3930 -0.2909
23073SOL    HW269798   3.498   4.472   5.873 -0.5273 -0.9542 -0.9879
23074SOL     OW69799   7.093   5.939   6.227 -1.0167 -0.4919  0.8278
23074SOL    HW169800   7.049   5.864   6.268 -2.6292  0.6586  1.2804
23074SOL    HW269801   7.042   5.956   6.148  2.0742 -2.7280 -1.9830
23075SOL     OW69802   2.159   4.154   2.267  0.2661 -0.8036  0.3503
23075SOL    HW169803   2.238   4.207   2.258 -0.3991  0.0829 -0.4502
23075SOL    HW269804   2.133   4.133   2.178 -1.0947 -0.0037  0.5179
23076SOL     OW69805   1.026   1.384   1.478 -0.2914 -0.4106 -0.0800
23076SOL    HW169806   1.079   1.305   1.493  0.8430  0.3343 -0.0432
23076SOL    HW269807   0.964   1.385   1.551  0.7985 -0.3936  0.8886
23077SOL     OW69808   4.467   6.317   0.284 -0.5560  0.2304 -0.2907
23077SOL    HW169809   4.543   6.330   0.227  0.7274  2.0764  1.7059
23077SOL    HW269810   4.483   6.232   0.325 -0.5149 -0.2122 -1.1755
23078SOL     OW69811   1.038   4.265   6.928  0.0562 -0.1414 -0.8032
23078SOL    HW169812   0.971   4.280   6.861  0.7219  1.0681 -1.2367
23078SOL    HW269813   1.120   4.258   6.880  0.2189 -1.9997 -0.3010
23079SOL     OW69814   5.980   8.082   9.776 -0.2408  0.6266  0.0838
23079SOL    HW169815   5.977   8.016   9.846  2.5744  2.5152  2.1762
23079SOL    HW269816   5.916   8.148   9.802 -0.1949  0.6689  0.0889
23080SOL     OW69817   5.269   9.503   0.558  0.0161 -0.0185  0.7148
23080SOL    HW169818   5.261   9.552   0.476  0.2844  0.7265  1.1191
23080SOL    HW269819   5.193   9.530   0.610  0.4779  0.4579  1.1740
23081SOL     OW69820   8.665   6.290   4.799 -0.0250  0.2514 -0.2647
23081SOL    HW169821   8.645   6.370   4.750  0.5346  0.6856  0.1874
23081SOL    HW269822   8.745   6.257   4.759 -0.4668 -0.2985 -0.6980
23082SOL     OW69823   8.350   0.268   8.617 -0.8058 -0.5775  0.3756
23082SOL    HW169824   8.325   0.312   8.698  1.0021 -0.5494  0.9545
23082SOL    HW269825   8.440   0.295   8.601  1.8418 -6.3773  2.5630
23083SOL     OW69826   6.575   8.655   1.666 -0.0098 -0.4863 -0.0676
23083SOL    HW169827   6.491   8.665   1.620  0.8743  1.5251 -1.3692
23083SOL    HW269828   6.578   8.729   1.726  1.0704 -0.2360 -0.4208
23084SOL     OW69829   7.878   6.049   8.865 -1.1056 -0.4445  0.4255
23084SOL    HW169830   7.939   5.991   8.819  1.0723  2.6351 -0.9703
23084SOL    HW269831   7.820   6.082   8.796 -1.4169  0.0612  0.9238
23085SOL     OW69832   7.803   7.404   5.357 -0.4773 -0.2584 -0.2831
23085SOL    HW169833   7.811   7.483   5.410 -2.6376  0.8005 -1.3594
23085SOL    HW269834   7.792   7.333   5.420 -0.1289  0.5396  0.7036
23086SOL     OW69835   3.928   9.095   8.828 -0.0836  0.3280  0.4630
23086SOL    HW169836   4.000   9.039   8.797 -1.7115 -0.2268 -2.8059
23086SOL    HW269837   3.898   9.053   8.909  2.2994 -0.2312  1.1449
23087SOL     OW69838   8.143   9.577   3.021  0.1320 -0.3938 -0.0483
23087SOL    HW169839   8.166   9.496   3.067 -0.9231 -1.0968 -0.7211
23087SOL    HW269840   8.103   9.548   2.940 -3.0206  0.7092  0.9836
23088SOL     OW69841   1.572   8.379   6.667  0.3411  0.4608 -0.1721
23088SOL    HW169842   1.587   8.427   6.748 -0.8239  1.4842 -0.5249
23088SOL    HW269843   1.576   8.445   6.598  0.0306 -0.1637 -0.8063
23089SOL     OW69844   2.469   6.485   7.527 -0.2754  0.0857 -0.1359
23089SOL    HW169845   2.380   6.488   7.492 -0.7556  0.2315  1.0508
23089SOL    HW269846   2.525   6.479   7.449 -1.2313  1.4454 -0.9707
23090SOL     OW69847   4.762   4.717   2.588  0.4444 -0.0184 -0.3514
23090SOL    HW169848   4.810   4.731   2.670 -0.9856  0.3436  0.4573
23090SOL    HW269849   4.818   4.658   2.537  0.9328 -1.0140  1.2788
23091SOL     OW69850   7.495   9.104   1.089 -0.1893  0.1105 -0.0499
23091SOL    HW169851   7.536   9.030   1.045 -0.6280 -0.4368  0.4562
23091SOL    HW269852   7.505   9.086   1.182 -0.3025  0.6869  0.0805
23092SOL     OW69853   8.707   7.054   1.159 -0.0505  0.5458  0.5052
23092SOL    HW169854   8.645   6.993   1.119  1.6803 -1.0626  0.1504
23092SOL    HW269855   8.653   7.109   1.215 -2.0203  0.3162 -1.0298
23093SOL     OW69856   2.856   3.216   8.638  0.0690  0.1684 -0.2839
23093SOL    HW169857   2.917   3.214   8.713  1.4264  0.1332 -1.3448
23093SOL    HW269858   2.773   3.186   8.674  0.8224 -0.3636  1.0984
23094SOL     OW69859   0.933   2.297   0.995 -0.3238 -0.0405  0.2207
23094SOL    HW169860   0.997   2.253   0.940 -0.1876 -0.3329  0.6064
23094SOL    HW269861   0.913   2.378   0.949 -2.0923 -1.3715 -1.5490
23095SOL     OW69862   6.623   9.255   3.454  0.0310 -0.3820  0.2725
23095SOL    HW169863   6.591   9.220   3.538 -1.5580 -0.8502 -0.4790
23095SOL    HW269864   6.631   9.179   3.398 -0.9051  0.1242 -0.5909
23096SOL     OW69865   0.554   0.341   6.690  0.4594  0.0007 -0.0989
23096SOL    HW169866   0.472   0.301   6.720 -0.7128  1.5341 -1.1248
23096SOL    HW269867   0.562   0.421   6.742  0.3555  0.7735 -1.2489
23097SOL     OW69868  -0.021   1.254   6.204  0.5103 -0.2347  0.6251
23097SOL    HW169869  -0.010   1.339   6.247  1.0281  0.3856 -0.6787
23097SOL    HW269870   0.051   1.250   6.141 -0.2922 -1.0422 -0.2666
23098SOL     OW69871   8.193   0.987   3.078  0.3095 -0.1027 -0.7810
23098SOL    HW169872   8.205   0.903   3.121  0.5262  0.8439  1.0829
23098SOL    HW269873   8.104   1.014   3.101  0.9353  1.0924  0.3805
23099SOL     OW69874   2.443   7.700   7.396 -0.1647 -0.1401  0.0645
23099SOL    HW169875   2.464   7.757   7.321 -1.0271 -0.0178 -0.0996
23099SOL    HW269876   2.505   7.727   7.464  0.7346 -0.3552 -0.6460
23100SOL     OW69877  10.006   4.671   2.334 -0.2542 -0.5338 -0.0971
23100SOL    HW169878  10.014   4.699   2.426 -3.3201 -0.1093  0.1438
23100SOL    HW269879   9.916   4.692   2.311  0.2989 -1.0819 -3.1067
23101SOL     OW69880   0.511   7.789   6.327 -0.8332  0.7220  0.4455
23101SOL    HW169881   0.440   7.852   6.342 -0.9978  0.5617  0.3434
23101SOL    HW269882   0.586   7.843   6.302 -0.2100  1.1295  2.8777
23102SOL     OW69883   1.677   6.333   7.948  0.6834 -0.0931  0.5632
23102SOL    HW169884   1.639   6.271   7.886  0.0105  0.5850  0.2879
23102SOL    HW269885   1.610   6.345   8.015 -0.3420  2.3719 -0.7827
23103SOL     OW69886   7.273   8.436   7.461 -0.2257 -0.2538  0.1110
23103SOL    HW169887   7.284   8.457   7.554  3.7436 -0.1351 -0.2164
23103SOL    HW269888   7.307   8.512   7.415  0.0685 -1.2576 -1.3993
23104SOL     OW69889   9.798   5.710   0.445  0.5276 -0.2322  0.0898
23104SOL    HW169890   9.725   5.692   0.385 -0.1817  0.7606  0.6237
23104SOL    HW269891   9.843   5.626   0.454 -0.3810 -0.8013 -0.4755
23105SOL     OW69892   0.451   4.705   4.746  0.7603 -0.0890 -0.3011
23105SOL    HW169893   0.363   4.702   4.710 -0.1305 -4.8195  1.5045
23105SOL    HW269894   0.442   4.750   4.830  0.4844  0.8681 -0.8274
23106SOL     OW69895   1.706   8.209   5.390 -0.3005 -0.0764 -0.6036
23106SOL    HW169896   1.730   8.123   5.424 -0.6239  0.5038  1.1602
23106SOL    HW269897   1.780   8.266   5.413 -1.2201  0.6730  0.5970
23107SOL     OW69898   5.382   4.582   8.085  0.2435 -0.0412  0.3961
23107SOL    HW169899   5.416   4.627   8.162  2.0858  0.8578 -0.8596
23107SOL    HW269900   5.323   4.646   8.045 -1.1266 -0.7015  1.2840
23108SOL     OW69901   7.659   6.339   2.283  0.1749 -0.3162 -0.2014
23108SOL    HW169902   7.751   6.362   2.294  0.6477 -2.0370 -0.3155
23108SOL    HW269903   7.632   6.388   2.205  0.8296  0.5944  0.1240
23109SOL     OW69904   3.567   3.729   1.707 -0.3615 -0.2780 -0.1229
23109SOL    HW169905   3.637   3.703   1.647 -0.7138  0.9615 -1.1154
23109SOL    HW269906   3.537   3.647   1.746  2.1785 -0.7677  0.9670
23110SOL     OW69907   0.914   4.197   5.035  0.2908 -0.2934  0.1313
23110SOL    HW169908   0.846   4.264   5.033  0.5679 -0.0370 -1.6655
23110SOL    HW269909   0.897   4.148   5.116 -2.9265 -1.1898 -0.9395
23111SOL     OW69910   8.284   1.230   4.667  0.1216 -0.0634  0.5640
23111SOL    HW169911   8.228   1.202   4.739 -2.5711  1.7342 -0.7077
23111SOL    HW269912   8.226   1.237   4.592  2.0498  1.8728 -0.8778
23112SOL     OW69913   2.752   6.402   9.353 -0.2544 -0.8310  0.1534
23112SOL    HW169914   2.677   6.429   9.299  0.5240  0.2532 -0.4085
23112SOL    HW269915   2.767   6.475   9.413  1.4770 -0.2100 -0.9602
23113SOL     OW69916   5.293   0.214   8.654  0.1492 -0.8013 -0.3385
23113SOL    HW169917   5.281   0.302   8.618 -0.0627 -1.1847 -1.2371
23113SOL    HW269918   5.206   0.186   8.680  0.3038 -0.5223  0.5102
23114SOL     OW69919   3.344   3.627   7.373 -0.4859 -0.4279 -0.4770
23114SOL    HW169920   3.430   3.632   7.333 -0.2010 -0.8540  0.0589
23114SOL    HW269921   3.360   3.587   7.459 -1.1502 -0.0643 -0.1745
23115SOL     OW69922   7.457   5.455   4.282 -0.0051 -0.1716  0.3169
23115SOL    HW169923   7.396   5.492   4.346 -1.4655 -3.8481  1.3299
23115SOL    HW269924   7.517   5.401   4.335  2.3848  1.0503 -0.9733
23116SOL     OW69925   1.673   0.320   2.168 -0.0609 -0.7072 -0.1333
23116SOL    HW169926   1.593   0.370   2.152 -0.4786 -1.4597 -0.4385
23116SOL    HW269927   1.742   0.372   2.126 -0.5010 -0.4303 -0.5240
23117SOL     OW69928   6.327   2.534   0.614 -0.1668  0.9294  0.3196
23117SOL    HW169929   6.357   2.610   0.565 -2.3384 -0.1746 -3.0247
23117SOL    HW269930   6.399   2.471   0.607  0.1260  1.3188 -0.2380
23118SOL     OW69931   7.717   0.272   1.040 -0.5675 -0.0424 -0.2418
23118SOL    HW169932   7.729   0.223   0.959  0.5571  0.4298 -0.3822
23118SOL    HW269933   7.638   0.324   1.026 -3.1551 -3.3559  0.7169
23119SOL     OW69934   2.320   5.466   1.824  0.5225  0.2335  0.3236
23119SOL    HW169935   2.278   5.520   1.891 -0.5483  0.6143 -0.6289
23119SOL    HW269936   2.250   5.412   1.788  0.8223  0.8333 -1.2521
23120SOL     OW69937   6.428   8.416   8.764 -0.4424 -0.5882  0.6105
23120SOL    HW169938   6.388   8.491   8.806 -0.7962 -0.9496  0.9291
23120SOL    HW269939   6.522   8.435   8.765 -0.4756 -0.4369  1.2515
23121SOL     OW69940   0.609   2.626   8.779  0.2782  0.0881 -0.0958
23121SOL    HW169941   0.691   2.672   8.760  0.7634 -0.7516 -0.0866
23121SOL    HW269942   0.595   2.641   8.873 -0.5313  1.7085 -0.4363
23122SOL     OW69943   4.501   2.713   2.713 -0.0342 -0.2569 -0.4541
23122SOL    HW169944   4.418   2.760   2.715 -1.3942 -2.4745  1.9320
23122SOL    HW269945   4.557   2.764   2.655 -1.9171  3.2148  0.5337
23123SOL     OW69946   1.491   5.226   7.375 -0.2463  0.3187  0.4025
23123SOL    HW169947   1.551   5.192   7.441 -0.2529  1.2372  0.9069
23123SOL    HW269948   1.438   5.290   7.422 -0.1484  1.1132 -0.5228
23124SOL     OW69949   4.395   2.484   2.348 -0.6391  0.4067  0.6260
23124SOL    HW169950   4.472   2.451   2.302 -0.8003  1.0884 -0.1735
23124SOL    HW269951   4.411   2.465   2.440  0.5304  0.6309  0.4806
23125SOL     OW69952   4.111   0.973   3.052  0.1931  0.6234  0.3622
23125SOL    HW169953   4.198   0.950   3.085  0.4505  1.2522  0.1384
23125SOL    HW269954   4.096   0.914   2.979  1.3578  1.9150 -0.9826
23126SOL     OW69955   1.377   3.804   5.126 -0.0082 -0.3093 -0.7244
23126SOL    HW169956   1.390   3.710   5.120  1.1541 -0.2141 -0.0242
23126SOL    HW269957   1.418   3.829   5.209 -1.7916  0.5726 -0.0529
23127SOL     OW69958   5.776   8.472   2.185  0.2960  0.2135 -0.4910
23127SOL    HW169959   5.690   8.433   2.198  0.7671 -0.2430  1.7617
23127SOL    HW269960   5.797   8.455   2.094 -1.3880 -0.9318 -0.7058
23128SOL     OW69961   1.334   0.452   3.206  0.4133 -0.2559 -0.0350
23128SOL    HW169962   1.344   0.363   3.172  1.1768 -1.0791  2.1730
23128SOL    HW269963   1.421   0.491   3.195  0.1125  0.2006 -0.8822
23129SOL     OW69964   1.159   8.360   8.780  0.8812  0.0804 -0.4313
23129SOL    HW169965   1.190   8.283   8.827  0.5547 -0.0381 -0.4124
23129SOL    HW269966   1.095   8.326   8.717 -1.0120  0.5871  1.1215
23130SOL     OW69967   9.862   4.069   6.784  0.7525  0.5196 -0.0096
23130SOL    HW169968   9.867   3.973   6.774  2.5486  0.5373  0.4686
23130SOL    HW269969   9.791   4.095   6.726  0.2378 -1.1070 -0.1611
23131SOL     OW69970   0.615   7.662   5.366  0.5073  0.3303  0.1239
23131SOL    HW169971   0.532   7.710   5.367 -1.0390 -2.1850  0.0163
23131SOL    HW269972   0.672   7.716   5.312 -0.9333  2.3031  0.4480
23132SOL     OW69973   1.178   9.380   2.637  0.0682  0.2395 -0.2374
23132SOL    HW169974   1.130   9.460   2.656  0.4877  0.7724 -1.3437
23132SOL    HW269975   1.205   9.389   2.546  0.5010 -0.9656 -0.2445
23133SOL     OW69976   8.279   6.440   1.941  0.0638 -0.2607  0.2571
23133SOL    HW169977   8.255   6.449   1.849 -2.7370 -2.0838  0.6858
23133SOL    HW269978   8.348   6.374   1.941 -0.6368 -1.0239 -0.5023
23134SOL     OW69979   6.230   2.276   6.671 -0.0104 -0.1982  0.7814
23134SOL    HW169980   6.289   2.350   6.677  0.3938 -0.6423  2.6632
23134SOL    HW269981   6.145   2.309   6.701 -0.4716  0.1101 -0.7418
23135SOL     OW69982   8.086   6.467   5.670 -0.4253 -0.2179 -0.9546
23135SOL    HW169983   8.030   6.508   5.735  0.4685 -0.4794  0.0063
23135SOL    HW269984   8.121   6.389   5.714  2.2992  1.0065 -0.7509
23136SOL     OW69985   4.845   9.735   7.972  0.0664 -0.3469 -0.3092
23136SOL    HW169986   4.757   9.730   8.010 -0.1190  1.8194 -0.3171
23136SOL    HW269987   4.861   9.647   7.938 -1.7300 -1.0370  0.4723
23137SOL     OW69988   6.708   5.796   8.720 -0.3298  0.0498  0.4831
23137SOL    HW169989   6.747   5.835   8.641 -1.8419 -1.3819 -1.0547
23137SOL    HW269990   6.652   5.865   8.756 -0.7606  0.2584 -0.5494
23138SOL     OW69991   4.627   7.653   4.439  0.1357  0.1541  0.1265
23138SOL    HW169992   4.718   7.625   4.434 -0.1799 -1.0006  0.4778
23138SOL    HW269993   4.608   7.656   4.533 -0.5105 -0.7869  0.0434
23139SOL     OW69994   5.922   8.316   0.956  0.4032  0.6806  0.8638
23139SOL    HW169995   5.836   8.292   0.920  0.9582 -0.5741  0.2899
23139SOL    HW269996   5.923   8.277   1.043  0.4768  0.4554  0.7655
23140SOL     OW69997   4.211   9.355   8.928 -0.4780 -0.4553 -0.1909
23140SOL    HW169998   4.295   9.396   8.949 -0.3262 -0.9065  0.1142
23140SOL    HW269999   4.146   9.416   8.962 -0.2929  0.2039 -0.9972
23141SOL     OW70000   1.632   8.218   8.283 -0.3193  0.1194  0.3634
23141SOL    HW170001   1.704   8.194   8.342  0.0320 -0.4498 -0.2791
23141SOL    HW270002   1.614   8.138   8.234 -1.6864  0.1319  0.8053
23142SOL     OW70003   8.547   7.401   5.294  0.0173  0.2289 -0.5461
23142SOL    HW170004   8.575   7.433   5.380 -1.6819 -0.5033  0.3320
23142SOL    HW270005   8.582   7.312   5.290  0.8644  0.5697 -1.0298
23143SOL     OW70006   0.376   9.199   3.493  0.6177 -0.3554 -0.5389
23143SOL    HW170007   0.318   9.145   3.440  0.4730 -0.2138 -0.5249
23143SOL    HW270008   0.361   9.170   3.583  0.1843  0.0358 -0.4790
23144SOL     OW70009   9.976   1.145   8.765  0.7094 -0.1885  0.2624
23144SOL    HW170010  10.005   1.222   8.715 -0.1581 -1.8015 -2.9806
23144SOL    HW270011   9.889   1.125   8.730  1.0377 -2.8090  0.7511
23145SOL     OW70012   7.935   7.086   2.589 -0.1601 -0.5939 -0.2471
23145SOL    HW170013   7.853   7.038   2.573 -0.3561 -0.7548  1.1586
23145SOL    HW270014   7.927   7.117   2.679  2.0310 -2.0396  0.5298
23146SOL     OW70015   6.077   2.743   2.757  0.0764  0.0665 -0.2978
23146SOL    HW170016   6.016   2.798   2.807  0.5003 -0.5733  0.9653
23146SOL    HW270017   6.149   2.728   2.818  0.4066 -1.0948 -0.9680
23147SOL     OW70018   1.772   9.379   9.670 -0.3141 -0.1245  0.1900
23147SOL    HW170019   1.841   9.383   9.736 -0.8102 -0.7167  0.7548
23147SOL    HW270020   1.819   9.375   9.587  0.3164  1.2843  0.4394
23148SOL     OW70021   8.008   0.186   8.548 -0.0896 -0.0358  0.0027
23148SOL    HW170022   8.054   0.192   8.632 -0.7105  0.8664  0.2953
23148SOL    HW270023   7.994   0.277   8.523 -1.0318 -0.3034 -0.4598
23149SOL     OW70024   1.327   0.503   4.781 -0.5001 -0.2238  0.2744
23149SOL    HW170025   1.291   0.434   4.836  0.0470 -0.2810  0.5629
23149SOL    HW270026   1.381   0.458   4.717 -0.4092 -0.0884  0.2551
23150SOL     OW70027   0.365   4.341   3.921 -0.4377  0.1705 -0.4044
23150SOL    HW170028   0.406   4.257   3.901  1.3392  0.7551  0.5907
23150SOL    HW270029   0.275   4.318   3.946 -0.0883 -1.3896 -0.4643
23151SOL     OW70030   7.044   2.842   5.583 -0.3708 -0.2546  0.2068
23151SOL    HW170031   7.004   2.883   5.506  0.3123  0.9334  0.4602
23151SOL    HW270032   7.063   2.915   5.642 -0.2491 -1.0748  1.2224
23152SOL     OW70033   1.580   2.304   8.309  0.2855  0.0756  0.3874
23152SOL    HW170034   1.554   2.396   8.315  1.7004  0.7534 -2.3512
23152SOL    HW270035   1.673   2.304   8.334  0.6690 -0.3316 -0.9551
23153SOL     OW70036   4.850   3.975   1.671 -0.5791  0.0710  0.0495
23153SOL    HW170037   4.880   3.974   1.580 -0.6722 -0.0617  0.0200
23153SOL    HW270038   4.803   4.058   1.679 -0.8350 -0.0577 -0.1109
23154SOL     OW70039   9.265   2.567   0.843  0.3001  0.3794 -0.1786
23154SOL    HW170040   9.174   2.553   0.867  0.4399  1.3408  0.9984
23154SOL    HW270041   9.263   2.585   0.749 -0.8329  1.3317  0.0196
23155SOL     OW70042   8.273   6.361   4.083  0.2322  0.2303 -0.7262
23155SOL    HW170043   8.237   6.381   3.997  0.1267  0.9334 -0.5236
23155SOL    HW270044   8.243   6.272   4.102  1.2794 -0.4194 -1.9453
23156SOL     OW70045   3.133   7.810   4.002 -0.4556 -0.2940  0.7403
23156SOL    HW170046   3.216   7.793   4.047 -1.2068  0.4770  2.4779
23156SOL    HW270047   3.159   7.843   3.916  1.0534  0.5572  1.4902
23157SOL     OW70048   6.629   6.958   2.103  0.0362  0.4054 -0.2785
23157SOL    HW170049   6.649   6.977   2.011  0.7427  1.6940  0.1129
23157SOL    HW270050   6.534   6.966   2.109 -0.0491 -0.0087 -0.9592
23158SOL     OW70051   1.814   2.453   1.518  0.4957 -0.3128 -0.0043
23158SOL    HW170052   1.856   2.420   1.596 -4.9339  0.1161  3.6914
23158SOL    HW270053   1.778   2.376   1.475 -0.5830 -0.2871  0.8014
23159SOL     OW70054   3.324   5.253   9.688  0.5612 -0.3867  0.3027
23159SOL    HW170055   3.320   5.327   9.628  1.0875 -0.6046 -0.0045
23159SOL    HW270056   3.258   5.191   9.656  0.7351 -0.4352  0.0427
23160SOL     OW70057   2.046   5.293   0.281  0.0080  0.1236 -0.0808
23160SOL    HW170058   1.994   5.373   0.286  0.4821  0.3849  0.9095
23160SOL    HW270059   1.982   5.223   0.271 -0.3852  0.6521 -1.6980
23161SOL     OW70060   8.305   1.799   4.016 -0.1813  0.5125  0.3528
23161SOL    HW170061   8.212   1.801   4.036 -0.1722  0.8269  0.3787
23161SOL    HW270062   8.310   1.782   3.922 -0.2448 -0.2168  0.4776
23162SOL     OW70063   7.479   7.080   7.803 -0.3019 -0.2243 -0.2774
23162SOL    HW170064   7.425   7.114   7.873 -2.3539 -1.8918 -0.9399
23162SOL    HW270065   7.512   7.157   7.757 -0.2122  0.8530  1.5278
23163SOL     OW70066   6.481   0.630   2.216 -0.4262 -0.3418 -0.0484
23163SOL    HW170067   6.521   0.713   2.242  0.0837 -0.6646  0.2284
23163SOL    HW270068   6.524   0.565   2.272 -1.3035 -0.7094  0.2143
23164SOL     OW70069   9.620   3.480   9.398 -0.1134  0.1217 -0.5076
23164SOL    HW170070   9.684   3.470   9.327  1.1257  1.4153  0.3590
23164SOL    HW270071   9.602   3.391   9.428  0.7161 -0.3163 -1.2840
23165SOL     OW70072   1.993   7.819   5.732 -0.3346  0.7063  0.4780
23165SOL    HW170073   2.019   7.911   5.744 -1.4448  1.5322 -2.4403
23165SOL    HW270074   1.899   7.819   5.750 -0.8795  0.8128 -1.9946
23166SOL     OW70075   2.394   4.578   8.031  0.1262 -0.5804 -0.4990
23166SOL    HW170076   2.365   4.653   7.980 -0.0188 -1.0892 -1.1847
23166SOL    HW270077   2.425   4.515   7.966  0.3690 -1.0609  0.0698
23167SOL     OW70078   5.903   6.926   0.935 -0.3826  0.1101 -0.2763
23167SOL    HW170079   5.815   6.933   0.898 -0.1396  2.7121 -0.5521
23167SOL    HW270080   5.957   6.983   0.879  1.2207 -0.4669  0.6222
23168SOL     OW70081   3.068   8.827   9.832  0.3975  0.2894 -0.0163
23168SOL    HW170082   3.027   8.756   9.881  0.2456  0.4960  0.1573
23168SOL    HW270083   3.121   8.874   9.896  0.6205  0.2434 -0.1623
23169SOL     OW70084   5.051   2.759   5.331  0.7469  0.3772 -0.4545
23169SOL    HW170085   5.025   2.844   5.367 -0.8203 -0.4574  0.4642
23169SOL    HW270086   5.009   2.695   5.388  2.0514 -1.0401 -1.0247
23170SOL     OW70087   4.644   1.000   4.660 -0.3310  0.3432  0.1203
23170SOL    HW170088   4.684   1.086   4.671  0.7414 -0.0850 -0.2799
23170SOL    HW270089   4.662   0.955   4.742 -0.3951  0.3000  0.1109
23171SOL     OW70090   8.573   5.573   7.010  0.6705 -0.5691 -0.1182
23171SOL    HW170091   8.656   5.618   6.993 -1.2263  2.5765 -2.0972
23171SOL    HW270092   8.507   5.642   7.006 -2.1794 -3.0338  0.5876
23172SOL     OW70093   0.180   1.917   4.029 -0.1229 -0.5254 -0.0806
23172SOL    HW170094   0.102   1.927   3.974 -0.9406 -0.2183  1.0764
23172SOL    HW270095   0.150   1.941   4.117  1.1541 -0.9221  0.4904
23173SOL     OW70096   5.854   1.236   3.807 -0.0294  0.7690 -0.1890
23173SOL    HW170097   5.858   1.251   3.712 -0.3302  2.3614  0.0246
23173SOL    HW270098   5.931   1.184   3.826  0.2233  0.7255 -1.2670
23174SOL     OW70099   8.069   6.351   7.489 -0.2698 -0.8511 -0.2364
23174SOL    HW170100   8.035   6.266   7.517  0.7265 -1.6593 -1.3852
23174SOL    HW270101   8.058   6.408   7.565  0.8755 -2.5271  1.2657
23175SOL     OW70102   3.794   9.518   2.482 -0.2108  0.1257 -0.0464
23175SOL    HW170103   3.788   9.598   2.534  0.3203 -0.3669  0.7858
23175SOL    HW270104   3.718   9.466   2.510 -0.8725  0.5433 -0.9832
23176SOL     OW70105   6.092   6.097   4.824 -0.2364 -0.1307 -0.3537
23176SOL    HW170106   6.128   6.011   4.846  0.0862 -0.4008 -1.8161
23176SOL    HW270107   6.167   6.147   4.791 -0.7351  0.1341 -1.1114
23177SOL     OW70108   1.438   0.640   0.701 -0.6237 -0.3155 -0.0819
23177SOL    HW170109   1.530   0.645   0.674 -0.0546 -2.6158  1.1745
23177SOL    HW270110   1.418   0.727   0.735  0.8920  0.4010 -0.9512
23178SOL     OW70111   0.038   6.927   4.652 -0.4198 -0.2789  0.3852
23178SOL    HW170112   0.091   6.960   4.579  0.3471  2.1102  1.9133
23178SOL    HW270113  -0.046   6.970   4.641 -0.3232  0.0334  0.8571
23179SOL     OW70114   7.552   6.910   5.977  0.1239 -0.1017 -0.0679
23179SOL    HW170115   7.504   6.888   6.057  0.1199 -0.3542 -0.1390
23179SOL    HW270116   7.641   6.928   6.007  0.0099  0.2634  0.0510
23180SOL     OW70117   8.995   5.099   4.278 -0.0846 -0.4901  0.1141
23180SOL    HW170118   9.090   5.112   4.283 -0.3432  1.1278  1.8987
23180SOL    HW270119   8.977   5.095   4.184  1.7471 -1.0973 -0.2726
23181SOL     OW70120   8.710   7.885   7.416 -0.5226 -0.0354  0.1312
23181SOL    HW170121   8.773   7.845   7.356 -0.1533 -0.3029  0.6965
23181SOL    HW270122   8.675   7.960   7.367  1.9418  1.5554  0.6544
23182SOL     OW70123   3.987   7.236   6.417  0.4773  0.1462  0.2747
23182SOL    HW170124   3.993   7.142   6.433  1.7984  0.4447  1.7466
23182SOL    HW270125   3.984   7.275   6.504 -0.4308  1.4605 -0.3202
23183SOL     OW70126   4.767   9.530   9.359  0.0603 -0.4441 -0.2980
23183SOL    HW170127   4.786   9.624   9.360  0.1245 -0.4592  0.0264
23183SOL    HW270128   4.764   9.507   9.266  2.6228 -0.6348 -0.4296
23184SOL     OW70129   1.731   6.543   8.902  0.3972  0.1702 -0.4323
23184SOL    HW170130   1.725   6.452   8.874  0.4344 -1.1355  3.2625
23184SOL    HW270131   1.640   6.567   8.924  0.6443  0.3004  0.4887
23185SOL     OW70132   3.211   0.090   9.384 -0.4618 -0.1663  0.2012
23185SOL    HW170133   3.258   0.022   9.335 -0.9491 -0.6212  0.3486
23185SOL    HW270134   3.129   0.047   9.411  0.4640 -0.4358  2.8039
23186SOL     OW70135   6.219   5.801   2.556  0.8399  0.7014 -0.3438
23186SOL    HW170136   6.147   5.754   2.600 -0.1489  0.1112 -2.4227
23186SOL    HW270137   6.214   5.890   2.589 -0.0487  0.3592  0.4896
23187SOL     OW70138   4.431   9.295   3.427 -0.1619 -0.6064 -0.1820
23187SOL    HW170139   4.504   9.234   3.416 -0.1145 -0.3583 -1.4703
23187SOL    HW270140   4.415   9.298   3.521  1.0630 -1.1651  0.0567
23188SOL     OW70141   2.143   9.266   5.870  0.3418 -0.4207 -0.5842
23188SOL    HW170142   2.122   9.328   5.801  1.9069 -0.7640 -1.4312
23188SOL    HW270143   2.088   9.190   5.852 -1.7165  0.7258  0.5641
23189SOL     OW70144   3.401   1.713   1.376  0.3530 -0.0783 -0.4104
23189SOL    HW170145   3.383   1.655   1.301 -2.0734  1.7060 -1.3374
23189SOL    HW270146   3.484   1.755   1.354  2.3690 -3.2572  0.4350
23190SOL     OW70147   5.469   7.523   3.192  0.3409 -0.0984 -0.1286
23190SOL    HW170148   5.379   7.512   3.161  0.3370  0.7233 -0.4186
23190SOL    HW270149   5.463   7.588   3.262  0.5216 -1.0563  0.8021
23191SOL     OW70150   8.922   7.359   1.649 -0.3442  0.3235  0.0795
23191SOL    HW170151   8.861   7.292   1.679 -0.8066 -0.1135 -1.7133
23191SOL    HW270152   8.949   7.404   1.729 -0.4928 -1.5756  1.2677
23192SOL     OW70153   5.322   3.573   9.731  0.0800  0.1444 -0.3534
23192SOL    HW170154   5.255   3.575   9.662 -1.5300  0.3657  1.1413
23192SOL    HW270155   5.396   3.621   9.693 -0.9079  0.6578 -1.7661
23193SOL     OW70156   9.414   1.104   1.666  1.2192  0.1705  0.9706
23193SOL    HW170157   9.332   1.113   1.715  0.6239 -0.4013  0.1140
23193SOL    HW270158   9.469   1.049   1.722  1.3967  1.3530  1.9949
23194SOL     OW70159   3.055   3.780   0.810  0.0163 -0.2788 -0.0864
23194SOL    HW170160   3.031   3.871   0.789 -0.9681 -0.2385  1.0871
23194SOL    HW270161   3.053   3.734   0.726  2.7757  1.2085 -1.1255
23195SOL     OW70162   3.332   0.896   0.037  0.1456  0.4191 -0.2510
23195SOL    HW170163   3.250   0.850   0.018 -0.4152  1.6433 -0.9014
23195SOL    HW270164   3.393   0.826   0.061 -0.8206 -0.6070 -0.6543
23196SOL     OW70165   0.328   6.826   5.354 -0.1145  0.8969 -0.3114
23196SOL    HW170166   0.375   6.882   5.292 -1.4922  1.3682 -0.9748
23196SOL    HW270167   0.297   6.753   5.301 -0.6485  0.9089 -0.0261
23197SOL     OW70168   3.074   0.018   8.289 -0.4801 -0.6447 -0.0823
23197SOL    HW170169   3.038   0.068   8.362  1.5308  2.0581 -0.7998
23197SOL    HW270170   3.168   0.037   8.291  0.2042 -3.3733 -1.2909
23198SOL     OW70171   7.385   9.045   6.241 -0.2965  0.1461 -0.5772
23198SOL    HW170172   7.309   9.100   6.262  0.0031  0.8350 -1.2533
23198SOL    HW270173   7.456   9.080   6.294 -0.5988 -0.9417  0.5853
23199SOL     OW70174   4.125   3.634   1.053 -0.4936 -0.7396  0.5394
23199SOL    HW170175   4.045   3.684   1.071 -0.1067 -0.6072  1.9512
23199SOL    HW270176   4.182   3.651   1.128  0.5920 -1.3948 -0.1149
23200SOL     OW70177   7.220   7.813   4.748 -0.5641 -0.1160  0.1175
23200SOL    HW170178   7.130   7.782   4.749 -1.2294  1.7076  0.5296
23200SOL    HW270179   7.218   7.891   4.692  0.8458 -0.2796 -0.2026
23201SOL     OW70180   6.901   3.899   2.397  0.1206 -0.0470  0.5265
23201SOL    HW170181   6.961   3.973   2.388 -0.2015  0.1688  0.1286
23201SOL    HW270182   6.840   3.926   2.466  0.6295 -0.3741  1.1184
23202SOL     OW70183   1.236   2.004   4.314 -0.0820  0.0650  0.1291
23202SOL    HW170184   1.144   1.997   4.338 -0.1262  0.2747  0.0217
23202SOL    HW270185   1.273   2.063   4.381  0.3394 -1.3249  1.1799
23203SOL     OW70186   2.706   8.086   1.932  0.2070  0.4194 -0.1698
23203SOL    HW170187   2.692   8.151   1.864 -1.4694  1.5666  1.1967
23203SOL    HW270188   2.678   8.003   1.892 -1.2100  1.1405 -0.7450
23204SOL     OW70189   9.148   3.618   6.877  0.5636 -0.0539 -0.0624
23204SOL    HW170190   9.081   3.643   6.940  1.5461 -0.0871  1.0359
23204SOL    HW270191   9.119   3.656   6.794 -1.5349 -1.2659  0.0373
23205SOL     OW70192   8.133   4.903   3.983  0.0251  0.2042  0.0558
23205SOL    HW170193   8.155   4.980   3.930  0.1660  0.0581 -0.0994
23205SOL    HW270194   8.195   4.906   4.056  0.0388  0.2295  0.0430
23206SOL     OW70195   7.239   6.658   4.048 -0.5096  0.0515 -0.6015
23206SOL    HW170196   7.302   6.714   4.094  1.3806 -2.3300 -0.1267
23206SOL    HW270197   7.154   6.693   4.074  0.5532  1.7748  0.8437
23207SOL     OW70198   4.508   4.717   8.219  0.1093  0.1544  0.1074
23207SOL    HW170199   4.575   4.687   8.281 -0.2809 -0.3633  0.2824
23207SOL    HW270200   4.430   4.731   8.273  0.1595  1.0669 -0.0419
23208SOL     OW70201   1.988   8.241   4.243  0.3521  0.0806  0.1596
23208SOL    HW170202   1.977   8.154   4.282 -0.1936 -0.3172 -0.8270
23208SOL    HW270203   2.014   8.223   4.152  1.4879  0.9678  0.2944
23209SOL     OW70204   9.534   1.767   2.191 -0.8196 -0.2490  0.3325
23209SOL    HW170205   9.618   1.796   2.157 -1.1739 -0.5875 -0.8749
23209SOL    HW270206   9.469   1.816   2.140 -1.3791  0.9743  2.1044
23210SOL     OW70207   2.413   3.392   1.890  0.0953  0.0143 -0.2741
23210SOL    HW170208   2.370   3.465   1.844  1.9428  0.6340 -1.1079
23210SOL    HW270209   2.416   3.421   1.982  0.2802  0.7213 -0.4954
23211SOL     OW70210   6.814   8.506   6.953  0.5050 -0.7663  0.1608
23211SOL    HW170211   6.791   8.490   6.862  0.4488 -0.5476  0.1359
23211SOL    HW270212   6.734   8.486   7.002  0.6472 -1.2520  0.2016
23212SOL     OW70213   3.502   6.251   7.627 -0.0875  0.3702  0.2287
23212SOL    HW170214   3.497   6.157   7.639 -2.0074  0.4582  0.4784
23212SOL    HW270215   3.460   6.287   7.705 -1.3923  1.3422 -0.8744
23213SOL     OW70216   1.885   0.916   5.216 -0.6485 -0.5756 -0.8324
23213SOL    HW170217   1.800   0.928   5.174 -0.9123 -0.6253 -0.3282
23213SOL    HW270218   1.949   0.926   5.146 -1.1552 -2.9795 -1.7179
23214SOL     OW70219   4.190   3.227   1.910  0.3623 -0.7810 -0.3472
23214SOL    HW170220   4.165   3.271   1.991 -0.4513 -2.9759  0.6785
23214SOL    HW270221   4.178   3.293   1.842  0.8467  1.0518  1.2653
23215SOL     OW70222   8.864   8.114   5.496 -0.5092 -0.1897 -0.0267
23215SOL    HW170223   8.867   8.036   5.440 -0.6654 -0.3872  0.2342
23215SOL    HW270224   8.955   8.128   5.522 -0.3086  0.4104 -1.0084
23216SOL     OW70225   5.197   7.482   3.775  0.4219 -0.0323 -0.0036
23216SOL    HW170226   5.217   7.454   3.686 -0.3115 -0.8373  0.0693
23216SOL    HW270227   5.114   7.439   3.796  0.7425 -0.1319  1.1859
23217SOL     OW70228   7.255   6.307   8.896 -0.0521  0.0972  0.3423
23217SOL    HW170229   7.242   6.384   8.951  0.9860  0.5279  0.0065
23217SOL    HW270230   7.224   6.234   8.949  0.5450  0.5508  1.3421
23218SOL     OW70231   7.324   2.875   5.927 -0.1775 -0.2463 -0.2215
23218SOL    HW170232   7.348   2.851   6.016  0.0479 -0.0396 -0.2231
23218SOL    HW270233   7.258   2.811   5.901 -1.5621  0.7577  0.7167
23219SOL     OW70234   2.155   6.611   4.303  0.3404  0.2822  0.2359
23219SOL    HW170235   2.230   6.671   4.315  1.1381 -0.6455  0.0062
23219SOL    HW270236   2.153   6.561   4.384 -0.4680  0.7597  0.5176
23220SOL     OW70237   2.414   6.112   5.017  0.2665  0.3891 -0.0445
23220SOL    HW170238   2.367   6.082   4.939  0.8036  1.0787 -0.6521
23220SOL    HW270239   2.399   6.044   5.082 -0.8705  0.1944 -0.4904
23221SOL     OW70240   8.448   4.098   8.383  0.7091  0.1064  0.0121
23221SOL    HW170241   8.458   4.041   8.459 -0.2418  0.9389  0.7826
23221SOL    HW270242   8.365   4.071   8.343  0.3116  0.8429  0.3128
23222SOL     OW70243   4.962   5.301   9.447  0.2231  0.1655 -0.6389
23222SOL    HW170244   4.871   5.314   9.419  0.6531  3.5506 -0.8258
23222SOL    HW270245   4.968   5.344   9.532  1.2730 -1.7129  0.3130
23223SOL     OW70246   2.148   0.283   0.454  0.1346  0.5356 -1.0779
23223SOL    HW170247   2.123   0.192   0.437  0.0650  0.4180 -0.4027
23223SOL    HW270248   2.227   0.297   0.403  1.3638 -0.5676  0.4258
23224SOL     OW70249   3.526   7.111   6.908  0.3054  0.0848  0.7495
23224SOL    HW170250   3.556   7.196   6.876  1.4912 -0.7455 -0.4570
23224SOL    HW270251   3.564   7.105   6.996  0.9996  0.4359  0.4890
23225SOL     OW70252   2.058   9.724   5.143  0.0716  0.4820 -0.2695
23225SOL    HW170253   2.035   9.772   5.222  0.3072 -0.0523  0.1380
23225SOL    HW270254   2.147   9.752   5.123  0.7830 -0.8594  0.8361
23226SOL     OW70255   6.092   8.270   4.506  0.7831  0.0732 -0.6938
23226SOL    HW170256   6.033   8.209   4.462 -0.4214  1.1675 -0.6566
23226SOL    HW270257   6.077   8.253   4.599 -0.4444  1.1835 -0.6541
23227SOL     OW70258   0.988   8.753   7.666 -0.1473  0.6936 -0.2128
23227SOL    HW170259   0.928   8.765   7.739 -1.2126 -0.6645 -0.8224
23227SOL    HW270260   0.991   8.839   7.624 -1.6502  0.8149 -0.1302
23228SOL     OW70261   9.080   8.145   0.674 -0.5287  0.0533 -0.0610
23228SOL    HW170262   9.085   8.049   0.666 -0.6029  0.0353  0.1197
23228SOL    HW270263   9.106   8.163   0.764  0.7621  0.2972 -0.4629
23229SOL     OW70264   5.280   2.676   8.638  0.1393  0.3378 -0.0102
23229SOL    HW170265   5.295   2.726   8.718 -0.3860 -0.6617  0.7403
23229SOL    HW270266   5.329   2.595   8.651 -1.2107 -0.5020 -0.0091
23230SOL     OW70267   1.059   7.942   1.442 -0.2621  0.3748 -0.0622
23230SOL    HW170268   1.096   7.861   1.478 -0.1202  1.3773  2.2532
23230SOL    HW270269   0.964   7.931   1.455 -0.1352  1.3456  2.2423
23231SOL     OW70270   0.044   5.513   9.597  0.0066  0.8097 -0.3198
23231SOL    HW170271  -0.041   5.489   9.561  1.4321  0.2176 -3.6894
23231SOL    HW270272   0.075   5.433   9.640 -0.2163  0.2966 -1.0915
23232SOL     OW70273   4.282   6.878   3.313 -0.4670  0.1063 -0.3812
23232SOL    HW170274   4.224   6.952   3.329 -2.4209 -1.2484 -0.7300
23232SOL    HW270275   4.330   6.867   3.395 -1.5161  0.6452  0.3306
23233SOL     OW70276   7.116   6.526   7.073 -0.3525 -0.5398 -0.1853
23233SOL    HW170277   7.178   6.555   7.007  0.2471 -3.3653 -1.0253
23233SOL    HW270278   7.072   6.606   7.103  1.9873  1.2661 -1.2717
23234SOL     OW70279   2.563   3.511   4.463 -0.3048 -0.2947  0.1672
23234SOL    HW170280   2.496   3.452   4.498 -2.0303  0.5081 -1.5703
23234SOL    HW270281   2.529   3.599   4.482 -0.3145  0.1332 -1.6808
23235SOL     OW70282   4.792   3.723   1.776  0.1305  0.0763 -0.0347
23235SOL    HW170283   4.777   3.681   1.691 -0.9891 -0.3993  0.3720
23235SOL    HW270284   4.802   3.816   1.756 -1.4359  0.1611 -0.5970
23236SOL     OW70285   7.247   5.429   9.075  0.2457 -0.3034  0.1311
23236SOL    HW170286   7.244   5.515   9.115  1.3707  0.2863 -0.9746
23236SOL    HW270287   7.311   5.438   9.004  1.1052 -2.3026  0.5974
23237SOL     OW70288   4.858   8.666   0.674 -0.3802  0.5499  0.1601
23237SOL    HW170289   4.892   8.704   0.755 -0.4837 -0.6274  0.7868
23237SOL    HW270290   4.878   8.572   0.682 -0.9860  0.3188 -0.8798
23238SOL     OW70291   0.912   5.080   0.639  0.0601 -0.0842 -0.0494
23238SOL    HW170292   0.998   5.113   0.666  0.0767 -0.0015 -0.1978
23238SOL    HW270293   0.851   5.150   0.663 -0.4288 -1.3844  2.9226
23239SOL     OW70294   2.716   5.802   9.789 -0.0978 -0.0697 -0.4775
23239SOL    HW170295   2.627   5.825   9.816 -0.4958 -1.6310 -0.3528
23239SOL    HW270296   2.745   5.740   9.856  1.8572  1.8737  0.6033
23240SOL     OW70297   4.034   3.765   1.363  0.6147 -0.4455  0.6393
23240SOL    HW170298   4.015   3.673   1.340  0.1979  0.2768 -2.4316
23240SOL    HW270299   4.105   3.790   1.303  1.4421  0.9731  2.1522
23241SOL     OW70300   3.921   2.377   8.124 -0.3049 -0.0494  0.1082
23241SOL    HW170301   3.828   2.375   8.100 -0.2471 -1.2124 -0.0669
23241SOL    HW270302   3.925   2.437   8.198 -1.3326 -0.5913  0.6306
23242SOL     OW70303   6.629   9.848   3.605  0.1007 -0.1394  0.2506
23242SOL    HW170304   6.688   9.773   3.593  2.3852  1.5232  0.4232
23242SOL    HW270305   6.665   9.916   3.548 -1.0233  1.3152  1.2045
23243SOL     OW70306   8.000   7.657   4.860 -0.0416  0.0652  0.2328
23243SOL    HW170307   7.919   7.703   4.836  0.1567 -0.6886 -2.2491
23243SOL    HW270308   7.970   7.577   4.903 -0.7179 -0.6123 -1.4067
23244SOL     OW70309   0.461   7.809   9.640  0.0747  0.3790  0.1086
23244SOL    HW170310   0.479   7.838   9.550 -0.8577 -1.4237 -0.7131
23244SOL    HW270311   0.429   7.888   9.684  0.0153  1.1834 -1.3039
23245SOL     OW70312   7.684   8.411   7.450 -0.3003  0.3647 -0.0377
23245SOL    HW170313   7.746   8.343   7.477  0.7008  1.3428  0.2114
23245SOL    HW270314   7.739   8.482   7.418 -1.3137  1.2045  0.0269
23246SOL     OW70315   6.043   5.351   5.607 -0.2493 -0.1410  0.0703
23246SOL    HW170316   6.018   5.432   5.563 -0.6442  0.3489  1.1617
23246SOL    HW270317   5.960   5.315   5.641  0.1015 -0.2376  0.8479
23247SOL     OW70318   1.042   4.722   6.450 -0.2528 -0.1719 -0.0643
23247SOL    HW170319   1.048   4.627   6.457 -0.9941 -0.1550  0.9595
23247SOL    HW270320   1.130   4.750   6.425  0.1260 -1.0777  0.2302
23248SOL     OW70321   6.445   1.818   8.297 -0.6734 -0.0880 -0.6699
23248SOL    HW170322   6.378   1.769   8.345 -0.0466 -0.4036 -0.0865
23248SOL    HW270323   6.522   1.815   8.355 -0.2673  0.5668 -1.1672
23249SOL     OW70324   2.812   4.760   7.414  0.1153 -0.1352  0.1394
23249SOL    HW170325   2.867   4.691   7.376 -1.3577 -1.9330  1.0798
23249SOL    HW270326   2.751   4.713   7.471 -1.3968  1.9058  0.3174
23250SOL     OW70327   0.017   2.814   7.902  0.5076 -0.3172  0.1125
23250SOL    HW170328  -0.023   2.885   7.952  0.3228 -0.1086 -0.3253
23250SOL    HW270329   0.011   2.738   7.960 -0.5138 -0.2874  0.0637
23251SOL     OW70330   7.289   7.345   6.575 -0.0045  0.0726  0.0601
23251SOL    HW170331   7.212   7.371   6.625 -3.1998  0.0769 -4.3332
23251SOL    HW270332   7.307   7.419   6.518  0.1027 -1.7138 -2.3532
23252SOL     OW70333   5.212   0.414   0.305  0.0789  0.6383  0.4778
23252SOL    HW170334   5.281   0.481   0.307  1.5152 -0.8023  0.9485
23252SOL    HW270335   5.197   0.399   0.211  2.7047 -1.2148  0.2345
23253SOL     OW70336   9.261   9.668   2.860 -0.0310  0.0322  0.5495
23253SOL    HW170337   9.326   9.635   2.923  0.4105  1.3074  0.7954
23253SOL    HW270338   9.178   9.633   2.891  0.1421  0.8161  2.0155
23254SOL     OW70339   6.766   8.619   9.542 -0.2225 -0.1575  0.1188
23254SOL    HW170340   6.680   8.577   9.533  0.2754 -1.3703  0.8226
23254SOL    HW270341   6.825   8.548   9.569  1.2031  0.4643 -1.1919
23255SOL     OW70342   4.058   6.406   8.747  0.0333  0.8500 -0.0439
23255SOL    HW170343   4.057   6.461   8.826  1.5364  0.2028  0.4670
23255SOL    HW270344   4.068   6.317   8.781 -1.0979  0.3814 -0.9104
23256SOL     OW70345   5.957   4.127   9.493 -0.3636 -0.3695 -0.1110
23256SOL    HW170346   6.013   4.142   9.417  2.1493 -0.2218  1.6594
23256SOL    HW270347   5.905   4.050   9.470  1.1924 -1.0569 -1.5066
23257SOL     OW70348   8.804   8.668   7.415 -0.1575 -0.0594  0.0173
23257SOL    HW170349   8.890   8.710   7.414 -0.6304  0.9346 -0.8011
23257SOL    HW270350   8.758   8.705   7.340 -0.4303 -2.4454 -1.1005
23258SOL     OW70351   0.514   4.438   4.787  0.2984  0.4260  0.6929
23258SOL    HW170352   0.430   4.464   4.747 -0.8660 -1.0108  2.0746
23258SOL    HW270353   0.558   4.521   4.805 -2.1765  1.4335  2.6826
23259SOL     OW70354   8.218   4.122   9.308  0.2085 -1.2880 -0.0394
23259SOL    HW170355   8.309   4.097   9.290  0.1415 -0.6819 -1.3460
23259SOL    HW270356   8.225   4.188   9.377  0.6825 -1.9213  0.5320
23260SOL     OW70357   9.710   6.050   1.775 -0.1527 -0.1792 -0.2520
23260SOL    HW170358   9.674   6.111   1.710 -1.4492  1.0669  1.5454
23260SOL    HW270359   9.691   5.963   1.739 -2.0525  0.4586 -0.9398
23261SOL     OW70360   7.408   4.670   0.902  0.2133 -0.2624  0.4477
23261SOL    HW170361   7.326   4.623   0.884  0.8300 -1.0187 -0.4919
23261SOL    HW270362   7.381   4.760   0.920 -1.0390 -1.0028  2.6635
23262SOL     OW70363   9.577   2.935   6.258 -0.7429 -0.3932 -0.2228
23262SOL    HW170364   9.582   2.840   6.249  1.3081 -0.2870 -0.5917
23262SOL    HW270365   9.512   2.962   6.192 -0.1559 -1.3942 -1.2434
23263SOL     OW70366   8.530   9.858   8.035  0.5392 -0.6465 -0.1359
23263SOL    HW170367   8.449   9.878   7.988  1.3230  0.7742 -0.9481
23263SOL    HW270368   8.502   9.801   8.107 -1.2635  0.2260 -0.0803
23264SOL     OW70369   6.277   9.026   0.379 -0.4648 -0.2927  0.3136
23264SOL    HW170370   6.357   8.995   0.422 -0.4265 -0.3563  0.1946
23264SOL    HW270371   6.255   8.957   0.316 -1.9889 -1.5314  2.0529
23265SOL     OW70372   1.698  -0.006   5.414 -0.0457  0.5841  0.2415
23265SOL    HW170373   1.693   0.075   5.466 -2.1544  0.4839  0.2804
23265SOL    HW270374   1.647   0.013   5.335 -3.0737 -1.4821  1.4835
23266SOL     OW70375   4.014   1.815   2.051  0.3580  0.2671 -0.0657
23266SOL    HW170376   3.944   1.780   1.996  0.6304 -1.0932  0.4326
23266SOL    HW270377   4.045   1.891   2.002  0.3409 -0.6805 -1.6358
23267SOL     OW70378   7.189   0.632   6.716  0.3812  0.0607  0.2658
23267SOL    HW170379   7.140   0.692   6.772 -1.2537 -0.6650 -0.3167
23267SOL    HW270380   7.122   0.586   6.666  1.6979 -0.7387 -0.8387
23268SOL     OW70381   0.112   8.929   2.341  0.6523 -0.1997  0.5377
23268SOL    HW170382   0.180   8.990   2.368 -0.5803  0.7162  1.6989
23268SOL    HW270383   0.158   8.845   2.335  2.0536  0.5311  0.4440
23269SOL     OW70384   7.527   8.835   4.414  0.2998  0.2929 -0.5615
23269SOL    HW170385   7.518   8.930   4.414  0.0094  0.2676 -0.5710
23269SOL    HW270386   7.464   8.805   4.480  0.7052  0.1347 -0.2449
23270SOL     OW70387   8.421   4.575   0.452  0.4246  0.7527 -0.4986
23270SOL    HW170388   8.349   4.520   0.484 -0.3417  0.8030 -2.0508
23270SOL    HW270389   8.446   4.628   0.528  0.4902 -0.9693  0.7553
23271SOL     OW70390   4.123   1.794   3.404 -0.4113 -0.4773  0.6233
23271SOL    HW170391   4.216   1.773   3.417  0.1878 -0.2981 -2.5315
23271SOL    HW270392   4.117   1.888   3.420  0.3456 -0.1835 -0.6643
23272SOL     OW70393   4.950   6.210   3.284 -0.3584 -0.5927 -0.0353
23272SOL    HW170394   4.900   6.128   3.275 -1.3778  0.0494 -0.4169
23272SOL    HW270395   4.938   6.253   3.199  0.8530 -0.4151 -0.1248
23273SOL     OW70396   2.226   4.192   2.540  0.1127 -0.0807 -0.4576
23273SOL    HW170397   2.193   4.160   2.456  1.9036 -4.4471  0.1987
23273SOL    HW270398   2.309   4.234   2.519  0.2979 -0.6721 -0.9385
23274SOL     OW70399   1.785   6.002   1.436  0.2674  0.6768  0.1438
23274SOL    HW170400   1.826   5.934   1.383 -0.2013  0.5451 -0.0507
23274SOL    HW270401   1.718   5.956   1.486 -1.5870  1.3238 -1.6179
23275SOL     OW70402   2.925   9.750   0.178 -0.3195 -0.2766  0.3254
23275SOL    HW170403   2.904   9.656   0.176  3.0054 -1.1594  1.3847
23275SOL    HW270404   2.891   9.780   0.262  0.3049 -1.0010  0.8418
23276SOL     OW70405   5.840   4.153   3.511 -0.4196 -0.1506  0.4545
23276SOL    HW170406   5.839   4.249   3.502 -0.2896 -0.2306 -0.6001
23276SOL    HW270407   5.773   4.123   3.449  0.6939 -0.8164 -0.4618
23277SOL     OW70408   6.550   2.419   9.447  0.1161  0.3229 -0.4439
23277SOL    HW170409   6.559   2.417   9.352 -0.3989 -0.1757 -0.4879
23277SOL    HW270410   6.560   2.512   9.470 -0.6751  0.5804 -1.0819
23278SOL     OW70411   8.688   8.496   9.154  0.0863 -0.4228 -0.2760
23278SOL    HW170412   8.696   8.401   9.161  2.3539 -0.3891 -1.2327
23278SOL    HW270413   8.718   8.516   9.065  2.0401  1.3367  0.6700
23279SOL     OW70414   3.680   5.449   6.123 -0.4948  0.6052  0.5316
23279SOL    HW170415   3.700   5.537   6.155 -2.1569  1.2413 -0.0445
23279SOL    HW270416   3.647   5.402   6.199  1.8775 -0.0694  1.2070
23280SOL     OW70417   3.492   7.366   1.263  0.2558  0.1392  1.0796
23280SOL    HW170418   3.543   7.442   1.291  1.7329 -0.5139  0.2514
23280SOL    HW270419   3.475   7.318   1.344  2.0770 -0.2772  1.2656
23281SOL     OW70420   7.521   6.189   4.823  0.0968  0.0003 -0.1331
23281SOL    HW170421   7.611   6.167   4.845  0.6363  1.3039 -0.8816
23281SOL    HW270422   7.525   6.219   4.732 -1.5080 -2.1908 -1.0360
23282SOL     OW70423   2.686   3.697   5.670 -0.1259 -0.5020 -0.2005
23282SOL    HW170424   2.780   3.694   5.688 -0.3129 -1.8190  0.6700
23282SOL    HW270425   2.647   3.716   5.755 -0.6046  1.3924 -0.7984
23283SOL     OW70426   4.066   8.921   4.030  0.2084 -0.2095  0.1374
23283SOL    HW170427   4.042   8.998   3.979 -0.4211 -0.6561 -0.2511
23283SOL    HW270428   4.152   8.942   4.066  0.5897  0.1947 -0.9639
23284SOL     OW70429   6.833   1.591   2.676 -0.1884  0.1156 -0.1853
23284SOL    HW170430   6.921   1.620   2.654  1.0941 -2.9728  0.3457
23284SOL    HW270431   6.780   1.612   2.598  1.3837  0.5020 -1.1904
23285SOL     OW70432   6.475   6.051   4.989 -0.0965  0.6700  0.5424
23285SOL    HW170433   6.423   6.038   4.910  0.3818 -2.1958  0.6179
23285SOL    HW270434   6.520   6.134   4.974  0.5801 -0.1352 -2.5731
23286SOL     OW70435   5.308   8.185   2.898 -0.4243  0.0775 -0.1240
23286SOL    HW170436   5.229   8.141   2.866  0.2569 -0.4207 -1.1888
23286SOL    HW270437   5.377   8.156   2.838  0.4377  1.0281  0.3792
23287SOL     OW70438   4.617   8.730   6.210 -0.3885 -0.0544 -0.0641
23287SOL    HW170439   4.609   8.643   6.248  0.6613 -0.4614 -0.7572
23287SOL    HW270440   4.548   8.734   6.144  1.4302 -1.5133 -2.1665
23288SOL     OW70441   7.748   0.064   8.503 -0.9565  0.0125 -0.1638
23288SOL    HW170442   7.711   0.116   8.432 -0.5897  0.5727  0.0438
23288SOL    HW270443   7.834   0.103   8.519 -1.2480  0.2505  0.9484
23289SOL     OW70444   9.941   0.036   1.197  0.3478 -0.6442  0.3981
23289SOL    HW170445   9.859  -0.014   1.203  0.5947 -1.1105 -0.0723
23289SOL    HW270446   9.928   0.094   1.122  0.1133 -0.0880  0.8614
23290SOL     OW70447   8.740   0.452   7.157  1.1021 -0.2059  0.1165
23290SOL    HW170448   8.682   0.525   7.179  1.3324  0.5295 -1.5076
23290SOL    HW270449   8.689   0.374   7.176  0.4595  0.4003  0.9264
23291SOL     OW70450   1.644   5.364   0.086 -0.1459  0.0444 -0.9610
23291SOL    HW170451   1.555   5.347   0.053  0.2089  0.3326 -2.1248
23291SOL    HW270452   1.691   5.282   0.070 -0.7287 -0.9255  1.7238
23292SOL     OW70453   0.946   4.390   7.160  0.0242 -0.0209 -0.0307
23292SOL    HW170454   0.953   4.484   7.146 -1.6276  0.0662 -0.4346
23292SOL    HW270455   0.984   4.351   7.081 -0.4880  0.3318 -0.4533
23293SOL     OW70456   2.356   1.955   7.615 -0.3366 -0.0987 -0.2695
23293SOL    HW170457   2.319   1.891   7.675  1.6792 -1.6386 -0.5765
23293SOL    HW270458   2.450   1.939   7.616 -0.1821 -0.4870 -4.0698
23294SOL     OW70459   8.574   5.451   4.123 -0.2263 -0.6536  0.2880
23294SOL    HW170460   8.533   5.518   4.068 -1.3076 -2.2254 -0.8984
23294SOL    HW270461   8.530   5.370   4.100 -0.6348 -1.4690  3.3778
23295SOL     OW70462   1.507   3.802   4.766 -0.0188  0.1439 -0.1436
23295SOL    HW170463   1.561   3.841   4.697  0.0384  0.4586  0.0769
23295SOL    HW270464   1.531   3.850   4.845  0.7569 -0.9749  0.3238
23296SOL     OW70465   8.291   9.850   9.447  0.1514  0.0015  0.1702
23296SOL    HW170466   8.279   9.878   9.356 -0.0723  0.1575  0.2467
23296SOL    HW270467   8.208   9.809   9.470  0.3164 -0.3072  0.2077
23297SOL     OW70468   0.260   6.121   9.849  1.1418  0.1908 -0.0074
23297SOL    HW170469   0.335   6.120   9.790  2.1311  1.4435  1.1601
23297SOL    HW270470   0.292   6.168   9.927 -0.5268 -0.2016  0.9522
23298SOL     OW70471   3.821   0.062   2.599  0.0329  0.3537  0.4458
23298SOL    HW170472   3.828   0.104   2.685  1.1421  0.3571  0.3600
23298SOL    HW270473   3.847   0.130   2.537 -0.4631  0.2531  0.1169
23299SOL     OW70474   0.961   1.714   6.932 -0.4595 -0.3671 -0.3927
23299SOL    HW170475   1.011   1.716   6.850  0.3004 -1.0970  0.0367
23299SOL    HW270476   0.903   1.790   6.926  1.3557  1.0895 -0.5260
23300SOL     OW70477   0.742   4.315   3.739 -1.0778 -0.1931  0.1465
23300SOL    HW170478   0.782   4.335   3.654 -0.4650 -0.6987  0.3115
23300SOL    HW270479   0.786   4.236   3.769 -0.5299  0.5680  1.4315
23301SOL     OW70480   8.168   4.561   4.197  0.5100  0.1042 -0.1391
23301SOL    HW170481   8.197   4.512   4.274  0.3614 -1.7740 -1.2277
23301SOL    HW270482   8.139   4.645   4.232  0.5618 -0.6433  1.8293
23302SOL     OW70483   0.088   4.718   4.455  0.2904 -0.0040 -0.0774
23302SOL    HW170484   0.096   4.663   4.533 -1.0405 -0.5331 -0.2958
23302SOL    HW270485   0.041   4.663   4.392 -0.0392  0.9807 -0.6991
23303SOL     OW70486   7.208   2.495   6.092 -0.1036 -0.0674  0.2775
23303SOL    HW170487   7.157   2.426   6.135 -0.8102  0.1516 -0.1894
23303SOL    HW270488   7.176   2.496   6.002  1.2335 -0.4021 -0.2288
23304SOL     OW70489   2.573   9.493   6.021 -0.3200  0.4378 -0.8225
23304SOL    HW170490   2.593   9.429   6.089  2.8856  0.9064 -1.1603
23304SOL    HW270491   2.582   9.578   6.064 -3.6902  0.8011 -0.5906
23305SOL     OW70492   7.660   1.865   4.639 -0.4466  0.5426  0.3983
23305SOL    HW170493   7.725   1.921   4.682  1.9057 -0.6141 -1.4471
23305SOL    HW270494   7.612   1.924   4.581 -0.0332  1.1528  0.6702
23306SOL     OW70495   7.510   2.616   8.307  0.0159  0.0925 -0.4411
23306SOL    HW170496   7.554   2.581   8.230 -1.1423  0.0820 -1.1141
23306SOL    HW270497   7.459   2.690   8.274  0.5172  0.9075  0.5437
23307SOL     OW70498   8.441   8.333   2.534 -0.0778  0.3326 -0.1937
23307SOL    HW170499   8.449   8.393   2.460 -2.0908 -0.6092 -1.2374
23307SOL    HW270500   8.360   8.359   2.578 -0.1372 -0.6128  0.2907
23308SOL     OW70501   6.121   9.350   1.379  0.5172  0.4158  0.6681
23308SOL    HW170502   6.176   9.272   1.388 -0.3832 -0.2252  0.7833
23308SOL    HW270503   6.034   9.322   1.409  0.1209  1.4049  0.5047
23309SOL     OW70504   2.464   9.491   3.802  0.3627  0.3947  0.6796
23309SOL    HW170505   2.409   9.547   3.856  1.7689  1.0915  1.4493
23309SOL    HW270506   2.541   9.472   3.857 -0.4578 -3.1387  0.8743
23310SOL     OW70507   0.396   0.877   1.145 -0.2313  0.7036  0.2938
23310SOL    HW170508   0.390   0.783   1.126 -0.5007  0.9331 -0.8407
23310SOL    HW270509   0.457   0.883   1.219  1.0762 -0.2576 -0.6508
23311SOL     OW70510   1.729   0.221   5.582 -0.1311 -0.3380  0.2489
23311SOL    HW170511   1.683   0.223   5.666  1.4389 -1.2462  1.1710
23311SOL    HW270512   1.755   0.312   5.568 -1.3330  0.0188  0.1790
23312SOL     OW70513   9.970   5.857   3.475  0.3885  0.6358 -0.2394
23312SOL    HW170514   9.907   5.824   3.412  0.2871  0.6880 -0.1650
23312SOL    HW270515   9.977   5.787   3.541  1.6066 -0.0796 -1.0808
23313SOL     OW70516   0.829   5.208   3.138  0.4717 -0.1174 -0.1113
23313SOL    HW170517   0.851   5.269   3.209  0.3078 -0.8079  0.5394
23313SOL    HW270518   0.880   5.239   3.064 -0.6775  1.7109 -0.2269
23314SOL     OW70519   0.644   6.092   3.076  0.0546 -0.1564  0.1685
23314SOL    HW170520   0.666   6.185   3.075 -2.9596  0.7069  1.8614
23314SOL    HW270521   0.689   6.058   3.153  1.5525 -0.2834 -0.7196
23315SOL     OW70522   4.540   2.869   3.423 -0.0764 -0.4093  0.4563
23315SOL    HW170523   4.537   2.846   3.516  4.9221 -1.3025  0.6695
23315SOL    HW270524   4.561   2.962   3.422  2.0057 -0.8463  0.3739
23316SOL     OW70525   3.689   0.996   9.256  0.0338 -0.3198 -0.1003
23316SOL    HW170526   3.649   1.071   9.300  1.0432 -0.0334  0.3481
23316SOL    HW270527   3.615   0.952   9.213 -1.4567 -1.8600  3.5851
23317SOL     OW70528   3.227   3.912   3.362 -0.0627 -0.2024  0.1320
23317SOL    HW170529   3.265   3.882   3.280  0.4112  0.6818  0.0167
23317SOL    HW270530   3.302   3.941   3.414 -0.3846 -0.4842  0.7657
23318SOL     OW70531   3.686   9.115   6.381 -0.5141 -0.0193 -0.1619
23318SOL    HW170532   3.631   9.187   6.348 -0.7683 -0.4790 -0.7683
23318SOL    HW270533   3.698   9.058   6.305  0.1810 -0.3140  0.1628
23319SOL     OW70534   0.106   7.389   8.579  0.6435  0.1939  1.2646
23319SOL    HW170535   0.178   7.443   8.545  2.1183 -2.1755  0.3498
23319SOL    HW270536   0.111   7.308   8.528 -1.8952 -0.5782  2.0914
23320SOL     OW70537   0.349   6.845   0.162 -0.2822  0.1421 -0.3166
23320SOL    HW170538   0.388   6.760   0.184 -0.8186 -0.0806 -0.2246
23320SOL    HW270539   0.370   6.858   0.069  1.8434  1.0054  0.2183
23321SOL     OW70540   5.789   0.937   8.240 -0.3635  0.0027 -0.3964
23321SOL    HW170541   5.733   0.861   8.255  0.4057 -0.5098 -0.1031
23321SOL    HW270542   5.876   0.910   8.269  0.1185  0.6767 -1.1560
23322SOL     OW70543   0.694   9.218   0.043  0.2379 -0.5482  0.8453
23322SOL    HW170544   0.650   9.146   0.087  1.2711 -1.1451  0.9436
23322SOL    HW270545   0.750   9.256   0.110 -0.0917  0.1716  0.7144
23323SOL     OW70546   9.890   6.903   0.644  0.8209  0.3384 -0.2413
23323SOL    HW170547   9.840   6.921   0.564  0.2981  0.8233  0.1835
23323SOL    HW270548   9.926   6.988   0.668  0.1949  0.3863  0.5567
23324SOL     OW70549   4.154   3.948   5.618 -0.0228 -0.4277 -0.2619
23324SOL    HW170550   4.111   3.872   5.657  0.6874 -1.2582 -1.0619
23324SOL    HW270551   4.101   3.968   5.541 -1.6000  1.3956  1.1701
23325SOL     OW70552   9.115   6.967   1.706  0.5743 -0.2328 -0.5426
23325SOL    HW170553   9.166   6.927   1.636  0.5458 -2.1600  0.4938
23325SOL    HW270554   9.034   6.995   1.663 -0.1241 -2.7887 -1.0355
23326SOL     OW70555   8.296   9.652   8.734 -0.1237  0.3763 -0.3096
23326SOL    HW170556   8.302   9.740   8.771  1.0492 -1.2677  3.9228
23326SOL    HW270557   8.205   9.646   8.703 -0.2803  2.9562 -0.5699
23327SOL     OW70558   9.915   2.173   8.312 -0.5966 -0.0528 -0.1111
23327SOL    HW170559   9.957   2.116   8.247  0.6819 -0.4123  0.9711
23327SOL    HW270560   9.822   2.166   8.294 -0.7561 -4.1420  1.1435
23328SOL     OW70561   9.494   0.624   1.250  0.3682  0.4424 -0.1393
23328SOL    HW170562   9.445   0.650   1.327 -1.6273 -0.0582 -1.1844
23328SOL    HW270563   9.535   0.541   1.274 -0.6182  0.0497  0.2415
23329SOL     OW70564   4.915   0.118   5.574 -0.5187 -0.0689 -0.2107
23329SOL    HW170565   4.922   0.041   5.517  0.2486  0.3218 -0.6508
23329SOL    HW270566   4.999   0.162   5.566 -0.3793 -0.0029  1.2379
23330SOL     OW70567   1.150   5.028   5.518  0.2196 -0.6286  0.7326
23330SOL    HW170568   1.157   5.120   5.543 -3.2827 -0.7211  2.6472
23330SOL    HW270569   1.112   5.029   5.431 -1.1910 -0.1963  1.3282
23331SOL     OW70570   2.616   8.623   7.016 -0.6767 -0.8122  0.3402
23331SOL    HW170571   2.563   8.663   6.947  0.5506  0.5849  0.1612
23331SOL    HW270572   2.606   8.682   7.091  0.4876 -0.5923  0.3426
23332SOL     OW70573   9.885  -0.030   9.164 -0.5653  0.4570  0.7434
23332SOL    HW170574   9.958   0.031   9.153  0.7863 -1.4459 -1.9984
23332SOL    HW270575   9.810   0.014   9.123  0.5197  0.1509 -1.7057
23333SOL     OW70576   8.932   9.897   1.717 -0.4198  0.5198  0.6968
23333SOL    HW170577   9.007   9.839   1.707  0.1218  1.4021 -0.6123
23333SOL    HW270578   8.881   9.858   1.789 -0.7198 -2.2647 -0.8583
23334SOL     OW70579   7.541   8.401   7.974  0.4749  0.3503  0.4089
23334SOL    HW170580   7.573   8.432   7.889 -0.9112  0.5363 -0.0644
23334SOL    HW270581   7.601   8.440   8.038  0.8279  1.1765 -0.4063
23335SOL     OW70582   6.160   1.080   9.469  0.0468  0.3451  0.8353
23335SOL    HW170583   6.199   1.036   9.394  0.3820 -1.4609  2.0018
23335SOL    HW270584   6.067   1.087   9.447  0.2560  0.5202 -0.0410
23336SOL     OW70585   0.395   3.907   0.746  0.4169  0.3083  0.2717
23336SOL    HW170586   0.439   3.824   0.764  0.9317  0.3481 -0.7411
23336SOL    HW270587   0.426   3.933   0.659 -1.9737  0.0779 -0.7430
23337SOL     OW70588   3.349   2.873   2.346  0.1362 -0.2415 -0.9196
23337SOL    HW170589   3.350   2.830   2.260 -0.5913  0.5814 -1.3656
23337SOL    HW270590   3.333   2.803   2.408  0.8791 -0.8863 -1.4346
23338SOL     OW70591   0.850   5.286   7.067 -0.3729 -0.0395  0.0335
23338SOL    HW170592   0.866   5.193   7.082  2.0802  0.6331  2.3154
23338SOL    HW270593   0.892   5.305   6.983 -0.2271 -0.8239 -0.0749
23339SOL     OW70594   9.194   9.755   1.441 -0.3208  0.4421  0.1561
23339SOL    HW170595   9.175   9.673   1.396 -1.5900  1.3558 -1.0684
23339SOL    HW270596   9.244   9.806   1.378 -1.0160  1.2472  0.2343
23340SOL     OW70597   5.446   7.637   6.633 -0.0531  0.2130  0.5867
23340SOL    HW170598   5.450   7.576   6.707  0.1596  2.1006  2.2110
23340SOL    HW270599   5.423   7.582   6.558 -2.8107 -1.4580  2.4494
23341SOL     OW70600   2.904   9.002   7.535 -0.1032 -0.0140  0.5505
23341SOL    HW170601   2.911   8.943   7.611 -1.4900  0.5039  1.1035
23341SOL    HW270602   2.844   9.071   7.563  2.6877  2.6390  0.5199
23342SOL     OW70603   0.265   5.544   1.144 -0.3128  0.2801 -0.3679
23342SOL    HW170604   0.292   5.636   1.145 -1.0395  0.5017  1.3299
23342SOL    HW270605   0.321   5.502   1.209 -0.7289 -0.2531 -0.3481
23343SOL     OW70606   4.025   0.300   5.474 -0.2658  0.5623  0.1725
23343SOL    HW170607   4.037   0.321   5.381 -1.0504  0.1159 -0.0430
23343SOL    HW270608   4.088   0.356   5.520 -0.7758  1.7589 -0.5308
23344SOL     OW70609   8.601   1.856   9.688 -0.7023 -0.3343  0.6057
23344SOL    HW170610   8.672   1.919   9.698 -1.1587  0.2316  0.3902
23344SOL    HW270611   8.526   1.899   9.730 -1.1972 -0.4148 -0.1755
23345SOL     OW70612   0.258   5.703   3.806  0.2901 -0.3231  0.5652
23345SOL    HW170613   0.215   5.690   3.891  0.8534 -0.3546  0.8537
23345SOL    HW270614   0.285   5.615   3.780  0.6848 -0.2316  0.6632
23346SOL     OW70615   5.509   0.485   0.388  0.1606  0.2334  0.0427
23346SOL    HW170616   5.539   0.444   0.469 -1.6567 -0.0080  0.6420
23346SOL    HW270617   5.441   0.546   0.416  0.1285  0.8057 -1.2283
23347SOL     OW70618   1.724   8.820   5.469  0.5265 -0.4328 -0.1709
23347SOL    HW170619   1.733   8.842   5.376  0.4363  0.7212  0.0688
23347SOL    HW270620   1.719   8.725   5.471  0.5274 -0.4772 -1.3486
23348SOL     OW70621   4.362   4.672   3.364  0.2087 -0.1688  0.0477
23348SOL    HW170622   4.352   4.611   3.292  1.9390 -1.7763  1.0898
23348SOL    HW270623   4.409   4.623   3.431 -0.9078  1.4073  2.1087
23349SOL     OW70624   1.915   4.303   1.478  0.2225 -0.0313  0.2103
23349SOL    HW170625   1.992   4.273   1.527  1.0316 -1.6000 -1.8516
23349SOL    HW270626   1.870   4.363   1.538  1.2492 -1.6190  2.7288
23350SOL     OW70627   8.762   3.187   3.506  0.1702  0.0867 -0.4850
23350SOL    HW170628   8.743   3.211   3.415  0.1190  2.8997  0.1846
23350SOL    HW270629   8.685   3.216   3.555  0.0839 -1.6327  0.4832
23351SOL     OW70630   0.920   0.693   9.609 -0.2428 -0.1035  0.3716
23351SOL    HW170631   0.835   0.691   9.565  0.8155  1.4083 -1.9054
23351SOL    HW270632   0.982   0.720   9.541  2.0768 -1.0569  1.9779
23352SOL     OW70633   2.987   7.308   3.973  0.4846 -0.0133  0.0799
23352SOL    HW170634   3.069   7.302   3.924  1.7183 -0.0376  2.0473
23352SOL    HW270635   2.966   7.401   3.973  0.0825 -0.0835 -1.0335
23353SOL     OW70636   1.725   1.301   2.262  0.5440 -0.7696  0.6183
23353SOL    HW170637   1.722   1.286   2.167  1.1076  0.2493  0.4155
23353SOL    HW270638   1.814   1.276   2.287  0.6829 -0.1992  0.7105
23354SOL     OW70639   6.557   8.661   2.055 -0.0114  0.1409  0.1897
23354SOL    HW170640   6.620   8.716   2.101 -1.0695  0.0941  1.7514
23354SOL    HW270641   6.583   8.572   2.077 -0.0062  0.0847 -0.0357
23355SOL     OW70642   3.227   3.848   5.654 -0.0408 -0.4450 -0.0427
23355SOL    HW170643   3.195   3.768   5.696  0.1321 -0.2885  0.3975
23355SOL    HW270644   3.308   3.821   5.611 -0.4637 -0.7143 -0.6893
23356SOL     OW70645   9.574   0.745   3.127  0.2466 -0.2190 -0.0804
23356SOL    HW170646   9.595   0.822   3.180  0.3843 -0.6796  0.5486
23356SOL    HW270647   9.511   0.777   3.062  1.6586  0.8262 -0.9984
23357SOL     OW70648   5.395   8.444   5.586  0.4383  0.1690  0.0945
23357SOL    HW170649   5.397   8.385   5.662 -4.4497  2.1039  2.1487
23357SOL    HW270650   5.438   8.524   5.618  1.3906 -0.1225 -0.4307
23358SOL     OW70651   1.951   4.161   5.236  0.2401  0.0160 -0.4281
23358SOL    HW170652   1.947   4.095   5.306  0.0719 -0.1039 -0.5517
23358SOL    HW270653   1.860   4.176   5.213  0.3271 -0.4007 -1.0565
23359SOL     OW70654   5.890   6.159   4.667 -0.5615 -0.3885 -0.1424
23359SOL    HW170655   5.953   6.108   4.718 -0.8325  1.0327  1.7223
23359SOL    HW270656   5.920   6.250   4.676 -1.2767  0.0196 -1.6149
23360SOL     OW70657   9.568   9.988   1.292  0.1490 -0.1909 -0.1501
23360SOL    HW170658   9.494   9.927   1.288  0.0733 -0.0004 -2.7934
23360SOL    HW270659   9.644   9.933   1.273  1.1344 -0.7984  4.3875
23361SOL     OW70660   2.312   9.397   9.075 -0.2795 -0.3118  0.2716
23361SOL    HW170661   2.243   9.419   9.013 -0.2283 -0.1737  0.2631
23361SOL    HW270662   2.275   9.326   9.128 -0.7731  0.3697  0.8613
23362SOL     OW70663   2.254   3.013   3.592  0.1445  0.1132 -0.1022
23362SOL    HW170664   2.165   2.982   3.575 -0.5496  1.7774  0.2997
23362SOL    HW270665   2.278   3.060   3.512  0.4177  0.1991  0.0294
23363SOL     OW70666   4.673   5.661   0.217 -0.0868 -0.1448  0.4812
23363SOL    HW170667   4.662   5.741   0.269 -1.5898 -0.3189  0.4613
23363SOL    HW270668   4.597   5.660   0.159  1.2952 -0.1937 -1.4379
23364SOL     OW70669   7.582   3.886   6.449 -0.1531  0.6233 -0.6070
23364SOL    HW170670   7.605   3.935   6.371  2.3481 -2.7349 -2.2052
23364SOL    HW270671   7.646   3.913   6.515  0.9580 -0.0858 -1.3546
23365SOL     OW70672   3.608   3.595   3.093  0.5364 -0.0690  0.4225
23365SOL    HW170673   3.669   3.579   3.020 -0.8535  1.2095 -1.0936
23365SOL    HW270674   3.629   3.683   3.123 -1.6459  1.1241 -1.3133
23366SOL     OW70675   8.245   6.635   3.003 -0.7581  0.0915 -0.4528
23366SOL    HW170676   8.202   6.721   2.996 -0.3510  0.4482  1.0581
23366SOL    HW270677   8.234   6.611   3.095  1.6401 -0.1356 -0.1771
23367SOL     OW70678   4.726   4.313   1.300 -0.1431 -0.2316 -0.4454
23367SOL    HW170679   4.645   4.363   1.313  0.5604  0.8234  0.0139
23367SOL    HW270680   4.762   4.303   1.388  0.7136  0.1553 -0.7429
23368SOL     OW70681   8.840   2.166   6.191  0.0067  0.6322  0.0340
23368SOL    HW170682   8.835   2.181   6.285 -1.4862 -1.9471  0.4630
23368SOL    HW270683   8.757   2.199   6.157 -0.8922 -1.3374  0.1795
23369SOL     OW70684   0.611   4.186   1.249  0.3188  0.2032 -0.0008
23369SOL    HW170685   0.596   4.166   1.157  0.5344 -0.7775  0.1653
23369SOL    HW270686   0.699   4.154   1.267  0.0434 -0.2071  0.6948
23370SOL     OW70687   9.781   5.547   1.243 -0.1093  0.0554  0.5552
23370SOL    HW170688   9.775   5.623   1.186 -1.8418  0.9706  1.8703
23370SOL    HW270689   9.870   5.513   1.229  0.4249  1.8402 -0.6384
23371SOL     OW70690   6.487   7.175   1.503  0.0035 -0.4768  0.2146
23371SOL    HW170691   6.543   7.214   1.570  0.6878 -0.0961 -0.5683
23371SOL    HW270692   6.501   7.080   1.512 -0.2533 -0.4519  0.9019
23372SOL     OW70693   4.485   1.500   1.062  0.0852 -0.2413 -0.5566
23372SOL    HW170694   4.515   1.472   1.148 -0.9695 -1.9379 -0.7062
23372SOL    HW270695   4.565   1.533   1.019  0.9259 -0.8426  0.4900
23373SOL     OW70696   6.444   1.460   2.549 -0.0827  0.0400  0.0615
23373SOL    HW170697   6.525   1.490   2.508  0.8454 -0.8340  1.2023
23373SOL    HW270698   6.468   1.438   2.639 -1.2451 -1.6428  0.0210
23374SOL     OW70699   9.530   5.953   0.241 -0.1868 -0.0943  0.2428
23374SOL    HW170700   9.619   5.989   0.245  0.2634 -1.2415  1.0663
23374SOL    HW270701   9.542   5.860   0.218 -1.2272 -0.0839 -0.4400
23375SOL     OW70702   8.644   9.809   9.720  0.1335 -0.0827 -0.3577
23375SOL    HW170703   8.730   9.776   9.746  0.8260  1.2156 -0.8780
23375SOL    HW270704   8.643   9.799   9.624 -0.4122 -0.3579 -0.3237
23376SOL     OW70705   2.941   1.171   3.391 -0.0990  0.0124 -0.2536
23376SOL    HW170706   3.027   1.206   3.368  0.2954  0.1414  1.3292
23376SOL    HW270707   2.881   1.212   3.328  0.5876  2.1728  0.4047
23377SOL     OW70708   5.843   6.083   8.048  0.3257  0.0671  0.1151
23377SOL    HW170709   5.836   6.101   8.142 -1.1357 -3.4988  0.8610
23377SOL    HW270710   5.765   6.123   8.010 -0.0603 -0.0529  0.7536
23378SOL     OW70711   8.659   4.792   1.512 -0.3501  0.2776  0.3588
23378SOL    HW170712   8.639   4.788   1.419  0.8387  1.8950 -0.0017
23378SOL    HW270713   8.698   4.706   1.532 -1.5235 -0.4506 -0.3697
23379SOL     OW70714   2.703   3.606   9.242 -0.0756 -0.3250  0.1667
23379SOL    HW170715   2.628   3.647   9.285  0.0308  0.9897 -0.8399
23379SOL    HW270716   2.763   3.678   9.226  1.1894 -1.2849  0.4855
23380SOL     OW70717   9.996   1.635   1.631 -0.0431  0.3308 -0.4712
23380SOL    HW170718   9.939   1.606   1.560 -0.2182 -1.1400  0.2297
23380SOL    HW270719   9.951   1.710   1.669 -1.6025 -0.8435  0.1116
23381SOL     OW70720   6.255   5.355   4.402 -0.6191  0.2762 -0.1959
23381SOL    HW170721   6.276   5.262   4.408  3.0467  0.9139 -0.6822
23381SOL    HW270722   6.245   5.383   4.493 -0.1863 -0.3189  0.0436
23382SOL     OW70723   3.817   3.400   9.369 -0.3332  0.2804  0.0605
23382SOL    HW170724   3.796   3.487   9.403 -0.4976  0.2190  0.1145
23382SOL    HW270725   3.879   3.416   9.297 -1.0702  0.5015 -0.5332
23383SOL     OW70726   2.408   3.731   1.387  0.3991  0.2626 -0.5049
23383SOL    HW170727   2.318   3.706   1.368  0.3685  0.8164 -1.1737
23383SOL    HW270728   2.441   3.664   1.446 -0.5325  0.1977 -0.0519
23384SOL     OW70729   8.924   6.746   7.091  0.4781  0.1080 -0.5260
23384SOL    HW170730   8.915   6.652   7.109 -1.2107  0.3806  0.1956
23384SOL    HW270731   8.929   6.752   6.996 -1.1993 -0.6066 -0.6932
23385SOL     OW70732   0.934   5.383   2.298  0.0690 -0.3448  0.1144
23385SOL    HW170733   0.883   5.412   2.374  1.7855 -2.0600  2.0372
23385SOL    HW270734   0.869   5.345   2.239 -1.0891 -0.9661  1.7154
23386SOL     OW70735   9.601   2.999   8.382 -0.0725 -0.6600  0.1581
23386SOL    HW170736   9.695   3.001   8.396 -0.0824  0.8257  0.1273
23386SOL    HW270737   9.576   2.908   8.402  1.1821 -0.7973  1.2508
23387SOL     OW70738   4.508   5.888   0.954  0.1616 -0.2058 -0.0298
23387SOL    HW170739   4.562   5.818   0.917  1.2077 -0.3862  1.7481
23387SOL    HW270740   4.463   5.848   1.028 -0.4786  0.6159  0.0451
23388SOL     OW70741   0.129   2.725   1.910 -0.6557  0.5737 -0.3298
23388SOL    HW170742   0.050   2.717   1.857 -1.4426  2.7798  0.3746
23388SOL    HW270743   0.111   2.799   1.969  2.0596  1.4085 -0.3959
23389SOL     OW70744   0.394   5.430   4.733 -0.0869  0.5250 -0.5496
23389SOL    HW170745   0.307   5.436   4.772 -0.3518  2.4529 -1.3441
23389SOL    HW270746   0.394   5.494   4.662  2.1776  1.0281 -0.1919
23390SOL     OW70747   9.651   0.088   9.032  0.1316  0.2240  0.1624
23390SOL    HW170748   9.664   0.066   8.940 -0.5272  1.0352 -0.1390
23390SOL    HW270749   9.653   0.184   9.035 -0.5538  0.2303  0.8721
23391SOL     OW70750   9.550   4.289   9.397  0.7917  0.0966 -0.3048
23391SOL    HW170751   9.522   4.203   9.365 -3.1529 -0.1651  2.9753
23391SOL    HW270752   9.619   4.269   9.461  1.8156 -0.2639 -1.4749
23392SOL     OW70753   8.313   4.127   2.715  0.0642  0.6835 -0.1342
23392SOL    HW170754   8.354   4.184   2.650  0.1106  0.5173 -0.2496
23392SOL    HW270755   8.221   4.122   2.689  0.1123  0.5041 -0.2670
23393SOL     OW70756   8.991   9.614   4.207  0.7500  0.1185  0.1589
23393SOL    HW170757   8.989   9.590   4.114  4.5322 -1.0321  0.1950
23393SOL    HW270758   9.023   9.704   4.208  0.9496  0.0477  0.3253
23394SOL     OW70759   7.947   0.698   7.301 -0.1421  1.1566 -0.4837
23394SOL    HW170760   7.932   0.735   7.214 -0.3156  2.4043  0.0463
23394SOL    HW270761   7.990   0.614   7.285 -0.3006  1.3025 -1.7685
23395SOL     OW70762   7.658   1.630   3.432  0.1200 -0.3679 -0.0178
23395SOL    HW170763   7.642   1.720   3.463 -2.2894 -0.5417 -0.5777
23395SOL    HW270764   7.625   1.575   3.503  1.3855 -0.8306  0.2238
23396SOL     OW70765   0.738   0.244   7.161 -0.0931 -0.4492 -0.2561
23396SOL    HW170766   0.657   0.252   7.111 -0.9229  0.6299  1.1788
23396SOL    HW270767   0.799   0.201   7.101 -1.1915  0.2860 -1.9843
23397SOL     OW70768   6.522   6.594   1.503  0.2779  0.1647  0.0523
23397SOL    HW170769   6.540   6.644   1.423 -1.6309  0.1493 -0.4443
23397SOL    HW270770   6.515   6.503   1.474  1.2184 -0.0683  0.5287
23398SOL     OW70771   5.834   6.425   5.941  0.3952 -0.1491 -0.0682
23398SOL    HW170772   5.864   6.335   5.930  1.2175  0.2067 -0.8443
23398SOL    HW270773   5.739   6.421   5.928 -0.1869 -1.4642  3.4494
23399SOL     OW70774   3.896   4.005   1.124 -0.3450 -0.1680  0.1740
23399SOL    HW170775   3.801   4.019   1.127 -0.7906 -2.8200  0.7682
23399SOL    HW270776   3.926   4.059   1.050 -2.1444  1.4373  0.5421
23400SOL     OW70777   5.827   3.298   8.156  0.1379 -0.7449 -0.4506
23400SOL    HW170778   5.774   3.349   8.218 -0.9718  0.8217 -2.5499
23400SOL    HW270779   5.906   3.350   8.144 -0.0232 -0.6062 -0.9423
23401SOL     OW70780   6.105   3.018   2.377 -0.2818 -0.5904  0.1689
23401SOL    HW170781   6.028   3.063   2.410 -0.8450 -0.9559 -0.6287
23401SOL    HW270782   6.091   2.926   2.401  0.4658 -0.4959  1.0452
23402SOL     OW70783   1.462   4.534   6.998  0.3865  0.2285  0.0932
23402SOL    HW170784   1.551   4.503   6.983 -0.0760 -2.2117  1.8936
23402SOL    HW270785   1.464   4.625   6.968  3.0043 -0.2202 -1.4744
23403SOL     OW70786   7.313   0.340   4.456  0.3032  0.5808  0.0956
23403SOL    HW170787   7.243   0.296   4.503  1.7110 -0.9592  0.8680
23403SOL    HW270788   7.295   0.324   4.364 -1.9518  2.7857  0.0649
23404SOL     OW70789   5.441   8.625   0.157 -1.0102  0.2789 -0.4124
23404SOL    HW170790   5.494   8.546   0.148 -0.2098  0.8069 -0.3772
23404SOL    HW270791   5.422   8.632   0.250 -2.4151 -0.7215 -0.5938
23405SOL     OW70792   5.649   6.984   0.846 -0.1925  0.0553 -0.0868
23405SOL    HW170793   5.623   6.921   0.779 -2.2217 -0.2075  0.8788
23405SOL    HW270794   5.612   7.067   0.816 -1.2766 -0.0988  0.7544
23406SOL     OW70795   8.767   6.607   8.519 -0.3751  0.0236 -0.3590
23406SOL    HW170796   8.832   6.538   8.536 -0.4729 -0.2564 -1.0770
23406SOL    HW270797   8.784   6.673   8.585 -0.5271 -0.8666  0.6029
23407SOL     OW70798   1.993   9.027   9.490  0.2623 -0.5338 -0.1870
23407SOL    HW170799   2.046   8.971   9.433  2.2618  1.7220 -0.7139
23407SOL    HW270800   1.949   8.966   9.550  1.0716 -2.7203 -1.6981
23408SOL     OW70801   8.407   2.983   5.387 -0.4588  0.0636  0.1574
23408SOL    HW170802   8.379   3.036   5.312 -1.5704  0.3994  0.7893
23408SOL    HW270803   8.452   2.908   5.348  0.4526  1.0608 -0.7843
23409SOL     OW70804   9.145   3.441   8.523 -0.0322 -0.2326  0.1134
23409SOL    HW170805   9.108   3.476   8.604  0.1012  0.8445 -0.2764
23409SOL    HW270806   9.098   3.486   8.453  0.9701  0.0537 -0.4003
23410SOL     OW70807   5.861   2.785   8.092  1.1246 -0.2196 -0.0715
23410SOL    HW170808   5.847   2.864   8.041 -1.5156 -1.8815 -2.2018
23410SOL    HW270809   5.936   2.742   8.050 -0.2149 -0.9335 -1.8753
23411SOL     OW70810   6.274   0.034   3.240  0.6798 -0.2448  0.0113
23411SOL    HW170811   6.296  -0.034   3.304  0.1620 -1.9805 -1.5768
23411SOL    HW270812   6.184   0.015   3.214  0.2110  1.5935  0.1207
23412SOL     OW70813   7.334   4.811   3.036 -0.3360 -0.3115 -0.1182
23412SOL    HW170814   7.319   4.902   3.063 -0.3369 -0.4596  0.3870
23412SOL    HW270815   7.355   4.817   2.943 -0.9790  0.1506 -0.2401
23413SOL     OW70816   9.469   4.635   1.219 -0.4544  0.0021 -0.0567
23413SOL    HW170817   9.453   4.642   1.125  0.6214  0.5338 -0.2172
23413SOL    HW270818   9.429   4.713   1.256 -2.5417 -1.1129  0.2012
23414SOL     OW70819   1.753   2.735   9.022  0.3858 -0.7384  0.0044
23414SOL    HW170820   1.721   2.668   8.961 -0.8851  1.9160 -2.4605
23414SOL    HW270821   1.841   2.755   8.992  0.4561 -0.7157  0.2230
23415SOL     OW70822   7.428   1.089   2.642  0.2061 -0.3654 -0.2316
23415SOL    HW170823   7.514   1.078   2.601  0.7211  0.1929  0.6721
23415SOL    HW270824   7.375   1.017   2.607  0.9593 -0.5676 -0.9894
23416SOL     OW70825   2.213   3.518   5.521  0.2655 -0.2748 -0.1055
23416SOL    HW170826   2.161   3.588   5.562  0.9272  0.4970 -0.5521
23416SOL    HW270827   2.288   3.564   5.482  0.4488 -1.1736 -0.8409
23417SOL     OW70828   2.635   4.358   5.793 -0.1605 -0.2339  0.4146
23417SOL    HW170829   2.559   4.355   5.850  1.1348  0.0521  2.2593
23417SOL    HW270830   2.621   4.288   5.730 -2.2523  0.2665  0.2533
23418SOL     OW70831   8.618   3.126   9.903  0.9114 -0.1342 -0.0823
23418SOL    HW170832   8.702   3.161   9.873  0.4660  1.4756  0.4276
23418SOL    HW270833   8.552   3.183   9.862  0.2092  0.6548  2.0033
23419SOL     OW70834   0.331   4.907   3.607  0.0483  0.1304  0.2072
23419SOL    HW170835   0.384   4.946   3.538 -1.9469 -0.9776 -2.1105
23419SOL    HW270836   0.264   4.973   3.626 -0.1494 -0.0565  0.1672
23420SOL     OW70837   8.698   9.535   9.088  0.2755 -0.3893  0.2643
23420SOL    HW170838   8.704   9.593   9.164  0.4926 -0.1924  0.1015
23420SOL    HW270839   8.634   9.577   9.031  0.9819  0.0995 -0.1947
23421SOL     OW70840   3.518   4.906   8.640 -0.1847  0.6892 -0.4389
23421SOL    HW170841   3.607   4.918   8.606  0.5968  0.6202  1.4001
23421SOL    HW270842   3.475   4.851   8.576  0.8091  1.4772 -1.8310
23422SOL     OW70843   8.490   7.706   0.979 -0.2624 -0.0466  0.1564
23422SOL    HW170844   8.474   7.742   0.892  0.5401 -1.0491 -0.4308
23422SOL    HW270845   8.410   7.659   1.002 -0.2753 -0.2341 -0.2739
23423SOL     OW70846   0.025   2.206   9.861  0.3356 -0.4820  0.0322
23423SOL    HW170847   0.092   2.143   9.889 -2.2120 -1.7896  3.9658
23423SOL    HW270848   0.056   2.290   9.895  1.1879 -0.5564 -0.5170
23424SOL     OW70849   3.517   2.999   9.700  0.3233 -0.2213 -0.3743
23424SOL    HW170850   3.446   2.970   9.758  0.6995 -0.7063 -0.1504
23424SOL    HW270851   3.592   3.011   9.758  0.6607 -0.5598 -0.7340
23425SOL     OW70852   4.831   6.215   4.416 -0.4567 -0.0556  0.3528
23425SOL    HW170853   4.901   6.168   4.371 -0.4354  1.7958 -1.7563
23425SOL    HW270854   4.762   6.150   4.428 -0.5978 -0.6676 -2.8004
23426SOL     OW70855   6.300   9.193   3.850  0.6715 -0.0197  0.6719
23426SOL    HW170856   6.302   9.099   3.868  3.3614 -0.0154  0.8552
23426SOL    HW270857   6.248   9.230   3.921  0.4508 -1.2564  1.1888
23427SOL     OW70858   2.180   3.495   8.544  0.0046 -0.1512 -0.0603
23427SOL    HW170859   2.184   3.426   8.610  1.8617 -1.2596 -1.2219
23427SOL    HW270860   2.209   3.574   8.591  0.6760 -0.7745  0.6080
23428SOL     OW70861   9.299   6.273   3.816  0.3290 -0.0014  0.2666
23428SOL    HW170862   9.362   6.209   3.850  0.6368 -0.3714 -0.9598
23428SOL    HW270863   9.248   6.299   3.893  1.0316 -0.7693  1.0186
23429SOL     OW70864   3.759   4.149   3.111 -0.5932 -0.0416  0.2304
23429SOL    HW170865   3.669   4.172   3.136  0.3411  1.0980  2.8900
23429SOL    HW270866   3.795   4.106   3.188  1.6356  1.0183 -0.1419
23430SOL     OW70867   3.504   3.490   3.557  0.3570 -0.1189  0.1373
23430SOL    HW170868   3.590   3.529   3.542 -0.0828 -0.1238 -3.2187
23430SOL    HW270869   3.518   3.396   3.548  0.4100 -0.3742  2.3893
23431SOL     OW70870   5.693   9.334   0.079  0.3288 -0.0597  0.2744
23431SOL    HW170871   5.649   9.407   0.122  1.2671  0.1656  0.8750
23431SOL    HW270872   5.629   9.262   0.082 -0.5930  0.7159 -0.3183
23432SOL     OW70873   0.752   4.433   0.349  0.0324 -0.3440 -0.2324
23432SOL    HW170874   0.707   4.411   0.268  0.8876 -1.7633 -0.3429
23432SOL    HW270875   0.816   4.500   0.324 -0.7799  0.4002 -0.3944
23433SOL     OW70876   9.867   1.567   5.636  0.3960  0.4394  0.8299
23433SOL    HW170877   9.841   1.598   5.723  1.2929  0.7358  0.9984
23433SOL    HW270878   9.961   1.552   5.643  0.3729 -0.0882  0.0708
23434SOL     OW70879   3.964   4.444   0.533  0.3816 -0.5087  0.0730
23434SOL    HW170880   3.900   4.513   0.549  1.4753  0.5698 -0.1136
23434SOL    HW270881   3.939   4.407   0.448  0.5272  0.5187 -0.4352
23435SOL     OW70882   4.609   5.769   3.450 -0.0146 -0.0064 -0.0702
23435SOL    HW170883   4.556   5.838   3.410  1.5281  1.3057  0.0135
23435SOL    HW270884   4.662   5.735   3.378 -1.4909 -1.9195 -0.3441
23436SOL     OW70885   8.413   4.851   6.344  0.1106 -0.0612  0.1153
23436SOL    HW170886   8.384   4.808   6.425  1.1950  0.6181  0.8932
23436SOL    HW270887   8.438   4.780   6.286  0.0292 -0.5349  0.6571
23437SOL     OW70888   6.836   7.038   6.431  0.5657 -0.2056 -0.1631
23437SOL    HW170889   6.819   7.010   6.521 -1.9181  0.3096 -0.4131
23437SOL    HW270890   6.819   7.132   6.431 -1.7591 -0.5484 -1.6045
23438SOL     OW70891   3.922   8.518   3.498  0.1918 -0.0403  0.5190
23438SOL    HW170892   3.964   8.587   3.446  0.5536 -0.9173 -0.3759
23438SOL    HW270893   3.833   8.550   3.512 -0.1583 -0.1265 -1.3104
23439SOL     OW70894   3.032   0.153   5.116  0.1176  0.3345 -0.0005
23439SOL    HW170895   3.029   0.087   5.047  1.3719 -2.3598  2.2979
23439SOL    HW270896   3.044   0.236   5.070  1.4112 -1.3388 -2.9885
23440SOL     OW70897   3.981   6.636   7.526  0.0301  0.2786  0.0415
23440SOL    HW170898   4.063   6.628   7.477 -0.9522 -1.4650 -1.4659
23440SOL    HW270899   3.968   6.549   7.565 -0.4943  0.9097  1.3390
23441SOL     OW70900   3.086   8.276   0.550 -0.1960 -0.2583 -0.3697
23441SOL    HW170901   3.034   8.243   0.623 -0.7094  1.4317  0.0575
23441SOL    HW270902   3.022   8.304   0.485  0.1691  0.8224 -0.2924
23442SOL     OW70903   6.352   6.389   5.680 -0.1471 -0.2404 -0.1285
23442SOL    HW170904   6.277   6.448   5.667 -0.8329 -1.4706 -2.2286
23442SOL    HW270905   6.381   6.368   5.592  0.8664 -2.0562  0.6043
23443SOL     OW70906   2.106   1.545   5.232  0.1287  0.0430  0.1570
23443SOL    HW170907   2.050   1.596   5.290 -1.5011 -0.2314 -1.0857
23443SOL    HW270908   2.114   1.460   5.276 -2.1708 -0.6080 -0.5329
23444SOL     OW70909   6.479   2.680   7.443 -0.4180 -0.0658 -0.0324
23444SOL    HW170910   6.537   2.613   7.480 -0.4223 -0.2436 -0.3348
23444SOL    HW270911   6.412   2.630   7.396  0.7385  0.1305 -2.0221
23445SOL     OW70912   4.889   1.564   6.304 -0.4258 -0.2998 -0.2906
23445SOL    HW170913   4.848   1.594   6.224 -1.6816 -0.2025  0.3668
23445SOL    HW270914   4.983   1.570   6.287 -0.6758  0.0729 -1.6052
23446SOL     OW70915   1.593   8.385   1.297 -0.0935 -0.2393 -0.2859
23446SOL    HW170916   1.550   8.383   1.382  2.8629 -1.1494  1.3342
23446SOL    HW270917   1.628   8.474   1.290 -0.5855 -0.0736 -0.7176
23447SOL     OW70918   6.461   2.952   5.991  0.0843  0.3575 -0.0173
23447SOL    HW170919   6.397   3.019   6.018  0.0807  0.0158  0.8760
23447SOL    HW270920   6.411   2.870   5.994  0.9309 -0.1632  2.3566
23448SOL     OW70921   2.466   7.530   1.179 -0.5512  0.2852  0.1209
23448SOL    HW170922   2.557   7.560   1.176 -0.3206 -0.0430  2.3633
23448SOL    HW270923   2.471   7.436   1.164 -0.5033  0.2377  0.4355
23449SOL     OW70924   1.868   0.378   0.486  0.3583  0.5505  0.2537
23449SOL    HW170925   1.950   0.337   0.460 -0.9208 -0.8824 -1.9023
23449SOL    HW270926   1.887   0.472   0.489  1.6911  0.4168 -1.9543
23450SOL     OW70927   3.448   6.063   5.432  0.4937  0.8401  0.3122
23450SOL    HW170928   3.375   6.003   5.449  0.9716 -0.0647 -0.7538
23450SOL    HW270929   3.476   6.091   5.520 -0.8107  0.8344  0.7581
23451SOL     OW70930   6.813   8.563   1.872 -0.0471 -0.1479 -0.3852
23451SOL    HW170931   6.757   8.566   1.794 -0.0558 -1.0015 -0.4212
23451SOL    HW270932   6.814   8.653   1.904  0.1196  0.2549 -1.4875
23452SOL     OW70933   4.822   3.657   6.390  0.5576 -0.1912  0.2889
23452SOL    HW170934   4.839   3.749   6.409 -1.4403  0.1203  0.7627
23452SOL    HW270935   4.840   3.612   6.472  3.5730 -0.6028 -0.4756
23453SOL     OW70936   6.886   1.645   1.398  0.0071 -0.3803  0.3527
23453SOL    HW170937   6.890   1.739   1.382 -1.8161 -0.2660  0.3680
23453SOL    HW270938   6.801   1.617   1.362  0.8135 -2.1544 -0.2992
23454SOL     OW70939   9.564   8.632   1.022  1.1864 -0.3407  0.0093
23454SOL    HW170940   9.502   8.684   0.972  1.1077  0.0080  0.4653
23454SOL    HW270941   9.598   8.568   0.959  0.6504 -0.2904 -0.3379
23455SOL     OW70942   2.712   4.502   3.041  0.3987 -0.0429  0.3990
23455SOL    HW170943   2.643   4.520   3.106 -0.7235 -0.3781 -0.6496
23455SOL    HW270944   2.794   4.513   3.089 -0.3798 -2.6682  2.5757
23456SOL     OW70945   8.539   7.538   6.262 -0.4942  0.5852 -0.4392
23456SOL    HW170946   8.602   7.593   6.309  2.5857 -1.1427 -2.1534
23456SOL    HW270947   8.460   7.592   6.256 -0.3356  1.7765  4.4278
23457SOL     OW70948   8.782   4.349   6.317  0.4540  0.5093  0.0418
23457SOL    HW170949   8.872   4.378   6.328  0.6124 -0.4031  1.3951
23457SOL    HW270950   8.772   4.276   6.378 -0.5533 -0.8672 -1.6337
23458SOL     OW70951   3.126   8.552   4.983  0.0820 -0.1716  0.0680
23458SOL    HW170952   3.100   8.639   4.953 -0.2485 -0.4009 -0.3134
23458SOL    HW270953   3.160   8.567   5.072  0.7347  0.4551 -0.2720
23459SOL     OW70954   7.091   7.752   4.439  0.7957  0.3165  0.0779
23459SOL    HW170955   7.061   7.802   4.515 -1.3035 -1.9664  0.9087
23459SOL    HW270956   7.018   7.757   4.377 -0.7475 -3.6128  1.2592
23460SOL     OW70957   3.084   1.459   1.158 -0.0392  0.1484  0.2170
23460SOL    HW170958   3.028   1.495   1.227  1.0535  0.8203  0.7817
23460SOL    HW270959   3.051   1.498   1.077 -0.4517  0.4594  0.5311
23461SOL     OW70960   1.819   2.131   5.590 -0.1745 -0.1496 -0.0878
23461SOL    HW170961   1.736   2.163   5.557 -1.2513 -1.4706  1.1688
23461SOL    HW270962   1.837   2.185   5.667  0.5396  0.6422 -0.8021
23462SOL     OW70963   9.707   9.197   2.224 -0.7154  0.3084  0.4778
23462SOL    HW170964   9.767   9.162   2.289 -0.7739  1.3979  1.1558
23462SOL    HW270965   9.626   9.148   2.238 -0.4767 -0.0343  0.6706
23463SOL     OW70966   2.009   5.926   5.076 -0.1922 -0.7352 -0.2435
23463SOL    HW170967   2.068   5.877   5.019  2.3369  2.6768 -0.8087
23463SOL    HW270968   2.062   5.949   5.152 -1.2039  1.2209 -0.0780
23464SOL     OW70969   6.997   1.465   3.517 -0.1102  0.0621  0.6480
23464SOL    HW170970   6.904   1.446   3.511 -0.2048  0.3459  1.1615
23464SOL    HW270971   7.040   1.381   3.501 -0.4204  0.1322 -0.6296
23465SOL     OW70972   6.407   2.958   8.631 -0.3831  0.4514 -0.2041
23465SOL    HW170973   6.463   2.909   8.571  0.7957  1.4396  0.0311
23465SOL    HW270974   6.318   2.943   8.600  0.1105 -0.1478 -1.3619
23466SOL     OW70975   4.383   3.101   7.766  0.5386  0.3216  0.6266
23466SOL    HW170976   4.342   3.025   7.808 -1.2663  0.4867 -0.7159
23466SOL    HW270977   4.370   3.172   7.828 -1.5008  0.4174  0.1728
23467SOL     OW70978   9.315   4.864   4.501 -0.2980  0.1633 -0.5994
23467SOL    HW170979   9.360   4.912   4.570 -1.3527 -0.4327  0.5371
23467SOL    HW270980   9.377   4.864   4.428 -0.1507  2.9796 -0.5726
23468SOL     OW70981   9.357   6.221   1.721  0.2250 -0.0677  0.5787
23468SOL    HW170982   9.394   6.294   1.772  0.4667  0.9953 -1.0414
23468SOL    HW270983   9.422   6.203   1.654 -1.5010  0.9003 -1.4782
23469SOL     OW70984   8.846   7.167   5.091 -0.1624  0.0558  0.3473
23469SOL    HW170985   8.925   7.130   5.132  0.5633 -0.2153 -1.2145
23469SOL    HW270986   8.874   7.253   5.061  0.1168 -0.7125 -1.7696
23470SOL     OW70987   4.475   1.348   0.031 -0.3521  0.5448  0.1025
23470SOL    HW170988   4.555   1.391   0.063  0.9924 -1.7269 -0.0082
23470SOL    HW270989   4.455   1.282   0.097 -0.4636 -0.8042 -1.2100
23471SOL     OW70990   1.420   9.746   0.882  0.3779  0.0731  0.4780
23471SOL    HW170991   1.391   9.836   0.901  1.9188  0.5254  0.7713
23471SOL    HW270992   1.426   9.704   0.968  1.3218  0.2274  0.4976
23472SOL     OW70993   8.764   0.655   8.092  0.3812  0.0125 -0.6915
23472SOL    HW170994   8.724   0.738   8.065  3.6512  1.9437 -0.1960
23472SOL    HW270995   8.734   0.643   8.182 -3.0559 -1.4621 -1.8719
23473SOL     OW70996   9.244   9.569   6.967 -0.2482 -0.3056  0.2346
23473SOL    HW170997   9.158   9.597   6.934  0.7702  1.5814 -1.0787
23473SOL    HW270998   9.257   9.482   6.929 -1.1426 -0.1611 -0.4506
23474SOL     OW70999   2.443   4.432   2.447  0.0421 -0.7372 -0.0082
23474SOL    HW171000   2.466   4.506   2.503 -0.2020  0.0950 -0.9825
23474SOL    HW271001   2.512   4.368   2.463  0.9179  0.1806 -0.0354
23475SOL     OW71002   5.689   0.070   9.779 -0.7748  0.3413  0.0679
23475SOL    HW171003   5.716   0.136   9.842 -1.9067  2.5210 -1.5856
23475SOL    HW271004   5.662  -0.004   9.832  2.3419  0.3622  1.9656
23476SOL     OW71005   5.336   9.091   7.633 -0.1114 -0.5411 -0.3355
23476SOL    HW171006   5.274   9.153   7.594  1.3970 -0.2387 -2.4108
23476SOL    HW271007   5.306   9.082   7.724 -2.4144  0.5481 -0.8949
23477SOL     OW71008   1.089   9.727   7.713  0.0396  0.1914  0.4054
23477SOL    HW171009   1.141   9.783   7.655 -0.7924  0.6808  0.1168
23477SOL    HW271010   1.005   9.718   7.668 -0.0482 -0.7793  0.7564
23478SOL     OW71011   7.651   7.233   4.158 -0.1241  0.3753  0.4321
23478SOL    HW171012   7.587   7.267   4.096  0.6463  1.6234  0.2677
23478SOL    HW271013   7.734   7.271   4.128  0.2065  1.3665  2.4635
23479SOL     OW71014   6.485   1.072   2.200 -0.4611 -0.3347 -0.4748
23479SOL    HW171015   6.454   0.988   2.167 -0.2025 -1.1964  1.3224
23479SOL    HW271016   6.510   1.054   2.291 -0.3195  1.6767 -0.0678
23480SOL     OW71017   5.958   0.094   5.145 -0.4311 -0.8534  0.5038
23480SOL    HW171018   6.031   0.156   5.138 -2.3148  1.4840  0.5795
23480SOL    HW271019   5.967   0.057   5.233  1.1013 -1.2283  0.2182
23481SOL     OW71020   9.296   1.392   9.640  0.3019  0.8165 -0.0046
23481SOL    HW171021   9.371   1.369   9.696 -0.0992  1.4969  0.8244
23481SOL    HW271022   9.220   1.381   9.697 -0.0122  2.8986  0.0289
23482SOL     OW71023   5.218   4.084   9.010 -0.1658 -0.3914  0.0007
23482SOL    HW171024   5.271   4.151   8.967  0.6328 -0.3628  1.0124
23482SOL    HW271025   5.274   4.048   9.077 -0.9646 -1.3415  0.1757
23483SOL     OW71026   8.959   8.658   0.717 -0.2115 -0.1686  0.2801
23483SOL    HW171027   8.945   8.610   0.798  0.0316 -0.5556  0.0931
23483SOL    HW271028   9.037   8.711   0.733  0.6917 -1.3221 -0.1828
23484SOL     OW71029   3.774   8.170   4.071  0.1344 -0.1684  0.2347
23484SOL    HW171030   3.710   8.203   4.007  1.0797 -0.8497 -1.1165
23484SOL    HW271031   3.759   8.076   4.074  0.5064 -0.2185  0.5453
23485SOL     OW71032   0.459   8.005   4.618  0.1532 -0.3669  0.1164
23485SOL    HW171033   0.511   7.930   4.589  0.7312  0.5585 -1.3716
23485SOL    HW271034   0.523   8.067   4.653 -0.1810 -0.0853  0.2354
23486SOL     OW71035   4.603   8.940   0.370  0.1852  0.2377 -0.3935
23486SOL    HW171036   4.595   9.035   0.376  0.7226  0.3844 -1.6262
23486SOL    HW271037   4.606   8.923   0.276  0.0326 -1.0081 -0.1835
23487SOL     OW71038   0.625   2.823   0.502  0.2965 -0.2678  0.1033
23487SOL    HW171039   0.649   2.861   0.418  1.3261 -2.4737 -0.6793
23487SOL    HW271040   0.595   2.734   0.480 -1.2606 -0.2498  1.8877
23488SOL     OW71041   3.773   9.722   7.241 -0.2570  0.1453 -0.1216
23488SOL    HW171042   3.858   9.726   7.285  0.5268 -0.2132 -1.5376
23488SOL    HW271043   3.737   9.636   7.265  0.5152 -0.3762 -0.7881
23489SOL     OW71044   1.367   4.048   2.582 -0.1968 -0.4298  0.6483
23489SOL    HW171045   1.413   4.115   2.634 -0.5762 -1.0439  1.8237
23489SOL    HW271046   1.380   3.967   2.631 -2.0767 -0.7126  0.7510
23490SOL     OW71047   1.076   5.465   8.001 -0.4690 -0.5096  0.2673
23490SOL    HW171048   1.086   5.548   7.954  0.7565 -0.4707  0.5658
23490SOL    HW271049   0.991   5.472   8.044 -0.6182  0.3659 -0.1473
23491SOL     OW71050   3.920   5.730   1.760 -0.0800  0.2050 -0.2588
23491SOL    HW171051   3.923   5.696   1.850 -1.3557  0.0587 -0.2523
23491SOL    HW271052   3.838   5.696   1.724 -0.4525  1.6950 -0.8995
23492SOL     OW71053   5.044   6.910   3.787  0.2660 -0.0292 -0.2007
23492SOL    HW171054   5.049   6.934   3.880 -1.4537  0.6167 -0.2501
23492SOL    HW271055   4.981   6.971   3.749 -1.4505 -2.2259 -1.1241
23493SOL     OW71056   5.950   8.829   8.563  0.2909 -0.3886  0.8286
23493SOL    HW171057   6.016   8.773   8.522 -1.3471 -1.0455 -1.0486
23493SOL    HW271058   5.868   8.804   8.522 -0.9069  1.5958  1.8535
23494SOL     OW71059   7.854   1.342   4.540  0.5403 -0.5463  0.1643
23494SOL    HW171060   7.831   1.308   4.626 -0.7626  1.6085  0.7544
23494SOL    HW271061   7.801   1.421   4.530  0.8925 -0.5334 -2.4992
23495SOL     OW71062   4.771   1.414   9.402  0.2580 -0.0824  0.1521
23495SOL    HW171063   4.752   1.506   9.385  0.9627  0.0531  0.0712
23495SOL    HW271064   4.860   1.414   9.438 -0.0146 -0.6617  0.8618
23496SOL     OW71065   9.052   8.349   8.980  0.2564  0.0282  0.4517
23496SOL    HW171066   9.101   8.352   8.897 -1.2057  1.9377 -0.4111
23496SOL    HW271067   9.042   8.440   9.005  0.4698 -0.5144  2.6732
23497SOL     OW71068   3.613   1.795   7.722 -0.1666  0.7296 -0.1262
23497SOL    HW171069   3.544   1.729   7.723  1.1108 -0.6579  0.3705
23497SOL    HW271070   3.632   1.812   7.814  2.1172 -1.1251 -0.1618
23498SOL     OW71071   8.689   7.563   9.858 -0.7670 -0.0454 -0.2274
23498SOL    HW171072   8.679   7.598   9.769 -1.8605  0.2757  0.0015
23498SOL    HW271073   8.649   7.476   9.854 -1.0098  0.0574  0.0080
23499SOL     OW71074   0.454   2.528   6.526  0.4233  0.4190  0.2803
23499SOL    HW171075   0.523   2.506   6.463  0.3344 -2.0849  0.9386
23499SOL    HW271076   0.491   2.598   6.579  2.8391 -1.3550  1.1207
23500SOL     OW71077   9.801   8.240   1.119  0.8216  0.3811  0.1364
23500SOL    HW171078   9.785   8.159   1.167  2.2499  0.0826  0.1595
23500SOL    HW271079   9.803   8.213   1.027 -0.5386  0.7156 -0.0002
23501SOL     OW71080   1.413   0.883   8.856  0.2251  0.1790  0.5721
23501SOL    HW171081   1.373   0.935   8.925  0.0356 -1.7515  2.0040
23501SOL    HW271082   1.342   0.828   8.823  1.1458 -1.7779  1.6804
23502SOL     OW71083   2.757   3.383   4.606 -0.0682  0.0880 -0.3652
23502SOL    HW171084   2.824   3.449   4.625 -0.7020  0.4659  0.6701
23502SOL    HW271085   2.690   3.430   4.558 -0.2028  0.0349 -0.2310
23503SOL     OW71086   9.035   0.545   5.244  0.0525 -0.3194  0.2177
23503SOL    HW171087   8.958   0.517   5.293 -1.4694  1.5453 -0.9634
23503SOL    HW271088   9.019   0.514   5.155  2.3693 -2.9211  0.5918
23504SOL     OW71089   6.198   4.662   5.577  0.1718 -0.3588 -1.0612
23504SOL    HW171090   6.219   4.676   5.485  0.6169 -3.3451 -1.4956
23504SOL    HW271091   6.282   4.660   5.622 -0.0527  1.3754 -0.4620
23505SOL     OW71092   2.727   9.472   5.162  0.5208  0.4149  0.0292
23505SOL    HW171093   2.790   9.519   5.108  0.3998  0.7679  0.1911
23505SOL    HW271094   2.687   9.409   5.103  1.0138  0.1966 -0.0773
23506SOL     OW71095   9.716   9.021   9.758 -0.0365  0.2579 -0.1817
23506SOL    HW171096   9.809   9.025   9.778  0.4094  0.7729 -2.1175
23506SOL    HW271097   9.674   9.071   9.828  1.0428 -0.5297  1.0836
23507SOL     OW71098   5.440   9.179   9.607  0.3512  0.3857 -0.6736
23507SOL    HW171099   5.433   9.207   9.698 -1.5281  0.2589 -0.7480
23507SOL    HW271100   5.477   9.091   9.611  1.1839  0.7551 -0.1090
23508SOL     OW71101   6.121   6.572   5.662  0.0692  0.5312  0.1258
23508SOL    HW171102   6.126   6.656   5.617 -0.1434 -0.5039 -1.9043
23508SOL    HW271103   6.041   6.532   5.629  0.1779 -0.4885  1.0583
23509SOL     OW71104   0.895   9.540   0.505  0.6436  0.2139  1.1599
23509SOL    HW171105   0.964   9.545   0.439  0.1281 -0.9084  0.5089
23509SOL    HW271106   0.942   9.529   0.588  1.3133  2.2661  1.0966
23510SOL     OW71107   4.827   7.305   6.631 -0.0881 -0.0298  0.2946
23510SOL    HW171108   4.816   7.217   6.594  0.4245 -0.2530  0.6666
23510SOL    HW271109   4.765   7.308   6.704  0.7093 -0.4938  0.9994
23511SOL     OW71110   1.570   6.364   7.519 -0.0156 -0.0082 -0.2341
23511SOL    HW171111   1.585   6.373   7.425  0.0675 -1.3698 -0.3818
23511SOL    HW271112   1.621   6.434   7.559 -1.8375  2.0356 -1.2935
23512SOL     OW71113   0.964   6.694   9.533 -0.0233 -0.0131  0.7532
23512SOL    HW171114   0.911   6.772   9.551 -1.1688 -0.2216 -1.4549
23512SOL    HW271115   0.939   6.632   9.602 -1.0862  0.6331  0.9656
23513SOL     OW71116   8.040   7.636   0.779 -0.3552  0.6320  0.8095
23513SOL    HW171117   7.969   7.697   0.758 -2.0446 -0.9155  1.7413
23513SOL    HW271118   8.037   7.571   0.709 -1.0606 -0.4102  1.7769
23514SOL     OW71119   3.483   0.096   5.520  0.1129 -0.2881 -0.5952
23514SOL    HW171120   3.514   0.022   5.572  2.8968 -1.1810 -3.2136
23514SOL    HW271121   3.401   0.122   5.562  0.5536 -2.8703  2.2540
23515SOL     OW71122   1.801   0.538   4.959  0.1565  0.1700 -0.3447
23515SOL    HW171123   1.826   0.496   4.876 -2.1404 -1.6840 -0.2074
23515SOL    HW271124   1.726   0.593   4.936  0.0891  0.3642  0.3415
23516SOL     OW71125   6.359   2.379   1.657 -0.0273  0.0615 -0.1180
23516SOL    HW171126   6.306   2.444   1.704 -1.2933 -0.9291 -0.1182
23516SOL    HW271127   6.328   2.384   1.567  0.4270  0.0136 -0.2764
23517SOL     OW71128   4.667   7.799   5.584 -0.2987  0.2886 -0.1265
23517SOL    HW171129   4.647   7.778   5.493  1.2661  1.9824 -0.9517
23517SOL    HW271130   4.712   7.722   5.617 -0.5943 -0.2270 -0.9041
23518SOL     OW71131   3.770   6.141   7.021 -0.2157 -0.0347  0.4372
23518SOL    HW171132   3.731   6.107   7.102 -1.5948 -0.6533 -0.4356
23518SOL    HW271133   3.700   6.193   6.981 -1.3080 -3.3694 -2.5508
23519SOL     OW71134   0.077   3.448   5.721 -0.3476  0.2756 -0.4213
23519SOL    HW171135   0.037   3.415   5.801 -2.3419 -0.6849 -1.7444
23519SOL    HW271136   0.104   3.369   5.673  0.4070  0.8114 -0.8972
23520SOL     OW71137   4.290   5.825   6.408  0.1998  0.0494  0.3718
23520SOL    HW171138   4.306   5.804   6.316  0.1614  0.0616  0.3626
23520SOL    HW271139   4.203   5.865   6.409  0.1387 -0.0855  0.4349
23521SOL     OW71140   0.058   9.536   5.689  0.0724 -0.1278  0.4253
23521SOL    HW171141  -0.030   9.498   5.682  0.0366 -0.0281  0.3367
23521SOL    HW271142   0.117   9.462   5.684 -0.0339 -0.2849  1.2757
23522SOL     OW71143   4.675   8.715   7.693  0.6648 -0.3151  0.6139
23522SOL    HW171144   4.603   8.660   7.661  1.2264 -1.0209  0.5315
23522SOL    HW271145   4.731   8.654   7.741  0.0378  0.6375  2.6591
23523SOL     OW71146   3.241   6.358   1.776  0.3796 -0.1912  0.0368
23523SOL    HW171147   3.310   6.422   1.759 -0.0157 -0.3181 -2.4640
23523SOL    HW271148   3.166   6.410   1.806  0.2796  0.4580 -1.2999
23524SOL     OW71149   7.435   5.674   7.094 -0.2725 -0.0066 -0.1251
23524SOL    HW171150   7.411   5.725   7.171  1.7422  0.3063  0.3495
23524SOL    HW271151   7.352   5.642   7.059 -1.2590  0.1076  1.9771
23525SOL     OW71152   5.219   9.750   4.934  0.5712 -0.0672 -0.2306
23525SOL    HW171153   5.245   9.800   4.857 -0.3610  0.5677 -0.1528
23525SOL    HW271154   5.129   9.778   4.952  0.9871  0.3037  1.4796
23526SOL     OW71155   0.548   5.012   0.467 -0.3525 -0.0890 -0.1889
23526SOL    HW171156   0.488   5.085   0.452  1.1728  1.0905 -0.7223
23526SOL    HW271157   0.570   5.018   0.560  0.5122  0.7415 -0.4344
23527SOL     OW71158   3.725   8.692   5.209 -0.3232  0.4591 -0.3080
23527SOL    HW171159   3.639   8.728   5.231 -0.3256  1.6983 -2.0642
23527SOL    HW271160   3.787   8.761   5.235  0.0854 -0.1762  0.4136
23528SOL     OW71161   3.910   1.458   0.656  0.0493 -0.1851 -0.5833
23528SOL    HW171162   3.844   1.517   0.690  1.3034  0.8927  0.0672
23528SOL    HW271163   3.947   1.415   0.733  1.6416  0.9142 -0.6751
23529SOL     OW71164   2.455   4.572   6.756  0.2366 -0.3805 -0.3409
23529SOL    HW171165   2.520   4.605   6.818  1.1959 -0.6207 -1.1743
23529SOL    HW271166   2.373   4.612   6.783  0.7173 -0.1088  0.7820
23530SOL     OW71167   3.082   1.168   6.674 -0.2606 -0.0674 -0.3754
23530SOL    HW171168   3.095   1.089   6.622  1.3499 -1.0691  1.4161
23530SOL    HW271169   3.003   1.152   6.725 -1.4388  0.6237 -1.9290
23531SOL     OW71170   4.675   9.336   3.703 -0.4219  0.7299 -0.5312
23531SOL    HW171171   4.593   9.378   3.729  1.5491  3.1813  2.5757
23531SOL    HW271172   4.684   9.263   3.765 -0.8114 -0.3650 -1.7311
23532SOL     OW71173   4.461   5.415   4.917  0.1111 -0.1129 -0.1205
23532SOL    HW171174   4.482   5.331   4.957  1.7889  0.9458  1.4080
23532SOL    HW271175   4.517   5.420   4.840  2.0629  0.6503  1.2639
23533SOL     OW71176   1.702   9.788   6.719 -0.0133 -0.3955 -0.0292
23533SOL    HW171177   1.617   9.775   6.760 -0.6167  1.7267 -0.4643
23533SOL    HW271178   1.695   9.745   6.634 -2.0948  2.7432 -1.6528
23534SOL     OW71179   5.221   8.706   9.937 -0.3998  0.1252 -0.1111
23534SOL    HW171180   5.299   8.660   9.970  1.3195  1.1732 -2.4186
23534SOL    HW271181   5.153   8.638   9.934  0.7587 -1.1399  0.8212
23535SOL     OW71182   1.846   8.724   3.573  0.3999 -0.9996  0.1785
23535SOL    HW171183   1.760   8.726   3.614  0.2209  1.8505 -0.1057
23535SOL    HW271184   1.903   8.682   3.637 -0.2417  1.5943  2.6576
23536SOL     OW71185   0.372   1.322   9.495  0.1947 -0.2011  0.2956
23536SOL    HW171186   0.374   1.235   9.534  0.4621  0.4453  1.7822
23536SOL    HW271187   0.415   1.312   9.410 -1.1900 -1.8283 -0.2725
23537SOL     OW71188   9.166   8.241   4.616  0.1311  0.0764  0.2154
23537SOL    HW171189   9.098   8.308   4.610  0.2607  0.1577 -0.4031
23537SOL    HW271190   9.232   8.280   4.674  0.7657  0.9961 -1.0646
23538SOL     OW71191   9.300   8.386   0.513 -0.0605  0.5811  0.3580
23538SOL    HW171192   9.288   8.370   0.419  2.5437 -0.8441  0.1551
23538SOL    HW271193   9.279   8.302   0.554 -0.2483  0.9162  0.9517
23539SOL     OW71194   2.716   5.623   9.313  0.0639  0.7964 -0.3012
23539SOL    HW171195   2.746   5.533   9.298 -0.9496  0.2172  0.9424
23539SOL    HW271196   2.765   5.676   9.250  0.3395 -0.6794 -1.3698
23540SOL     OW71197   8.913   7.923   6.683 -0.0248  0.2813  0.3214
23540SOL    HW171198   8.895   7.829   6.693 -0.5456  0.4455  0.9960
23540SOL    HW271199   8.877   7.963   6.762 -1.4144  1.2562 -0.7537
23541SOL     OW71200   5.785   0.992   3.065 -0.1081  0.1308  0.3611
23541SOL    HW171201   5.765   0.966   2.975 -1.6340  0.7161  0.5113
23541SOL    HW271202   5.728   1.067   3.082  1.4365  1.1776  1.2337
23542SOL     OW71203   2.789   9.922   4.832  0.5256 -0.1338 -0.7177
23542SOL    HW171204   2.786   9.973   4.751  0.3571  0.7909 -0.1512
23542SOL    HW271205   2.882   9.914   4.852  0.5846 -0.6865 -1.1922
23543SOL     OW71206   9.298   3.242   3.641  0.1005 -0.2931 -0.0290
23543SOL    HW171207   9.206   3.227   3.619 -1.1350  0.6145  3.7498
23543SOL    HW271208   9.320   3.324   3.596 -0.7668 -0.6980 -1.2493
23544SOL     OW71209   2.886   5.255   9.130  0.6016  0.2992 -0.2144
23544SOL    HW171210   2.812   5.270   9.188  0.1326  2.5810 -1.2776
23544SOL    HW271211   2.849   5.208   9.055  0.4971  0.2521 -0.1327
23545SOL     OW71212   1.401   2.040   4.534 -0.3372  0.2548  0.1438
23545SOL    HW171213   1.395   1.946   4.512 -0.6470  0.2826  0.1102
23545SOL    HW271214   1.363   2.047   4.621  0.7207  0.1768  0.6186
23546SOL     OW71215   1.063   0.883   1.558 -0.1737 -0.1070 -0.4360
23546SOL    HW171216   1.005   0.874   1.483 -0.7667  0.4869 -0.0483
23546SOL    HW271217   1.010   0.922   1.627  0.2852 -0.8958  0.3969
23547SOL     OW71218   5.096   4.593   4.545  0.4313 -0.0146  0.2198
23547SOL    HW171219   5.003   4.616   4.545  0.4326  0.0329 -0.6869
23547SOL    HW271220   5.142   4.675   4.528  0.4777 -0.4411 -2.0852
23548SOL     OW71221   6.461   9.173   4.207 -0.5470 -0.6639  0.1911
23548SOL    HW171222   6.376   9.203   4.174 -0.4967 -0.7083  0.0161
23548SOL    HW271223   6.517   9.251   4.202 -0.5321 -0.6772  0.1452
23549SOL     OW71224   1.436   8.683   6.247  0.4381 -0.1630  0.3837
23549SOL    HW171225   1.460   8.773   6.268  0.1426 -0.3887  1.8094
23549SOL    HW271226   1.348   8.690   6.208  0.2500  0.1411  0.8529
23550SOL     OW71227   8.018   5.630   0.260 -0.2207  0.1629  0.1724
23550SOL    HW171228   7.964   5.559   0.227 -0.3260 -0.2362  1.1724
23550SOL    HW271229   8.106   5.593   0.267 -0.5919 -0.4818  2.3814
23551SOL     OW71230   7.461   4.487   2.714 -0.4055 -0.2244 -0.6194
23551SOL    HW171231   7.371   4.484   2.745 -0.1434  1.2753  0.3499
23551SOL    HW271232   7.455   4.525   2.627 -0.5575  1.8429  0.2467
23552SOL     OW71233   2.321   5.074   2.837  0.0116 -0.6433 -0.4138
23552SOL    HW171234   2.327   5.119   2.921 -0.1506 -1.2023 -0.0918
23552SOL    HW271235   2.387   5.115   2.781  2.2722 -2.2366  0.9183
23553SOL     OW71236   0.287   1.237   3.271  0.7439 -0.1001 -0.0895
23553SOL    HW171237   0.383   1.242   3.276  0.6576  0.2929  2.0177
23553SOL    HW271238   0.260   1.204   3.357 -0.8882 -2.9562 -1.5480
23554SOL     OW71239   2.682   3.115   9.540 -0.3045  0.1033  0.2120
23554SOL    HW171240   2.762   3.070   9.564 -0.4161  0.2567  0.9042
23554SOL    HW271241   2.709   3.179   9.474  0.3380  0.8688  1.1891
23555SOL     OW71242   3.452   7.898   6.554 -0.4373 -0.3181  0.3157
23555SOL    HW171243   3.497   7.946   6.485 -3.0536  1.1322 -0.5128
23555SOL    HW271244   3.515   7.894   6.626  1.0013  1.6071 -0.7527
23556SOL     OW71245   2.128   8.543   5.958 -0.3797  0.5335 -0.3459
23556SOL    HW171246   2.179   8.572   6.033 -1.1115 -0.4263  0.5531
23556SOL    HW271247   2.039   8.574   5.977 -0.6423 -0.0304 -0.6346
23557SOL     OW71248   8.579   9.571   3.014 -0.3928  0.0753 -0.2377
23557SOL    HW171249   8.539   9.585   3.100 -1.8454  0.5963 -0.9617
23557SOL    HW271250   8.660   9.525   3.033  0.6088  2.3662  1.6492
23558SOL     OW71251   6.243   7.191   1.158  0.0452  0.0005  0.0611
23558SOL    HW171252   6.192   7.270   1.141 -0.5770 -0.8748 -2.8441
23558SOL    HW271253   6.334   7.219   1.143 -0.1734  0.2063 -1.0245
23559SOL     OW71254   8.556   0.801   4.245  0.0640  0.2811 -0.0813
23559SOL    HW171255   8.594   0.746   4.177 -0.6961 -0.3156 -0.0412
23559SOL    HW271256   8.618   0.873   4.256  0.9404 -0.4258 -0.3301
23560SOL     OW71257   2.981   7.014   9.407  0.2914 -0.2228 -0.5222
23560SOL    HW171258   2.996   7.031   9.314 -2.1548  1.2695 -0.7244
23560SOL    HW271259   2.940   7.094   9.440 -1.6338 -1.7808  1.1380
23561SOL     OW71260   6.209   1.998   0.733 -0.1851  0.1453  0.8408
23561SOL    HW171261   6.154   1.971   0.807 -3.8217 -0.3992 -1.8035
23561SOL    HW271262   6.158   2.067   0.689  1.8254  0.4699 -1.1893
23562SOL     OW71263   3.276   4.662   9.339  0.1090  0.2172  0.1692
23562SOL    HW171264   3.238   4.749   9.353  0.0209  0.3789 -1.0229
23562SOL    HW271265   3.350   4.659   9.400 -1.4244  0.1021  2.1122
23563SOL     OW71266   9.575   8.976   0.805 -0.1817  0.0847 -0.0922
23563SOL    HW171267   9.532   8.981   0.890  2.0180 -0.0546  1.0945
23563SOL    HW271268   9.630   9.053   0.802  0.2157 -0.2301 -1.1448
23564SOL     OW71269   3.872   9.062   2.631 -0.0786  0.0509 -0.1798
23564SOL    HW171270   3.845   9.115   2.556  0.0690 -0.8041 -0.8529
23564SOL    HW271271   3.847   9.115   2.708 -2.6041 -0.1480 -0.7603
23565SOL     OW71272   9.607   4.743   4.450  0.0555  0.5823 -0.3237
23565SOL    HW171273   9.625   4.681   4.380  1.7039 -0.4427  0.9279
23565SOL    HW271274   9.613   4.829   4.409  2.9500  0.1014 -1.1267
23566SOL     OW71275   1.022   3.426   4.215  0.5841  0.2172 -0.1591
23566SOL    HW171276   0.956   3.397   4.152  1.2426 -4.0643  0.7993
23566SOL    HW271277   0.981   3.413   4.301  2.1045 -1.2547  0.4050
23567SOL     OW71278   6.208   7.692   9.622 -0.2670 -0.2885 -0.9965
23567SOL    HW171279   6.220   7.745   9.701  0.8229 -1.2015 -0.5168
23567SOL    HW271280   6.284   7.714   9.567  1.5927 -3.0198  0.2404
23568SOL     OW71281   8.096   2.210   9.698 -0.0671  0.1279  0.0582
23568SOL    HW171282   8.177   2.263   9.701 -1.8623  3.3739 -2.3104
23568SOL    HW271283   8.043   2.245   9.769 -0.4047 -0.1100 -0.0788
23569SOL     OW71284   0.685   7.588   8.851  0.0764  0.2533 -0.5952
23569SOL    HW171285   0.743   7.513   8.841  0.1813  0.3854 -0.9901
23569SOL    HW271286   0.730   7.645   8.914 -1.0957 -1.0760  1.5808
23570SOL     OW71287   2.479   2.856   6.188  0.0570 -0.2117  0.4552
23570SOL    HW171288   2.531   2.893   6.117 -0.0302  0.1749  0.5888
23570SOL    HW271289   2.448   2.772   6.154 -1.4728  0.7587 -0.6455
23571SOL     OW71290   5.548   9.341   1.717  0.2914 -0.7195 -0.1268
23571SOL    HW171291   5.567   9.258   1.674 -2.0512 -0.7507 -1.2733
23571SOL    HW271292   5.489   9.386   1.656  1.5184  1.8152  0.4496
23572SOL     OW71293   8.513   8.656   5.396 -0.3060 -0.4043 -0.5859
23572SOL    HW171294   8.588   8.599   5.406 -0.4856 -0.9284 -1.9377
23572SOL    HW271295   8.489   8.682   5.485  1.9440  0.4353 -0.1686
23573SOL     OW71296   5.878   6.573   5.148  0.5173  0.0165  0.6310
23573SOL    HW171297   5.893   6.658   5.105 -0.7035 -0.7489 -1.4770
23573SOL    HW271298   5.785   6.573   5.169  0.8320 -0.1993  2.1038
23574SOL     OW71299   8.456   6.404   7.421  0.6222 -0.2066  0.1162
23574SOL    HW171300   8.382   6.385   7.479  0.0312 -0.6019 -0.7426
23574SOL    HW271301   8.445   6.343   7.348  0.7539  0.9945 -0.9306
23575SOL     OW71302   7.390   5.989   5.284 -0.0217 -0.0475 -0.1213
23575SOL    HW171303   7.386   5.976   5.379  1.3192  0.5403  0.0399
23575SOL    HW271304   7.451   6.062   5.273  0.8440 -0.9389 -1.4920
23576SOL     OW71305   6.045   7.393   2.684  0.1434 -0.6906 -0.1307
23576SOL    HW171306   5.957   7.381   2.647 -0.3135 -0.7278  0.9411
23576SOL    HW271307   6.092   7.443   2.617 -0.8765 -0.1385 -0.4642
23577SOL     OW71308   8.070   1.922   0.708  0.0400  0.3882 -0.5142
23577SOL    HW171309   8.022   1.996   0.672 -0.8336 -0.1490 -0.4762
23577SOL    HW271310   8.030   1.905   0.793 -0.0961 -0.4195 -0.7268
23578SOL     OW71311   7.851   8.533   6.272 -0.5105  0.3224  0.0451
23578SOL    HW171312   7.829   8.505   6.183 -2.1881 -1.0705  0.8349
23578SOL    HW271313   7.845   8.629   6.268  0.4353  0.3511 -1.5544
23579SOL     OW71314   3.881   8.398   4.849 -0.1037 -0.5918  0.0802
23579SOL    HW171315   3.866   8.394   4.755 -2.3099 -1.3748  0.4147
23579SOL    HW271316   3.813   8.457   4.882  1.2911  0.5490  1.1048
23580SOL     OW71317   8.401   4.892   9.444  0.3568  0.0796 -0.1814
23580SOL    HW171318   8.421   4.802   9.468 -1.6324 -0.7359 -1.3189
23580SOL    HW271319   8.479   4.923   9.398  1.5950 -0.5500  1.3960
23581SOL     OW71320   8.619   1.689   7.551  0.0510  0.0442 -0.3940
23581SOL    HW171321   8.615   1.784   7.537  0.1390  0.1803  0.4765
23581SOL    HW271322   8.694   1.661   7.498 -0.3994  0.3549 -1.2091
23582SOL     OW71323   7.780   7.861   2.233  0.0422 -0.1798 -0.5011
23582SOL    HW171324   7.776   7.842   2.139 -0.9424  0.7677 -0.6646
23582SOL    HW271325   7.874   7.874   2.251  0.2953 -0.9275 -1.2240
23583SOL     OW71326   1.995   2.988   9.614  0.7215 -0.0134 -0.3731
23583SOL    HW171327   1.907   3.001   9.650  0.0611  2.1935 -2.5492
23583SOL    HW271328   1.988   3.015   9.523  3.2958 -1.4340 -1.0838
23584SOL     OW71329   4.751   4.020   9.237  0.3105  0.2942  0.0546
23584SOL    HW171330   4.673   4.066   9.205  0.2795  1.1322  1.2496
23584SOL    HW271331   4.822   4.051   9.181 -0.1402 -0.1929 -0.8034
23585SOL     OW71332   5.355   7.125   0.622 -0.3609  0.4390  0.4488
23585SOL    HW171333   5.381   7.199   0.676 -2.4043  1.2850  0.3605
23585SOL    HW271334   5.339   7.054   0.685  2.2968 -0.2359  0.4810
23586SOL     OW71335   3.595   8.267   9.884  0.0926 -0.8395  0.3540
23586SOL    HW171336   3.610   8.221   9.967  0.0316 -0.5695  0.5126
23586SOL    HW271337   3.625   8.204   9.817  2.7115 -0.0540  0.6709
23587SOL     OW71338   0.275   5.009   1.360  0.4992  0.7700  0.2674
23587SOL    HW171339   0.287   5.094   1.317  2.7594  0.5121  0.2887
23587SOL    HW271340   0.334   5.011   1.435 -1.2069  0.0693  1.7133
23588SOL     OW71341   0.628   2.024   4.589 -0.3081  0.8796  0.6136
23588SOL    HW171342   0.534   2.039   4.587 -0.3898  0.4825  1.4744
23588SOL    HW271343   0.666   2.106   4.556 -0.9672  0.7282 -0.5965
23589SOL     OW71344   0.523   5.157   3.028 -0.1614  0.3806 -0.5129
23589SOL    HW171345   0.493   5.244   3.055  1.2338  0.0907  2.3354
23589SOL    HW271346   0.618   5.161   3.037 -0.0472 -1.3416 -0.7385
23590SOL     OW71347   2.886   6.960   5.710  0.7884  0.3995  0.7845
23590SOL    HW171348   2.811   7.002   5.668 -0.3193 -2.6289 -0.5695
23590SOL    HW271349   2.962   6.994   5.662 -0.2173 -0.6204 -1.7464
23591SOL     OW71350   7.001   1.968   8.367  0.4666  0.1505  0.3290
23591SOL    HW171351   6.990   2.060   8.342  1.6436  1.5482  4.2264
23591SOL    HW271352   7.094   1.950   8.352  0.4266 -0.1273  0.4110
23592SOL     OW71353   6.782   4.253   6.669 -0.4985 -0.3815  0.3301
23592SOL    HW171354   6.765   4.324   6.607  0.6766 -1.3315 -1.1828
23592SOL    HW271355   6.701   4.244   6.719 -1.2567  0.8764 -0.6082
23593SOL     OW71356   4.881   7.629   3.790  0.2550 -0.6451  0.6063
23593SOL    HW171357   4.799   7.620   3.741  1.1222 -0.6748 -0.9114
23593SOL    HW271358   4.902   7.539   3.817  0.3530 -0.8115  0.0020
23594SOL     OW71359   7.364   4.938   5.644 -0.1253 -0.1347  0.0153
23594SOL    HW171360   7.367   4.848   5.610  1.6212 -0.1097  0.0115
23594SOL    HW271361   7.389   4.992   5.569  1.4664  0.1122  0.6894
23595SOL     OW71362   2.059   0.413   1.226  0.2277  0.6133  0.1126
23595SOL    HW171363   2.041   0.504   1.204 -0.1605  0.1749 -1.4841
23595SOL    HW271364   1.979   0.366   1.203  0.6468 -0.2236  0.3225
23596SOL     OW71365   9.322   0.158   1.622  0.5822 -0.7290 -0.0706
23596SOL    HW171366   9.237   0.125   1.594 -0.2953  0.1637  1.4072
23596SOL    HW271367   9.308   0.252   1.632  1.7720 -0.5635  0.1190
23597SOL     OW71368   1.485   4.811   7.014  0.1268  0.3922 -0.7463
23597SOL    HW171369   1.528   4.807   7.100 -1.3136 -1.9511 -0.0461
23597SOL    HW271370   1.526   4.886   6.970  1.3548  1.2721  1.7256
23598SOL     OW71371   4.860   4.556   5.727  0.0953  0.0386  0.7238
23598SOL    HW171372   4.905   4.606   5.658  0.1243 -1.2413 -0.2185
23598SOL    HW271373   4.783   4.608   5.748 -0.3582  0.0595 -0.8827
23599SOL     OW71374   5.702   9.150   4.251 -0.2096  0.4543  0.0804
23599SOL    HW171375   5.659   9.184   4.329  0.9613  1.8135  0.1666
23599SOL    HW271376   5.691   9.055   4.257 -0.7156  0.5836  1.5408
23600SOL     OW71377   4.972   9.394   7.460  0.0893 -0.6111  0.1681
23600SOL    HW171378   4.884   9.426   7.482 -0.1799 -0.6502 -0.8250
23600SOL    HW271379   5.028   9.471   7.470 -0.3710 -0.0984 -1.0755
23601SOL     OW71380   2.611   4.047   0.561  0.1997  0.0735  0.1095
23601SOL    HW171381   2.561   4.043   0.480 -0.3102  0.1077  0.4227
23601SOL    HW271382   2.592   4.133   0.597  0.4036  0.0460  0.2869
23602SOL     OW71383   8.165   4.785   5.793 -0.4539 -0.3010  0.1431
23602SOL    HW171384   8.209   4.723   5.851 -1.2088  1.1476  2.3805
23602SOL    HW271385   8.072   4.773   5.813 -0.9205 -1.0370 -2.1539
23603SOL     OW71386   6.874   2.251   0.375  0.0806  0.3446  0.4645
23603SOL    HW171387   6.826   2.198   0.438  1.8629  0.1116  1.6930
23603SOL    HW271388   6.928   2.310   0.428 -0.0068  1.6946 -0.8609
23604SOL     OW71389   8.407   5.090   4.470  0.1183 -0.4326 -0.5136
23604SOL    HW171390   8.444   5.035   4.539 -0.4082 -0.0529  0.0710
23604SOL    HW271391   8.453   5.174   4.479 -1.0244  0.1292  0.3804
23605SOL     OW71392   3.638   4.241   0.809 -0.3735 -1.0633  0.4296
23605SOL    HW171393   3.708   4.209   0.752 -1.3789 -2.3628 -0.1189
23605SOL    HW271394   3.588   4.163   0.832 -2.2426 -0.0570 -0.0107
23606SOL     OW71395   3.926   7.754   5.479  0.4637 -0.2420  0.3726
23606SOL    HW171396   3.967   7.829   5.438 -0.3290 -0.1272 -0.2221
23606SOL    HW271397   3.996   7.689   5.487  0.4608 -0.6163 -2.0075
23607SOL     OW71398   2.377   2.397   6.526  0.2966 -0.4512 -0.3783
23607SOL    HW171399   2.319   2.414   6.452 -0.8884  1.8119  0.9658
23607SOL    HW271400   2.430   2.477   6.534  0.2808 -0.5754  1.3085
23608SOL     OW71401   8.702   7.117   5.526  0.1816  0.2843 -0.0900
23608SOL    HW171402   8.758   7.043   5.550  0.0595  0.2757  0.1737
23608SOL    HW271403   8.692   7.110   5.431  1.4581  0.8697 -0.2893
23609SOL     OW71404   7.065   2.787   1.263 -0.1311  0.3551 -0.3116
23609SOL    HW171405   7.020   2.791   1.178 -0.0941 -2.3136 -0.5429
23609SOL    HW271406   7.051   2.698   1.293 -2.1528  1.7937  3.7183
23610SOL     OW71407   9.136   6.593   0.561 -0.7094 -0.0973 -0.3013
23610SOL    HW171408   9.197   6.665   0.542 -0.9031  0.3089  0.5792
23610SOL    HW271409   9.085   6.624   0.636 -2.2404 -0.2960 -1.2138
23611SOL     OW71410   3.566   2.444   4.113 -0.4155 -0.8501  0.3056
23611SOL    HW171411   3.570   2.539   4.107  0.0991 -0.9185 -3.7277
23611SOL    HW271412   3.619   2.422   4.189  1.0656  2.0243  0.2519
23612SOL     OW71413   6.813   0.301   1.330 -0.1818  0.2635  0.0626
23612SOL    HW171414   6.745   0.317   1.395  1.0367 -1.0424  1.7556
23612SOL    HW271415   6.875   0.373   1.341  0.3145 -0.2614  0.7849
23613SOL     OW71416   8.411   0.281   6.716 -0.5295  0.3885  0.0322
23613SOL    HW171417   8.423   0.369   6.680 -0.1537 -0.4091 -1.9130
23613SOL    HW271418   8.337   0.246   6.668 -0.2500 -0.6064  0.3097
23614SOL     OW71419   2.741   7.469   4.679  0.1991 -0.1359 -0.2943
23614SOL    HW171420   2.782   7.399   4.729  1.6230 -0.2002 -1.4797
23614SOL    HW271421   2.742   7.439   4.588 -1.2497  0.4703 -0.5491
23615SOL     OW71422   4.561   3.922   2.247 -0.8190  0.1619 -0.3526
23615SOL    HW171423   4.581   3.972   2.327 -0.5466 -0.5300  0.0216
23615SOL    HW271424   4.466   3.929   2.238 -1.2140 -1.8521  1.4901
23616SOL     OW71425   6.598   8.047   9.922  0.0469 -0.3731  0.0789
23616SOL    HW171426   6.523   8.071   9.977  0.5585 -0.4507  0.8299
23616SOL    HW271427   6.577   7.959   9.890 -0.8782  0.2044 -0.9816
23617SOL     OW71428   8.651   2.823   9.003  0.2679  0.5018  0.1480
23617SOL    HW171429   8.588   2.895   8.994 -1.1660 -0.8793 -1.6904
23617SOL    HW271430   8.611   2.764   9.066 -0.1641 -0.2502 -0.8200
23618SOL     OW71431   7.594   6.218   2.551 -0.1530  0.4262  0.5228
23618SOL    HW171432   7.610   6.301   2.506 -0.1087 -0.6248 -1.4961
23618SOL    HW271433   7.501   6.220   2.573 -0.0540  1.1896  0.9147
23619SOL     OW71434   2.711   1.907   0.657 -0.4784  0.2366 -0.0336
23619SOL    HW171435   2.786   1.954   0.694  0.2494 -0.9566  0.0673
23619SOL    HW271436   2.644   1.974   0.646  0.4010  1.2259  0.4249
23620SOL     OW71437   1.962   9.111   3.893  0.0917  0.8160 -0.0440
23620SOL    HW171438   1.946   9.179   3.827  0.7235  2.2933  1.2409
23620SOL    HW271439   1.880   9.062   3.897  0.8543 -1.0754 -3.7587
23621SOL     OW71440   3.766   0.642   3.511 -0.0967  0.3687 -0.3449
23621SOL    HW171441   3.806   0.572   3.563 -1.0493  1.9596  2.7425
23621SOL    HW271442   3.700   0.598   3.458 -1.3633 -1.0483  2.2432
23622SOL     OW71443   6.496   7.338   3.572  0.1195 -0.0291  0.4455
23622SOL    HW171444   6.581   7.367   3.605  0.4571  1.7260 -1.7026
23622SOL    HW271445   6.497   7.243   3.585  3.0016 -0.2636 -0.6325
23623SOL     OW71446   8.468   6.832   9.312  0.6163  0.2956  0.2279
23623SOL    HW171447   8.395   6.784   9.271 -0.3608  1.1918  0.8664
23623SOL    HW271448   8.491   6.778   9.388 -0.0641  0.4823  0.5860
23624SOL     OW71449   8.816   5.769   8.824 -0.0225 -0.2613  0.2696
23624SOL    HW171450   8.791   5.860   8.836 -1.8106 -0.8204  1.0954
23624SOL    HW271451   8.911   5.772   8.809  0.1320  1.6491  1.3065
23625SOL     OW71452   2.793   6.389   8.905  0.2607  0.7462  0.2721
23625SOL    HW171453   2.765   6.467   8.857 -0.9863 -0.7397 -1.5977
23625SOL    HW271454   2.864   6.353   8.852 -1.5747 -1.2875 -1.0431
23626SOL     OW71455   5.765   1.171   7.207 -0.2314  0.0611  0.0571
23626SOL    HW171456   5.720   1.188   7.290  0.2299 -0.0329  0.3268
23626SOL    HW271457   5.857   1.187   7.225 -0.2573  1.2483 -0.7664
23627SOL     OW71458   7.311   1.312   2.519  0.5866 -0.1170  0.3764
23627SOL    HW171459   7.371   1.250   2.562  0.1099 -1.1667 -0.4073
23627SOL    HW271460   7.259   1.348   2.591  0.3814 -1.1878  0.7859
23628SOL     OW71461   2.077   1.757   7.146  0.3044 -0.3550 -0.6189
23628SOL    HW171462   2.151   1.756   7.206 -0.3992 -0.7378  0.2847
23628SOL    HW271463   2.040   1.668   7.153 -1.3412  0.3686  0.3895
23629SOL     OW71464   7.503   3.380   4.430  1.0385 -0.3396 -0.2303
23629SOL    HW171465   7.489   3.321   4.356 -1.0754 -1.8576  1.2477
23629SOL    HW271466   7.415   3.408   4.455  1.8361  1.6263  0.5860
23630SOL     OW71467   5.524   1.440   9.242  0.2826 -0.2308  0.2043
23630SOL    HW171468   5.470   1.371   9.281 -2.1823  1.0123 -0.8300
23630SOL    HW271469   5.477   1.467   9.164  2.5302  0.8558 -0.8785
23631SOL     OW71470   5.976   6.572   3.046  0.0754  0.0294  0.1528
23631SOL    HW171471   5.988   6.637   3.115 -0.5455 -0.6246  0.8833
23631SOL    HW271472   5.932   6.621   2.975  0.7350  0.7013  0.1992
23632SOL     OW71473   5.119   7.581   9.829  0.3769  0.4651 -0.5499
23632SOL    HW171474   5.080   7.668   9.821 -2.0424 -0.5305 -0.5663
23632SOL    HW271475   5.164   7.566   9.745  2.0874  2.2013 -0.0014
23633SOL     OW71476   9.666   5.410   4.862  0.1161 -0.2933 -0.4102
23633SOL    HW171477   9.725   5.482   4.841 -0.4661  0.4017  0.2903
23633SOL    HW271478   9.613   5.399   4.782 -1.6543  1.9182  0.3573
23634SOL     OW71479   9.832   6.282   5.064  0.2134 -0.5658 -0.1554
23634SOL    HW171480   9.797   6.365   5.032 -1.7377 -1.8851 -1.7197
23634SOL    HW271481   9.922   6.279   5.031 -0.2205  0.2238 -1.4736
23635SOL     OW71482   7.849   8.189   1.987  0.5847 -0.3996  0.4400
23635SOL    HW171483   7.761   8.173   2.021  0.3079 -1.7450 -0.8121
23635SOL    HW271484   7.899   8.111   2.011  1.7075  0.6703  1.8231
23636SOL     OW71485   8.078   7.097   4.906 -0.6968  0.1383 -0.2425
23636SOL    HW171486   8.030   7.046   4.971  1.7005  0.1199  1.6552
23636SOL    HW271487   8.038   7.184   4.909 -0.8013  0.0673  1.1041
23637SOL     OW71488   1.923   3.684   3.797 -0.4495 -0.5908 -0.0038
23637SOL    HW171489   1.962   3.637   3.871 -0.4925 -1.2253 -0.3705
23637SOL    HW271490   1.990   3.678   3.728 -0.2344  0.3547  0.1048
23638SOL     OW71491   6.806   4.292   2.361 -0.0845 -0.2088 -0.0757
23638SOL    HW171492   6.887   4.325   2.398 -0.1349 -0.4779  0.2714
23638SOL    HW271493   6.812   4.314   2.268 -0.6886  2.0042  0.3362
23639SOL     OW71494   4.375   9.014   6.616  0.4880 -0.2042 -0.4572
23639SOL    HW171495   4.400   8.955   6.544  0.6302 -0.2248 -0.3904
23639SOL    HW271496   4.289   8.983   6.642  0.2788  0.0284 -0.8567
23640SOL     OW71497   6.768   1.552   0.070  0.1082 -0.2825 -0.3646
23640SOL    HW171498   6.710   1.617   0.031 -1.1881 -0.8238  0.5851
23640SOL    HW271499   6.738   1.468   0.035  2.0035 -0.3918 -1.8695
23641SOL     OW71500   9.772   5.365   1.469  0.0113  0.2254  0.4058
23641SOL    HW171501   9.703   5.298   1.465 -1.5310  1.7857 -0.2332
23641SOL    HW271502   9.752   5.425   1.397  2.2718  0.5526 -0.0199
23642SOL     OW71503   9.577   1.894   5.296  0.2574 -0.3154 -0.4682
23642SOL    HW171504   9.636   1.938   5.356  0.1623 -0.0394 -0.5742
23642SOL    HW271505   9.532   1.828   5.349 -0.5149  0.5515 -0.0188
23643SOL     OW71506   4.385   5.616   3.464 -0.0222 -1.0177 -0.1800
23643SOL    HW171507   4.404   5.536   3.514 -0.2676 -0.5340  0.7169
23643SOL    HW271508   4.470   5.660   3.458 -0.1173 -0.7299  0.4571
23644SOL     OW71509   0.717   1.405   3.968 -0.0496 -0.3359  0.6581
23644SOL    HW171510   0.633   1.409   3.922 -0.2292 -0.4484  0.9722
23644SOL    HW271511   0.754   1.493   3.958 -0.2300 -0.2701  0.5658
23645SOL     OW71512   8.129   4.744   8.219  0.5589  0.0978 -0.0604
23645SOL    HW171513   8.177   4.750   8.301  0.6243  0.1312 -0.1005
23645SOL    HW271514   8.197   4.738   8.152  0.5044 -0.2926 -0.0861
23646SOL     OW71515   6.556   4.350   0.294  0.2534 -0.5766  0.4305
23646SOL    HW171516   6.572   4.399   0.375 -1.4139  0.4949  0.1614
23646SOL    HW271517   6.602   4.267   0.307 -0.8436 -0.8891  2.9529
23647SOL     OW71518   0.764   8.290   0.796 -0.3161 -0.1312  0.2835
23647SOL    HW171519   0.679   8.255   0.772 -0.2010  0.2745 -0.7691
23647SOL    HW271520   0.746   8.351   0.868 -0.8304 -0.4651  0.4401
23648SOL     OW71521   6.849   3.497   3.774  0.0764  0.1315  0.0123
23648SOL    HW171522   6.893   3.581   3.788  0.4582 -0.4893  3.4060
23648SOL    HW271523   6.921   3.434   3.768 -0.2592 -0.2059 -0.5802
23649SOL     OW71524   6.001   2.000   6.655 -0.2278 -0.5861 -0.7364
23649SOL    HW171525   5.924   2.039   6.614  0.1914 -1.5363 -2.4894
23649SOL    HW271526   6.003   1.910   6.624  0.7974 -1.0005  0.4405
23650SOL     OW71527   2.232   0.205   7.084 -0.1995  0.4591  0.7127
23650SOL    HW171528   2.224   0.147   7.008 -1.1319  0.7700  0.5616
23650SOL    HW271529   2.221   0.293   7.048  0.5783  0.7003  1.0364
23651SOL     OW71530   2.619   0.302   0.492  0.4523  0.2383  0.1796
23651SOL    HW171531   2.621   0.323   0.399  2.1800  1.6380  0.4715
23651SOL    HW271532   2.710   0.309   0.520 -0.0295 -0.1384  1.9846
23652SOL     OW71533   3.323   3.003   4.400 -0.5303  0.9098  0.0946
23652SOL    HW171534   3.229   2.988   4.410 -0.2982 -0.1928  0.7864
23652SOL    HW271535   3.343   3.073   4.461 -1.1390  2.2218 -1.1387
23653SOL     OW71536   4.343   0.621   9.819 -0.1169  0.5345  0.2662
23653SOL    HW171537   4.338   0.562   9.744 -0.0766 -0.0189  0.6910
23653SOL    HW271538   4.406   0.688   9.793  0.8237 -0.3233  0.2524
23654SOL     OW71539   3.415   2.495   1.733  0.3752  0.3332 -0.1204
23654SOL    HW171540   3.421   2.460   1.644  1.5228 -0.1048  0.1117
23654SOL    HW271541   3.386   2.422   1.787 -1.3482  0.8590 -0.2580
23655SOL     OW71542   1.439   7.506   7.353  0.5440  0.4384  0.4917
23655SOL    HW171543   1.488   7.553   7.420 -1.0964  0.8337  1.4666
23655SOL    HW271544   1.471   7.542   7.270  3.7285 -1.1525  0.8834
23656SOL     OW71545   0.869   5.013   7.073  0.3492  0.1798 -0.5328
23656SOL    HW171546   0.790   4.992   7.023  0.2700  2.4379 -1.4585
23656SOL    HW271547   0.933   4.948   7.043  0.1947  1.2007 -3.3839
23657SOL     OW71548   8.876   3.162   4.124 -0.3407 -0.0489  0.7136
23657SOL    HW171549   8.927   3.131   4.049 -1.9034 -0.8030 -0.0864
23657SOL    HW271550   8.816   3.227   4.086 -1.6688 -0.9832  1.1465
23658SOL     OW71551   1.329   1.073   7.616  0.6125  0.1288 -0.6032
23658SOL    HW171552   1.418   1.080   7.651  1.0052 -0.3225 -1.4862
23658SOL    HW271553   1.311   1.160   7.580  1.1774 -0.1186 -1.5191
23659SOL     OW71554   1.208   7.642   1.325  0.3152 -0.5479 -0.1253
23659SOL    HW171555   1.272   7.640   1.396  0.4157 -1.0261 -0.2262
23659SOL    HW271556   1.134   7.590   1.358 -0.2509  0.4206  0.1961
23660SOL     OW71557   3.654   4.141   0.513  0.5346 -0.0949 -0.3859
23660SOL    HW171558   3.581   4.174   0.565  0.0609 -1.4798 -0.1322
23660SOL    HW271559   3.615   4.074   0.456  1.2286  0.6762 -1.8098
23661SOL     OW71560   7.132   3.024   3.061 -0.1094 -0.5706  0.0368
23661SOL    HW171561   7.182   2.964   3.005  0.2049 -0.7198  0.4703
23661SOL    HW271562   7.055   2.974   3.087  0.5229 -1.0672  1.0101
23662SOL     OW71563   8.494   0.809   7.487  0.1511  0.1115  0.1414
23662SOL    HW171564   8.482   0.804   7.582 -1.0065  1.2472  0.0869
23662SOL    HW271565   8.411   0.780   7.451  0.2737  0.5554 -0.5071
23663SOL     OW71566   0.034   6.040   6.454  0.0901 -0.2157  0.1380
23663SOL    HW171567   0.024   5.952   6.492  2.2879  0.3496  2.2875
23663SOL    HW271568  -0.004   6.099   6.519 -0.1615  0.5086 -0.6552
23664SOL     OW71569   0.528   4.851   0.211  0.1177  0.7905 -0.0399
23664SOL    HW171570   0.576   4.933   0.222 -0.1012  0.8698  0.3546
23664SOL    HW271571   0.534   4.807   0.296 -2.6374  1.9848  0.9181
23665SOL     OW71572   0.136   6.607   5.248  0.0063 -0.6571 -0.0947
23665SOL    HW171573   0.089   6.690   5.236  0.2346 -0.3976  0.7647
23665SOL    HW271574   0.103   6.552   5.177 -0.2358  0.1235 -0.6143
23666SOL     OW71575   3.156   9.876   5.253 -0.0419  0.3338  0.1297
23666SOL    HW171576   3.089   9.904   5.191 -1.0064 -1.4457  0.3296
23666SOL    HW271577   3.141   9.930   5.330  0.5344  1.8609 -0.7788
23667SOL     OW71578   6.768   4.711   0.057 -0.4977 -0.0813  0.0501
23667SOL    HW171579   6.858   4.729   0.030 -0.6450  0.6622  0.0596
23667SOL    HW271580   6.741   4.637   0.002 -0.0606  0.0315 -0.3185
23668SOL     OW71581   3.429   9.706   5.223 -0.6676 -0.1526 -0.4800
23668SOL    HW171582   3.398   9.624   5.186 -1.0651 -0.8300  1.2993
23668SOL    HW271583   3.350   9.754   5.245 -0.4336  0.0812 -0.1412
23669SOL     OW71584   8.593   6.953   1.769 -0.1216 -0.4571  0.1554
23669SOL    HW171585   8.514   6.980   1.816 -1.2194 -2.1537 -0.5861
23669SOL    HW271586   8.571   6.866   1.735  1.3085 -0.1038 -1.8461
23670SOL     OW71587   1.893   3.559   7.003  0.0081  0.0222  0.1506
23670SOL    HW171588   1.911   3.497   6.932  0.2334 -1.0278  1.1030
23670SOL    HW271589   1.978   3.577   7.041 -0.1131  0.5955  0.1572
23671SOL     OW71590   9.029   3.556   8.722 -0.2437 -0.1800 -0.2841
23671SOL    HW171591   8.938   3.525   8.715 -0.7098  1.1033 -0.2485
23671SOL    HW271592   9.037   3.584   8.813  0.4509 -1.0058 -0.0792
23672SOL     OW71593   2.781   8.363   8.792 -0.1430 -0.3685  0.3730
23672SOL    HW171594   2.817   8.446   8.759 -1.3718 -0.1744 -0.5216
23672SOL    HW271595   2.711   8.390   8.852 -1.3371 -0.7416 -0.8197
23673SOL     OW71596   3.663   7.610   2.783 -0.2324 -0.7329  0.2402
23673SOL    HW171597   3.610   7.678   2.822 -2.5617 -1.5507 -1.2918
23673SOL    HW271598   3.742   7.654   2.754 -0.6384  0.8087  1.3797
23674SOL     OW71599   6.121   8.641   8.453  0.0723  0.0749  0.3198
23674SOL    HW171600   6.211   8.637   8.485 -0.2598  2.0112  1.6517
23674SOL    HW271601   6.129   8.638   8.358  1.7818  2.6671  0.2878
23675SOL     OW71602   9.890   6.274   4.734 -0.1952 -0.3410  0.2669
23675SOL    HW171603   9.946   6.252   4.660  0.8846 -0.4608  1.0933
23675SOL    HW271604   9.951   6.291   4.806 -1.2327 -0.8437  1.2969
23676SOL     OW71605   1.112   0.135   1.146  0.6922 -0.4426  0.0927
23676SOL    HW171606   1.160   0.152   1.227  0.6165  2.7606 -0.4208
23676SOL    HW271607   1.020   0.138   1.172  0.6508  1.1068 -0.1128
23677SOL     OW71608   1.926   9.794   4.065  0.2530  0.1201 -0.5897
23677SOL    HW171609   1.874   9.862   4.024  0.4429  1.0786  0.6881
23677SOL    HW271610   2.005   9.838   4.096  0.6296 -0.7791 -0.2131
23678SOL     OW71611   1.798   7.024   4.027 -0.4540  0.0975  0.3609
23678SOL    HW171612   1.798   7.107   4.075  0.5305  1.1483 -1.3546
23678SOL    HW271613   1.883   6.985   4.046 -1.4563 -1.3241  2.3477
23679SOL     OW71614   9.194   5.412   0.246 -0.3583 -0.1840  0.0868
23679SOL    HW171615   9.275   5.365   0.265 -0.2728  0.2782  0.8887
23679SOL    HW271616   9.199   5.431   0.152 -0.2717 -1.5225 -0.2030
23680SOL     OW71617   9.645   3.806   9.282  0.3133  0.1328  0.2140
23680SOL    HW171618   9.593   3.746   9.336  1.6024  0.1980  1.5914
23680SOL    HW271619   9.662   3.757   9.201 -0.1774 -0.6414  0.5683
23681SOL     OW71620   4.782   4.684   8.321  0.2648  0.7534  0.1915
23681SOL    HW171621   4.769   4.738   8.399  0.0380  0.6384  0.2345
23681SOL    HW271622   4.872   4.702   8.294  0.5521  0.3146  0.8416
23682SOL     OW71623   6.642   5.301   4.213 -0.3218  0.3636  0.1124
23682SOL    HW171624   6.599   5.303   4.299 -1.9036  0.9297 -0.6565
23682SOL    HW271625   6.610   5.379   4.169  1.5321  0.8018 -0.5237
23683SOL     OW71626   9.061   3.586   8.997 -0.2750 -0.4143  0.2798
23683SOL    HW171627   9.047   3.575   9.091  0.0981 -1.2866  0.2413
23683SOL    HW271628   9.096   3.675   8.988  0.2688 -0.5450  1.0271
23684SOL     OW71629   9.747   3.243   4.905  0.5364  0.1649  0.1012
23684SOL    HW171630   9.661   3.242   4.945  0.0050  0.9143 -0.9612
23684SOL    HW271631   9.793   3.168   4.943 -0.6016 -0.2820  0.6267
23685SOL     OW71632   2.108   2.971   0.051 -0.0387  0.0243  0.4627
23685SOL    HW171633   2.188   2.984   0.102  0.1809 -0.2618  0.1933
23685SOL    HW271634   2.125   3.015  -0.032 -0.8397  1.5309  1.0438
23686SOL     OW71635   5.769   0.765   8.525  0.1205  0.0231 -0.2971
23686SOL    HW171636   5.735   0.738   8.440 -0.1055  0.3641 -0.3178
23686SOL    HW271637   5.829   0.696   8.550 -0.0736 -0.2487 -0.5777
23687SOL     OW71638   7.035   6.501   1.055  0.0315 -0.3823 -0.1851
23687SOL    HW171639   6.970   6.461   0.998 -0.6480 -0.4483  0.6175
23687SOL    HW271640   7.042   6.441   1.129  1.3587 -0.6124 -0.4720
23688SOL     OW71641   6.215   9.379   5.483  0.1382 -0.7116  0.0667
23688SOL    HW171642   6.145   9.442   5.471  0.5869 -0.2865 -0.3959
23688SOL    HW271643   6.289   9.431   5.514  0.9402 -0.7486 -1.6624
23689SOL     OW71644   1.608   4.211   8.914 -0.2233 -0.2548 -0.4670
23689SOL    HW171645   1.677   4.252   8.966 -0.8721  0.4675 -0.1531
23689SOL    HW271646   1.558   4.160   8.978 -2.3226  2.3351  0.1011
23690SOL     OW71647   2.837   9.364   5.429  0.1365  0.3869  0.1737
23690SOL    HW171648   2.752   9.407   5.422 -0.0505  0.2855  1.5981
23690SOL    HW271649   2.816   9.271   5.436  0.4973  0.1012 -1.7787
23691SOL     OW71650   1.046   7.780   0.002  0.1665  0.2766 -0.4759
23691SOL    HW171651   1.046   7.697   0.048  1.2857  0.3549 -0.3084
23691SOL    HW271652   0.978   7.832   0.045 -0.5343 -0.5368 -0.5791
23692SOL     OW71653   8.643   6.946   2.594 -0.2814 -0.2677  0.0316
23692SOL    HW171654   8.600   7.032   2.601 -0.8126 -0.5336  0.0837
23692SOL    HW271655   8.638   6.910   2.683  0.2156 -0.2240  0.0782
23693SOL     OW71656   8.242   2.998   7.687  0.5024 -0.1576 -0.4474
23693SOL    HW171657   8.280   3.060   7.749 -1.5252  2.1516 -1.3282
23693SOL    HW271658   8.289   3.015   7.605  0.8607 -0.7575 -0.3661
23694SOL     OW71659   7.419   2.841   8.219  0.4624 -0.1338  0.1375
23694SOL    HW171660   7.384   2.889   8.144  0.9895 -0.5299 -0.3744
23694SOL    HW271661   7.452   2.909   8.278 -0.9567  0.2421  0.5479
23695SOL     OW71662   9.028   4.026   3.367 -0.1620 -0.1705  0.1960
23695SOL    HW171663   9.079   4.026   3.287  0.2942 -0.4276  0.4845
23695SOL    HW271664   9.003   4.118   3.380  1.8368  0.3016  1.0653
23696SOL     OW71665   6.734   7.836   5.385  0.0911 -0.3647  0.1479
23696SOL    HW171666   6.810   7.892   5.367  0.5348 -1.6861 -2.7620
23696SOL    HW271667   6.773   7.755   5.418 -0.3267  0.0079  1.5926
23697SOL     OW71668   5.058   9.937   6.696 -0.0561 -0.1050  0.0119
23697SOL    HW171669   4.985   9.995   6.675 -0.5469 -0.9199 -0.5601
23697SOL    HW271670   5.037   9.904   6.784 -0.2996 -0.2112 -0.0843
23698SOL     OW71671   3.099   6.631   4.303  0.2144 -0.4536  0.0181
23698SOL    HW171672   3.088   6.594   4.215 -2.8503 -0.4113  0.3006
23698SOL    HW271673   3.085   6.725   4.292 -1.8434 -0.6351  0.7388
23699SOL     OW71674   2.693   3.796   0.452  0.1290  0.1222 -0.0955
23699SOL    HW171675   2.644   3.876   0.474  2.6488  1.7276  0.1209
23699SOL    HW271676   2.652   3.728   0.504  0.6875  2.2048  3.4459
23700SOL     OW71677   1.966   5.954   4.188 -0.5550 -0.6727  0.3392
23700SOL    HW171678   1.916   5.915   4.116 -1.3925  3.3849 -1.5803
23700SOL    HW271679   2.042   5.994   4.146 -0.2358  0.5119  1.9316
23701SOL     OW71680   3.494   6.921   3.393  0.2598  0.1361 -0.0014
23701SOL    HW171681   3.455   6.884   3.314  0.2792 -0.5690  0.3202
23701SOL    HW271682   3.534   6.847   3.438  0.1894  0.5227  0.7113
23702SOL     OW71683   2.371   3.562   7.691  0.1014 -0.2870 -0.2840
23702SOL    HW171684   2.428   3.510   7.747  0.8611  2.7739  2.0951
23702SOL    HW271685   2.282   3.534   7.714  0.4614 -2.3778 -1.1818
23703SOL     OW71686   2.919   1.999   4.177  0.0495  0.0881 -0.1195
23703SOL    HW171687   2.847   2.027   4.233  0.1851  1.4371 -0.5827
23703SOL    HW271688   2.998   2.028   4.224  0.3142 -1.2888  0.3392
23704SOL     OW71689   4.877   0.446   4.959 -0.2307 -0.1476 -0.0042
23704SOL    HW171690   4.936   0.479   4.891 -0.3653  0.2384  0.0608
23704SOL    HW271691   4.856   0.357   4.932  1.7090 -0.9091  0.8531
23705SOL     OW71692   0.151   5.093   2.330 -0.1146 -0.1053 -0.0460
23705SOL    HW171693   0.091   5.166   2.321  1.0313  1.2341  2.3427
23705SOL    HW271694   0.197   5.109   2.413  1.4073 -2.6236 -0.2951
23706SOL     OW71695   6.914   1.690   7.135 -0.1226  0.0575  0.2098
23706SOL    HW171696   6.872   1.730   7.211  1.3893 -0.7664  1.5294
23706SOL    HW271697   6.871   1.731   7.060 -0.3289  2.3450  1.4945
23707SOL     OW71698   2.290   3.360   4.304  0.4138 -0.0882  0.2434
23707SOL    HW171699   2.224   3.299   4.270 -0.6215  1.1267 -0.0425
23707SOL    HW271700   2.278   3.359   4.398  0.0843  0.0140  0.2033
23708SOL     OW71701   1.703   8.482   8.564  0.2968  0.0016  0.5454
23708SOL    HW171702   1.791   8.473   8.526  0.3326 -1.2431  0.8919
23708SOL    HW271703   1.711   8.557   8.623  0.5335  1.2647 -1.0161
23709SOL     OW71704   3.433   8.625   3.915  0.7264 -0.3420 -0.6573
23709SOL    HW171705   3.385   8.694   3.870 -0.9709 -0.5190  0.7729
23709SOL    HW271706   3.497   8.671   3.969  1.2491 -0.0288 -1.5334
23710SOL     OW71707   9.614   4.000   7.451 -0.0851  0.2690  0.5376
23710SOL    HW171708   9.625   4.086   7.492  1.1531 -0.4056  1.6847
23710SOL    HW271709   9.556   3.952   7.511  0.7929 -0.3253  0.9437
23711SOL     OW71710   5.843   2.583   4.353  0.9326  0.3218  1.0321
23711SOL    HW171711   5.905   2.574   4.281 -0.6397 -2.0522 -0.1580
23711SOL    HW271712   5.896   2.612   4.428  2.6079  2.9707 -0.9999
23712SOL     OW71713   5.252   2.571   7.443  0.1757  0.2972  0.0283
23712SOL    HW171714   5.246   2.657   7.485  1.7079 -0.6380  2.3500
23712SOL    HW271715   5.337   2.572   7.399 -0.4571  0.4638 -1.2402
23713SOL     OW71716   7.914   2.820   4.783  0.1784 -0.0020 -0.1521
23713SOL    HW171717   7.824   2.852   4.788 -0.3867 -1.2665 -1.6147
23713SOL    HW271718   7.966   2.898   4.764 -0.4936  0.8329  1.2007
23714SOL     OW71719   9.483   4.972   8.629  0.4585  0.5090  0.1597
23714SOL    HW171720   9.508   5.012   8.545 -2.2629  2.3179  0.1081
23714SOL    HW271721   9.488   5.043   8.692 -0.9028  0.0610  0.8111
23715SOL     OW71722   4.003   6.053   0.173  0.0337  0.2417 -0.3231
23715SOL    HW171723   3.932   6.095   0.222  1.4775  1.9211  0.4268
23715SOL    HW271724   4.037   6.122   0.116  3.8248  0.9295  2.3831
23716SOL     OW71725   1.501   8.126   3.166  0.0590  0.1243  0.1727
23716SOL    HW171726   1.434   8.062   3.144  0.0572  0.2735 -0.2508
23716SOL    HW271727   1.503   8.187   3.092  1.9800 -0.9393 -0.7320
23717SOL     OW71728   6.426   2.114   7.497  0.1064 -0.6368  0.5592
23717SOL    HW171729   6.517   2.130   7.473  0.5293 -1.9755  1.1698
23717SOL    HW271730   6.403   2.033   7.452 -1.4121  0.6496 -1.1167
23718SOL     OW71731   4.833   2.702   8.636 -0.4201 -0.5339 -0.2626
23718SOL    HW171732   4.784   2.770   8.682 -0.6958  0.0502 -1.3855
23718SOL    HW271733   4.898   2.750   8.585 -2.2495 -0.8103 -3.1186
23719SOL     OW71734   0.675   3.179   3.203  0.1891 -0.7449 -0.0608
23719SOL    HW171735   0.632   3.165   3.118 -0.8522  2.5632 -0.2353
23719SOL    HW271736   0.627   3.123   3.264 -0.6001 -1.4054 -1.2448
23720SOL     OW71737   3.364   5.348   6.657 -0.1745  0.6581  0.4247
23720SOL    HW171738   3.394   5.388   6.738  1.1935  3.7352 -1.4066
23720SOL    HW271739   3.436   5.291   6.630 -0.2778  0.2754  0.9518
23721SOL     OW71740   4.302   6.250   5.770 -0.1395 -0.0198  0.1995
23721SOL    HW171741   4.249   6.188   5.820  0.3489 -0.5698  0.0301
23721SOL    HW271742   4.238   6.316   5.740 -0.4065  0.4787  1.7521
23722SOL     OW71743   2.757   1.219   0.253  0.2619 -0.2131  0.2521
23722SOL    HW171744   2.772   1.204   0.159  1.0783  1.2745  0.1202
23722SOL    HW271745   2.842   1.208   0.294  0.5270  1.8745  0.3970
23723SOL     OW71746   7.540   2.238   1.309  0.4074  0.0818 -0.0043
23723SOL    HW171747   7.477   2.196   1.251 -0.4426 -0.4632  1.2752
23723SOL    HW271748   7.570   2.314   1.260  0.2695 -0.7471 -1.4461
23724SOL     OW71749   7.860   0.106   5.412 -0.4623  0.5276 -0.2983
23724SOL    HW171750   7.902   0.129   5.329 -1.1165  1.9373 -0.2768
23724SOL    HW271751   7.793   0.042   5.388  1.3774 -1.4833 -0.3811
23725SOL     OW71752   1.279   2.091   3.669 -0.1807  0.0199  0.3767
23725SOL    HW171753   1.192   2.072   3.635 -1.1712  0.7687  2.3018
23725SOL    HW271754   1.274   2.183   3.698  0.5701 -0.4967  2.3192
23726SOL     OW71755   5.759   4.751   0.249  0.0174 -0.3128  0.0689
23726SOL    HW171756   5.699   4.700   0.195  0.9304 -2.1159  0.6970
23726SOL    HW271757   5.845   4.732   0.213  0.3872  0.7530  0.3721
23727SOL     OW71758   2.357   2.725   0.771  0.4983 -0.2038 -0.4260
23727SOL    HW171759   2.337   2.757   0.859  1.2665 -0.0649 -0.2942
23727SOL    HW271760   2.278   2.742   0.720  0.7493  1.6393 -0.2793
23728SOL     OW71761   5.326   3.680   9.368 -0.6211 -0.1897  0.5277
23728SOL    HW171762   5.419   3.664   9.354 -0.0864  2.0330  1.1742
23728SOL    HW271763   5.288   3.678   9.280  0.2810  0.1267  0.1159
23729SOL     OW71764   5.461   7.454   1.419 -0.2759  0.1212 -0.5418
23729SOL    HW171765   5.509   7.507   1.355 -0.1354 -1.2967 -1.6665
23729SOL    HW271766   5.443   7.514   1.491  1.8577  1.0929 -0.7509
23730SOL     OW71767   7.578   7.586   9.708 -0.0642 -0.2086  0.0851
23730SOL    HW171768   7.488   7.591   9.675 -0.1864 -3.5404 -0.3884
23730SOL    HW271769   7.632   7.619   9.636 -0.7847  0.7075 -0.0668
23731SOL     OW71770   1.747   6.688   0.769  0.5008  0.3261 -0.4894
23731SOL    HW171771   1.652   6.684   0.758  0.3788  1.0764  0.1904
23731SOL    HW271772   1.778   6.738   0.693  0.4060 -0.2780 -0.9332
23732SOL     OW71773   4.003   2.767   1.124  0.2004 -0.3007  0.4011
23732SOL    HW171774   3.911   2.768   1.152  0.4112 -0.0623  1.1197
23732SOL    HW271775   4.051   2.743   1.204  0.7630 -0.4210  0.0298
23733SOL     OW71776   4.689   0.794   6.092  0.0479 -0.2226 -0.2502
23733SOL    HW171777   4.632   0.870   6.082  0.7732  0.3366 -0.2093
23733SOL    HW271778   4.636   0.720   6.062 -0.6568  0.2957 -0.3116
23734SOL     OW71779   0.507   3.709   9.384  0.0664 -0.6811 -0.2843
23734SOL    HW171780   0.529   3.722   9.476 -0.1439  0.4800 -0.3893
23734SOL    HW271781   0.501   3.797   9.348 -1.7865 -1.0479 -0.9677
23735SOL     OW71782   5.274   0.613   1.519  0.4432  0.4484  0.1758
23735SOL    HW171783   5.219   0.685   1.551  0.0525  0.5082 -0.6137
23735SOL    HW271784   5.214   0.539   1.508  0.5150  0.5019 -0.6546
23736SOL     OW71785   3.373   5.635   5.970 -0.1357  0.5042  0.4696
23736SOL    HW171786   3.338   5.707   5.917  1.2691  0.1592 -0.9851
23736SOL    HW271787   3.439   5.676   6.025 -0.1759  0.5234  0.5037
23737SOL     OW71788   9.804   4.619   1.890  0.0880  0.2532 -0.0348
23737SOL    HW171789   9.731   4.643   1.833  1.4841 -1.2936 -2.6392
23737SOL    HW271790   9.850   4.701   1.907 -0.9727  0.8993 -0.1768
23738SOL     OW71791   5.519   4.034   8.194 -0.0530 -0.1739 -0.3320
23738SOL    HW171792   5.524   4.124   8.161 -0.8620 -1.1084 -3.3151
23738SOL    HW271793   5.433   4.028   8.235 -1.3193 -0.3027 -2.8250
23739SOL     OW71794   1.696   5.411   8.542  0.8368  0.2157  0.3740
23739SOL    HW171795   1.604   5.386   8.537  1.4106 -1.8608 -0.9493
23739SOL    HW271796   1.711   5.464   8.464  1.1039 -0.7787 -0.2660
23740SOL     OW71797   9.907   8.483   4.961 -0.7186  0.2440 -0.3044
23740SOL    HW171798   9.980   8.536   4.929  0.4014  0.4603  2.3095
23740SOL    HW271799   9.899   8.507   5.054 -2.6866 -1.3930  0.0284
23741SOL     OW71800   8.441   1.998   5.322 -0.3181  0.4848 -0.2600
23741SOL    HW171801   8.389   2.063   5.368  1.9809  0.9903  1.8101
23741SOL    HW271802   8.408   1.914   5.354  0.0975  0.7959  1.0493
23742SOL     OW71803   4.311   5.617   6.620  0.3468 -0.6628  0.3334
23742SOL    HW171804   4.310   5.675   6.544 -0.5135 -0.1367  0.7206
23742SOL    HW271805   4.374   5.549   6.598 -1.5598 -1.8675 -1.8637
23743SOL     OW71806   7.443   2.102   5.440  0.3651 -0.1787 -0.2834
23743SOL    HW171807   7.404   2.140   5.519  1.5973 -1.4209  0.9755
23743SOL    HW271808   7.374   2.047   5.403  0.0009 -0.1477  0.3348
23744SOL     OW71809   4.240   8.298   7.988  0.4773 -0.1385 -0.5739
23744SOL    HW171810   4.152   8.286   8.025  0.6758  0.8732  0.2718
23744SOL    HW271811   4.287   8.348   8.054  1.6622 -0.5547 -1.0808
23745SOL     OW71812   4.657   0.510   3.165  0.3860 -0.3963  0.0769
23745SOL    HW171813   4.737   0.555   3.193  1.0630 -3.0863  3.1147
23745SOL    HW271814   4.684   0.455   3.092  1.2599 -0.9814  0.8180
23746SOL     OW71815   2.412   0.337   3.855  0.4543  0.7076  0.2047
23746SOL    HW171816   2.336   0.391   3.835  0.0217  0.1198  0.2547
23746SOL    HW271817   2.485   0.399   3.860 -0.2328  1.4607  1.4597
23747SOL     OW71818   3.271   9.374   9.875 -0.0566  0.2863 -0.4895
23747SOL    HW171819   3.207   9.323   9.925  0.4402  0.3478  0.2303
23747SOL    HW271820   3.252   9.465   9.900  0.5953  0.2730  0.0856
23748SOL     OW71821   5.419   6.099   5.130  0.1415  0.7326  0.0334
23748SOL    HW171822   5.436   6.114   5.223 -0.3075  0.2280  0.2023
23748SOL    HW271823   5.501   6.123   5.086  0.0862  1.7785  0.4685
23749SOL     OW71824   9.826   6.664   4.745  0.4111 -0.0571  0.1900
23749SOL    HW171825   9.746   6.618   4.721 -0.3783  0.7289  1.2123
23749SOL    HW271826   9.897   6.612   4.707 -0.3476 -2.7301  2.1757
23750SOL     OW71827   9.922   3.588   2.541 -0.2596  0.4616  0.6758
23750SOL    HW171828  10.012   3.608   2.516  0.2978 -2.3441  0.1238
23750SOL    HW271829   9.886   3.672   2.570  2.3067  1.7911  0.2940
23751SOL     OW71830   9.931   1.025   6.372 -0.7001  0.1937  0.3015
23751SOL    HW171831   9.862   0.989   6.315  0.0458 -1.0349  0.1308
23751SOL    HW271832   9.966   1.099   6.323  0.4861 -1.3408 -1.2766
23752SOL     OW71833   4.735   0.924   7.647  0.5594 -0.6348 -0.3110
23752SOL    HW171834   4.680   0.912   7.724  0.3979  0.5793 -0.2177
23752SOL    HW271835   4.787   0.844   7.642  1.1945 -0.3895  1.5593
23753SOL     OW71836   4.717   2.804   7.915  0.2239 -0.4791 -0.2646
23753SOL    HW171837   4.698   2.778   8.005 -0.9444  0.5123 -0.1974
23753SOL    HW271838   4.798   2.757   7.893  0.7117 -0.4920  1.3991
23754SOL     OW71839   0.387   0.146   9.776  0.3819 -0.3370 -0.4616
23754SOL    HW171840   0.394   0.050   9.770 -1.7243 -0.5870  0.2040
23754SOL    HW271841   0.301   0.166   9.740  1.0727  1.4159 -1.2534
23755SOL     OW71842   8.696   3.839   7.796 -0.1238  0.1646  0.0156
23755SOL    HW171843   8.642   3.884   7.730 -0.9763  2.3779  2.0835
23755SOL    HW271844   8.656   3.752   7.803 -0.4327  0.1114 -1.8678
23756SOL     OW71845   0.977   7.970   4.786  0.0918 -0.2450 -0.3038
23756SOL    HW171846   0.969   8.057   4.824  0.1142 -0.7303  0.8602
23756SOL    HW271847   1.064   7.940   4.812 -0.7961 -1.5464  1.4353
23757SOL     OW71848   6.769   5.423   9.136  0.1537  0.3989 -0.1035
23757SOL    HW171849   6.855   5.397   9.105  0.9948  0.6098  1.9107
23757SOL    HW271850   6.709   5.359   9.096  1.3499 -0.4122 -0.6681
23758SOL     OW71851   1.544   8.022   8.948  0.8863  0.1772 -0.1447
23758SOL    HW171852   1.582   7.936   8.967 -1.9533 -1.1443  0.0102
23758SOL    HW271853   1.613   8.085   8.973  2.3648 -1.9594  1.4777
23759SOL     OW71854   6.004   3.290   6.747  0.6510  0.4851 -0.3929
23759SOL    HW171855   6.037   3.373   6.711  3.5531 -0.6975 -0.8020
23759SOL    HW271856   6.004   3.231   6.671 -0.1356 -0.2211  0.1508
23760SOL     OW71857   0.753   1.187   3.047 -0.6988 -0.0959 -0.0958
23760SOL    HW171858   0.680   1.157   2.992 -0.8881 -0.9580  0.5947
23760SOL    HW271859   0.819   1.118   3.039  1.3654  1.9684 -3.0282
23761SOL     OW71860   0.986   2.741   6.001 -0.0388 -0.4482  0.6492
23761SOL    HW171861   1.072   2.712   5.970 -0.5040 -0.9224 -0.2306
23761SOL    HW271862   0.950   2.790   5.928  0.5350  2.0406  1.9328
23762SOL     OW71863   8.814   8.505   6.334  0.2974  0.6752 -0.0537
23762SOL    HW171864   8.830   8.600   6.340  1.7319  0.3993  1.1109
23762SOL    HW271865   8.867   8.468   6.405 -1.3548 -0.8932  0.4256
23763SOL     OW71866   3.919   0.466   8.160 -0.2386 -0.4069  0.0545
23763SOL    HW171867   3.899   0.560   8.163 -0.7310 -0.5073  0.0310
23763SOL    HW271868   3.952   0.452   8.071 -0.3497 -0.2918 -0.0060
23764SOL     OW71869   8.208   6.621   9.632  0.4885  0.1801  0.6595
23764SOL    HW171870   8.189   6.660   9.547 -1.5050 -2.6295 -0.3614
23764SOL    HW271871   8.276   6.556   9.614  0.5126  0.0127  1.3184
23765SOL     OW71872   7.012   3.523   4.065  0.7145 -0.8655  0.4918
23765SOL    HW171873   6.967   3.518   3.981  0.9241  1.9394  0.1229
23765SOL    HW271874   6.943   3.542   4.129  0.9684  0.5692  0.3662
23766SOL     OW71875   9.312   9.392   8.670  0.2024 -0.4381  0.1910
23766SOL    HW171876   9.259   9.430   8.600  0.1014  1.0993  1.0602
23766SOL    HW271877   9.362   9.323   8.627 -1.3476 -0.9002 -0.9637
23767SOL     OW71878   7.421   5.593   8.703 -0.5711  0.1301  0.4313
23767SOL    HW171879   7.336   5.621   8.669 -0.9332 -0.5852  0.7207
23767SOL    HW271880   7.451   5.526   8.641 -1.2768 -1.2463  1.5346
23768SOL     OW71881   9.962   5.521   8.686 -0.1094  0.6263 -0.0267
23768SOL    HW171882   9.950   5.597   8.743  0.3294 -0.1510  1.1367
23768SOL    HW271883   9.873   5.491   8.666 -0.2618  0.2507  1.1657
23769SOL     OW71884   4.937   8.627   9.193  0.3226 -0.3238  0.0048
23769SOL    HW171885   4.866   8.623   9.258 -0.4544 -0.5933 -0.8449
23769SOL    HW271886   4.960   8.720   9.189 -1.1159  0.0124 -0.9022
23770SOL     OW71887   9.921   1.246   4.520 -0.4253  0.0573 -0.0406
23770SOL    HW171888   9.890   1.331   4.552  0.8171 -0.4299  2.7845
23770SOL    HW271889   9.851   1.185   4.541 -0.5742  0.1008 -0.4084
23771SOL     OW71890   5.917   0.966   7.015  0.2628 -0.1246 -0.6652
23771SOL    HW171891   5.832   0.970   7.059  1.1955  0.0365  1.1896
23771SOL    HW271892   5.959   0.887   7.050  1.1184  0.0996 -1.1380
23772SOL     OW71893   6.384   0.261   6.355 -0.3486 -0.0922 -0.4018
23772SOL    HW171894   6.371   0.303   6.270  0.2252  0.2449 -0.3340
23772SOL    HW271895   6.453   0.197   6.339 -2.1693 -2.0508 -0.8327
23773SOL     OW71896   0.535   2.387   2.959 -0.2851  0.0689 -0.1254
23773SOL    HW171897   0.599   2.414   2.893 -1.2854  0.0670 -1.1367
23773SOL    HW271898   0.457   2.366   2.908 -0.7751 -0.8910  0.9969
23774SOL     OW71899   7.681   5.237   4.371  0.8549 -0.0797  0.5063
23774SOL    HW171900   7.725   5.192   4.444  1.6289  0.4012  0.3502
23774SOL    HW271901   7.743   5.229   4.298 -0.0647 -0.8615 -0.2069
23775SOL     OW71902   9.739   6.009   4.687  0.0722  0.3277  0.3255
23775SOL    HW171903   9.730   6.090   4.637  1.0616 -0.2954 -0.9246
23775SOL    HW271904   9.688   5.945   4.638 -0.2958  0.0676  1.0333
23776SOL     OW71905   5.673   9.844   5.680  0.0346 -0.1734  0.4270
23776SOL    HW171906   5.677   9.788   5.758  0.7124  0.4193  0.8288
23776SOL    HW271907   5.722   9.922   5.704 -1.6671  1.0119  0.2088
23777SOL     OW71908   6.175   3.992   6.319  0.0878  0.6195 -0.2629
23777SOL    HW171909   6.257   4.025   6.356 -0.9142  2.2265  0.6262
23777SOL    HW271910   6.117   4.068   6.317 -0.3036  0.3982 -4.2642
23778SOL     OW71911   8.831   1.497   9.886  0.4040 -0.1810  0.0244
23778SOL    HW171912   8.799   1.409   9.907  2.5687 -1.5437 -1.8875
23778SOL    HW271913   8.752   1.547   9.866 -0.9008 -1.6138  1.2976
23779SOL     OW71914   4.042   0.950   9.227 -0.0152 -0.8467  0.0488
23779SOL    HW171915   4.000   0.969   9.143  0.3887 -1.4888 -0.3083
23779SOL    HW271916   3.988   0.994   9.292  0.2767  0.5803 -0.6372
23780SOL     OW71917   6.849   4.484   6.919  0.1909  0.1086  0.1639
23780SOL    HW171918   6.759   4.510   6.896  0.6576  0.2955 -1.5954
23780SOL    HW271919   6.838   4.406   6.973 -1.0817  1.3467  1.8007
23781SOL     OW71920   6.658   2.079   2.843 -0.1295  0.3332 -0.0457
23781SOL    HW171921   6.565   2.055   2.849  0.5414 -2.8173 -0.6694
23781SOL    HW271922   6.665   2.128   2.761 -1.1586  0.1292 -0.2747
23782SOL     OW71923   8.232   5.793   7.566 -0.1754 -0.3883  0.0606
23782SOL    HW171924   8.254   5.753   7.650 -0.3716  0.0019  0.3025
23782SOL    HW271925   8.267   5.882   7.572 -2.0583  0.3676  0.5911
23783SOL     OW71926   2.650   4.486   2.245 -0.5125  0.3322  0.4984
23783SOL    HW171927   2.565   4.479   2.288  0.0985  1.3983  1.9632
23783SOL    HW271928   2.674   4.395   2.226 -2.1997  0.0500 -0.4556
23784SOL     OW71929   5.325   0.609   6.560 -0.0776 -0.1207 -0.0497
23784SOL    HW171930   5.385   0.672   6.521 -0.3391  0.1151 -0.0804
23784SOL    HW271931   5.284   0.564   6.486 -1.4831  1.1817 -0.1182
23785SOL     OW71932   3.278   0.414   2.725  0.2104 -0.0705 -0.1216
23785SOL    HW171933   3.269   0.435   2.632 -1.3726 -2.2734 -0.5461
23785SOL    HW271934   3.228   0.483   2.769 -0.2665  0.1807 -1.0101
23786SOL     OW71935   6.803   8.946   4.813 -0.6046  0.3472  0.6826
23786SOL    HW171936   6.792   8.937   4.908  1.2328 -1.0173  0.8147
23786SOL    HW271937   6.897   8.939   4.799 -0.8662  0.2268 -1.2924
23787SOL     OW71938   0.024   4.321   8.653  0.2798 -0.0421  0.3030
23787SOL    HW171939   0.030   4.238   8.700  2.3490  0.3351  0.8260
23787SOL    HW271940   0.108   4.329   8.608  0.1592  1.7862  0.3311
23788SOL     OW71941   2.427   2.078   0.798  0.6695 -0.0299  0.1919
23788SOL    HW171942   2.475   2.134   0.736  1.0010 -0.4154  0.1022
23788SOL    HW271943   2.338   2.074   0.762  0.8126 -0.0952 -0.1572
23789SOL     OW71944   3.272   1.992   6.771  0.6423 -0.1111 -0.0257
23789SOL    HW171945   3.247   2.020   6.859 -0.0612 -0.0036 -0.2516
23789SOL    HW271946   3.278   1.897   6.778 -0.0720 -0.1655 -0.0108
23790SOL     OW71947   5.303   2.475   3.051 -0.5632  0.1236 -0.0653
23790SOL    HW171948   5.347   2.468   2.966  0.1981  0.8148  0.2571
23790SOL    HW271949   5.371   2.456   3.115 -1.2716 -0.9779  0.3887
23791SOL     OW71950   8.258   2.331   7.495  0.0794  1.1405 -0.1584
23791SOL    HW171951   8.220   2.244   7.507  0.2703  1.0219 -0.4005
23791SOL    HW271952   8.345   2.315   7.459  2.3396  1.1579  4.5493
23792SOL     OW71953   5.991   5.352   4.351 -0.2679  0.1405  0.0862
23792SOL    HW171954   5.965   5.292   4.281  0.4634 -2.2914  1.7540
23792SOL    HW271955   6.086   5.338   4.360 -0.6358 -1.4019  2.9645
23793SOL     OW71956   8.084   3.949   3.987  0.4746 -0.0212 -0.2951
23793SOL    HW171957   8.007   3.952   4.044 -0.6603 -2.2284 -1.5802
23793SOL    HW271958   8.155   3.921   4.045 -0.0693  0.2937  0.5497
23794SOL     OW71959   8.713   6.631   4.116 -0.9123  0.6169 -0.2978
23794SOL    HW171960   8.731   6.713   4.163 -0.0369  0.3172 -0.0850
23794SOL    HW271961   8.620   6.614   4.131 -0.7611  0.7832  0.9388
23795SOL     OW71962   6.446   3.642   3.563 -0.1752  0.0011  0.2606
23795SOL    HW171963   6.536   3.618   3.538 -0.7027 -1.8342 -0.0049
23795SOL    HW271964   6.446   3.738   3.562  0.9804  0.0972 -2.7477
23796SOL     OW71965   9.628   0.631   8.716  0.1583  0.1120 -0.2191
23796SOL    HW171966   9.694   0.689   8.756  0.6507 -0.8904  0.4586
23796SOL    HW271967   9.621   0.558   8.776 -2.5587  0.7794  0.4122
23797SOL     OW71968   4.754   0.668   5.072  0.3828  0.0046  0.5178
23797SOL    HW171969   4.837   0.633   5.037 -0.0701  0.0300 -0.6130
23797SOL    HW271970   4.688   0.607   5.042 -0.0877  0.3166  0.9106
23798SOL     OW71971   6.607   7.343   0.068 -0.4529 -0.9141  0.8067
23798SOL    HW171972   6.695   7.361   0.036 -0.8784 -1.5062 -0.7887
23798SOL    HW271973   6.619   7.272   0.131  0.1353 -1.6354 -0.0861
23799SOL     OW71974   8.851   8.779   5.934  0.0591  0.2351  0.1278
23799SOL    HW171975   8.852   8.691   5.897  0.7328  0.1344  0.3649
23799SOL    HW271976   8.809   8.833   5.868  1.4927  0.1140 -0.9309
23800SOL     OW71977   7.873   5.821   2.350  0.2713  0.3246 -0.0521
23800SOL    HW171978   7.938   5.887   2.326 -0.1345  0.5254 -0.6204
23800SOL    HW271979   7.804   5.870   2.394 -0.3058  0.3829 -0.9915
23801SOL     OW71980   7.170   3.612   5.865  0.1717 -0.3178 -0.4731
23801SOL    HW171981   7.125   3.696   5.857  1.1628  0.2867  0.0427
23801SOL    HW271982   7.102   3.552   5.897 -0.6586  0.1659 -1.2794
23802SOL     OW71983   1.456   4.151   5.185 -0.5200  0.2093  0.3669
23802SOL    HW171984   1.389   4.088   5.212 -0.6289 -0.2679 -0.9580
23802SOL    HW271985   1.408   4.233   5.171 -0.3827  0.6183  2.0643
23803SOL     OW71986   1.587   0.873   9.659 -0.2355  0.0883  0.3756
23803SOL    HW171987   1.589   0.920   9.576 -0.7956 -1.2846 -0.4471
23803SOL    HW271988   1.506   0.822   9.656  1.4289 -2.7495  0.1566
23804SOL     OW71989   2.318   6.092   0.983 -0.1014  0.7116  0.1810
23804SOL    HW171990   2.285   6.002   0.979  0.9501  0.3125  0.1245
23804SOL    HW271991   2.370   6.095   1.063  0.0957  1.1818  0.0374
23805SOL     OW71992   9.168   6.545   0.006 -0.5534  0.4515  0.3174
23805SOL    HW171993   9.214   6.503   0.080  0.6771 -0.6919 -1.0419
23805SOL    HW271994   9.076   6.547   0.034 -0.1339 -0.0166  1.8540
23806SOL     OW71995   4.356   7.234   3.519  0.0235 -0.1195 -0.1061
23806SOL    HW171996   4.296   7.194   3.456 -0.3958 -1.4410  1.0932
23806SOL    HW271997   4.373   7.166   3.583 -1.4772  1.8333  2.6042
23807SOL     OW71998   0.275   1.670   3.968  0.3701  0.2568 -0.0153
23807SOL    HW171999   0.346   1.686   3.906  0.7468  1.3714  0.6876
23807SOL    HW272000   0.248   1.757   3.997 -1.3131 -0.1329 -0.2876
23808SOL     OW72001   6.695   0.608   6.418  0.0339 -0.1081 -0.2597
23808SOL    HW172002   6.661   0.523   6.446 -0.3959 -0.2318 -1.1137
23808SOL    HW272003   6.627   0.643   6.361  0.5942  0.4227 -0.6153
23809SOL     OW72004   2.914   2.669   2.207 -0.0848  0.3039  0.0836
23809SOL    HW172005   2.974   2.598   2.183  0.4557  0.5590  0.6728
23809SOL    HW272006   2.883   2.646   2.294 -0.7952  0.2105 -0.1903
23810SOL     OW72007   8.387   8.103   7.848 -0.1309 -0.6366 -0.4611
23810SOL    HW172008   8.446   8.106   7.924 -0.2502  0.1493 -0.3820
23810SOL    HW272009   8.309   8.151   7.878  0.1552  0.4269 -1.3490
23811SOL     OW72010   1.175   0.727   6.476  0.3697 -0.2797 -0.5177
23811SOL    HW172011   1.217   0.733   6.390  1.5822 -0.4992  0.0404
23811SOL    HW272012   1.117   0.652   6.469 -0.2542  0.2555 -1.4237
23812SOL     OW72013   8.210   5.707   2.071  0.2551 -0.4176 -0.4391
23812SOL    HW172014   8.139   5.746   2.021 -0.4869 -0.7110  0.3573
23812SOL    HW272015   8.229   5.771   2.140 -1.1796 -1.5219  1.0663
23813SOL     OW72016   4.629   5.587   2.648  0.2016 -0.0054  0.1892
23813SOL    HW172017   4.684   5.510   2.664  0.5693  0.2514  0.1711
23813SOL    HW272018   4.556   5.577   2.709  0.4411 -0.1800  0.4516
23814SOL     OW72019   1.260   3.600   8.741 -0.0162  0.2170  0.0357
23814SOL    HW172020   1.278   3.616   8.834 -0.6789 -0.9314  0.3944
23814SOL    HW272021   1.194   3.665   8.717 -0.6916 -0.2030  0.7001
23815SOL     OW72022   7.389   9.409   6.894 -0.2306 -0.7281 -0.2775
23815SOL    HW172023   7.323   9.343   6.918 -0.5562 -0.3727 -0.1866
23815SOL    HW272024   7.423   9.379   6.810 -1.8114  0.0482 -1.2294
23816SOL     OW72025   5.124   0.021   2.833 -0.6579  0.1354 -0.2042
23816SOL    HW172026   5.206  -0.021   2.806 -2.2852 -2.3287 -1.7205
23816SOL    HW272027   5.080   0.041   2.751 -1.9973  0.5108  0.5797
23817SOL     OW72028   8.423   6.513   9.260  0.4018  0.5565 -0.0330
23817SOL    HW172029   8.399   6.425   9.233 -1.2561 -0.0312  2.8807
23817SOL    HW272030   8.361   6.570   9.214  1.0536  0.1765 -1.4251
23818SOL     OW72031   5.500   9.662   6.065 -0.0963  0.1479 -0.3105
23818SOL    HW172032   5.521   9.599   6.134 -0.5570  0.5293  0.1911
23818SOL    HW272033   5.407   9.647   6.047 -0.0103  0.1424 -0.7527
23819SOL     OW72034   3.035   2.614   3.912 -0.0038 -0.1230 -0.0243
23819SOL    HW172035   2.985   2.533   3.912 -0.3286  0.0540 -1.3434
23819SOL    HW272036   3.126   2.587   3.915 -0.0152 -0.6616 -2.3714
23820SOL     OW72037   7.694   0.561   0.352  0.2401  0.1240  0.3786
23820SOL    HW172038   7.623   0.529   0.407  1.7783 -3.0623  0.7226
23820SOL    HW272039   7.668   0.537   0.263 -0.1883  1.1949  0.1998
23821SOL     OW72040   4.582   0.476   4.996  0.2516  0.5300 -0.2049
23821SOL    HW172041   4.584   0.402   5.056  1.0920  1.0310  0.4045
23821SOL    HW272042   4.605   0.439   4.911 -2.6689 -0.5189 -0.6373
23822SOL     OW72043   9.230   3.379   5.598  0.8107  0.2328 -0.2131
23822SOL    HW172044   9.154   3.320   5.601 -0.5047  1.8958  1.3863
23822SOL    HW272045   9.282   3.355   5.675 -1.3799  3.0436  2.4053
23823SOL     OW72046   4.931   1.709   0.968 -0.0884  0.0092  0.2305
23823SOL    HW172047   4.977   1.628   0.948  0.6396  0.3149  0.6099
23823SOL    HW272048   4.838   1.686   0.968  0.0651 -0.6327 -0.4966
23824SOL     OW72049   9.868   5.269   5.641 -1.1663  0.4336 -0.0903
23824SOL    HW172050   9.881   5.258   5.547 -1.4093  1.2468 -0.2222
23824SOL    HW272051   9.856   5.179   5.674 -2.7171  0.2428 -1.0777
23825SOL     OW72052   0.230   0.483   4.389 -0.3873  0.1067 -0.1787
23825SOL    HW172053   0.274   0.403   4.419  2.7259  2.1634  1.2820
23825SOL    HW272054   0.138   0.472   4.416 -0.1403 -3.0214 -0.2996
23826SOL     OW72055   5.382   2.708   1.052  0.2064  0.0116  0.5795
23826SOL    HW172056   5.341   2.628   1.084  0.2983  0.3640  1.6140
23826SOL    HW272057   5.439   2.679   0.981 -0.1366 -0.7710  0.6122
23827SOL     OW72058   6.039   7.453   3.639  0.6566 -0.1098 -0.0590
23827SOL    HW172059   6.007   7.468   3.728  0.2497 -1.1709 -0.0139
23827SOL    HW272060   5.993   7.375   3.610  1.1609 -0.0590 -1.0253
23828SOL     OW72061  -0.003   3.101   8.992 -0.4409  0.7673  0.3183
23828SOL    HW172062  -0.051   3.184   8.987 -3.9201 -1.0346  0.4824
23828SOL    HW272063   0.055   3.102   8.916 -2.1268  2.3742 -1.0459
23829SOL     OW72064   3.504   6.931   1.285  0.1988  0.3758 -0.2256
23829SOL    HW172065   3.472   6.859   1.340  1.5615 -1.0452 -1.1899
23829SOL    HW272066   3.435   6.997   1.288 -0.0723  0.0688  2.5967
23830SOL     OW72067   5.008   0.775   9.531 -0.3656 -0.6235 -0.3630
23830SOL    HW172068   5.034   0.701   9.478  0.3054 -0.6609 -0.0034
23830SOL    HW272069   5.087   0.797   9.582 -1.4532 -1.7032  1.9221
23831SOL     OW72070   4.803   1.412   3.962 -0.2875 -0.2047 -0.0201
23831SOL    HW172071   4.720   1.452   3.935 -0.4583 -1.1327 -0.9004
23831SOL    HW272072   4.778   1.346   4.027 -0.3554 -1.1535 -0.9878
23832SOL     OW72073   1.452   3.265   4.344  0.6976 -0.8263 -0.2051
23832SOL    HW172074   1.462   3.173   4.321  3.5320 -0.0522 -2.6786
23832SOL    HW272075   1.410   3.304   4.267 -1.9445 -0.1577  1.4187
23833SOL     OW72076   1.587   6.822   4.938  0.3997 -0.2437 -0.0024
23833SOL    HW172077   1.534   6.883   4.990  0.0320 -0.5194 -0.0478
23833SOL    HW272078   1.654   6.877   4.897 -0.6822  0.3536 -1.0586
23834SOL     OW72079   4.629   6.649   2.810  0.5556  0.5840  0.0459
23834SOL    HW172080   4.680   6.603   2.743  1.4199  1.4860  0.0711
23834SOL    HW272081   4.546   6.669   2.767  0.2383 -0.7967 -0.0324
23835SOL     OW72082   7.978   1.785   8.361 -0.4212 -0.0864  0.1583
23835SOL    HW172083   7.907   1.739   8.315 -1.2741  0.5767  0.7786
23835SOL    HW272084   8.055   1.770   8.306 -1.3597  0.4927 -1.4009
23836SOL     OW72085   2.764   5.536   2.073 -0.1405  0.2139  0.1229
23836SOL    HW172086   2.845   5.547   2.023  0.0482  0.2712  0.4441
23836SOL    HW272087   2.759   5.613   2.129  0.1892 -0.3701  0.9611
23837SOL     OW72088   0.604   9.438   3.172  0.0876 -0.6292  0.1838
23837SOL    HW172089   0.642   9.514   3.216 -0.1137 -0.6999  0.4896
23837SOL    HW272090   0.678   9.382   3.151  0.4662  0.5235 -1.8138
23838SOL     OW72091   6.473   0.468   6.512  0.1236 -0.5480  0.0099
23838SOL    HW172092   6.398   0.518   6.480  0.7301  1.0454  0.9620
23838SOL    HW272093   6.451   0.377   6.493 -2.2339 -0.1693  0.6587
23839SOL     OW72094   8.180   4.645   3.919 -0.6686  0.5716  0.4269
23839SOL    HW172095   8.171   4.737   3.944 -2.0262  0.9150 -1.0949
23839SOL    HW272096   8.185   4.598   4.001  0.8507  2.0639  1.2373
23840SOL     OW72097   4.027   2.499   5.978  0.2555 -0.4262  0.0789
23840SOL    HW172098   3.943   2.518   6.020  0.5986  1.6895 -0.0615
23840SOL    HW272099   4.007   2.432   5.913 -1.4939  0.4977 -0.3993
23841SOL     OW72100   2.219   7.534   6.242  0.6749 -0.1081  0.0885
23841SOL    HW172101   2.167   7.582   6.177 -1.8121 -1.6257  0.8110
23841SOL    HW272102   2.288   7.492   6.190 -1.0392 -1.0125 -1.5955
23842SOL     OW72103   4.767   8.712   9.858 -0.1032  0.0005 -0.0812
23842SOL    HW172104   4.790   8.759   9.778  0.3441  2.2823  1.2743
23842SOL    HW272105   4.834   8.645   9.867 -0.0912 -0.2157 -1.5308
23843SOL     OW72106   1.739   5.472   2.419 -0.0901 -0.4129 -0.1191
23843SOL    HW172107   1.825   5.500   2.452 -0.8356  1.1415  0.6001
23843SOL    HW272108   1.742   5.491   2.325  0.1756  0.0694 -0.0135
23844SOL     OW72109   1.426   7.850   0.570  0.7307 -0.1301  0.2097
23844SOL    HW172110   1.508   7.894   0.595  0.3355  0.6906  0.0966
23844SOL    HW272111   1.409   7.879   0.481  0.0646  0.0920  0.4014
23845SOL     OW72112   3.013   1.108   5.977  0.3670  0.3616  0.1970
23845SOL    HW172113   3.000   1.055   5.898  0.2335  0.0046  0.4535
23845SOL    HW272114   3.093   1.072   6.016  1.3184  1.5661 -0.5922
23846SOL     OW72115   7.668   7.616   7.100  0.3560 -0.6337 -0.2025
23846SOL    HW172116   7.738   7.555   7.121 -0.2530 -1.4560 -0.4832
23846SOL    HW272117   7.712   7.697   7.075  1.1765 -0.9383  0.2327
23847SOL     OW72118   3.249   3.899   6.800  0.0948  0.7615 -1.2832
23847SOL    HW172119   3.343   3.879   6.806  0.1539  1.2915 -0.2721
23847SOL    HW272120   3.208   3.837   6.860  0.0135  1.9099 -0.1354
23848SOL     OW72121   1.167   0.423   1.077 -0.4135  0.0401  0.1080
23848SOL    HW172122   1.119   0.341   1.078 -0.6662  0.1855  0.2829
23848SOL    HW272123   1.221   0.419   0.999 -2.6253  0.9664 -1.5741
23849SOL     OW72124   3.812   0.858   6.799  0.3492 -0.1148 -0.2078
23849SOL    HW172125   3.775   0.781   6.841  0.0833 -0.4961 -1.0992
23849SOL    HW272126   3.898   0.870   6.840 -0.6325  0.6260  1.7062
23850SOL     OW72127   0.139   0.418   0.124 -0.3026 -0.1117  0.3113
23850SOL    HW172128   0.230   0.412   0.096 -0.2771  2.0564 -0.2765
23850SOL    HW272129   0.106   0.328   0.120  1.2572 -0.6671 -1.3706
23851SOL     OW72130   1.103   2.957   7.832  0.1186 -0.0974  0.2457
23851SOL    HW172131   1.120   2.866   7.858 -1.6626 -0.5237  0.0040
23851SOL    HW272132   1.189   3.000   7.840  0.3603 -0.9294  3.7937
23852SOL     OW72133   4.879   2.786   7.096  0.6907  0.6770 -0.4754
23852SOL    HW172134   4.850   2.701   7.064  3.0628 -0.6645  0.6445
23852SOL    HW272135   4.957   2.767   7.148  1.9103  3.6352 -0.9945
23853SOL     OW72136   9.140   5.120   1.108 -0.0559 -0.4563 -0.0612
23853SOL    HW172137   9.222   5.163   1.084 -0.7781  0.8807 -0.2312
23853SOL    HW272138   9.109   5.166   1.185 -1.0503 -0.4004 -0.4718
23854SOL     OW72139   9.544   6.285   5.047 -0.1231 -0.3663 -0.6312
23854SOL    HW172140   9.634   6.270   5.076  0.1042 -0.2470 -1.2446
23854SOL    HW272141   9.498   6.316   5.125 -0.0320 -1.9211  0.0734
23855SOL     OW72142   9.590   0.790  10.001  0.6787 -0.0967 -0.5907
23855SOL    HW172143   9.631   0.866  10.042 -0.0479 -0.4353  0.8237
23855SOL    HW272144   9.605   0.802   9.907  1.0054  1.5306 -0.3551
23856SOL     OW72145   8.641   5.000   9.349 -0.5816  0.0955  0.0920
23856SOL    HW172146   8.601   5.087   9.339  1.6895  1.0570 -1.5920
23856SOL    HW272147   8.696   5.008   9.427 -1.6844 -0.4245  0.9448
23857SOL     OW72148   7.107   9.310   7.120  0.3134 -0.0660  0.1692
23857SOL    HW172149   7.019   9.274   7.119  0.7030 -1.0431 -0.3681
23857SOL    HW272150   7.106   9.376   7.190 -0.9561  0.2585 -0.1453
23858SOL     OW72151   8.168   1.369   7.660  0.0923 -0.2953  0.8038
23858SOL    HW172152   8.101   1.412   7.714 -1.4790 -1.4987 -0.0879
23858SOL    HW272153   8.242   1.430   7.661 -0.7537  0.7957  2.3679
23859SOL     OW72154   3.417   8.635   6.906 -0.2122  0.1141 -0.0451
23859SOL    HW172155   3.330   8.674   6.913 -0.9617 -1.4977 -0.0218
23859SOL    HW272156   3.404   8.542   6.922  1.5451 -0.1556  0.0887
23860SOL     OW72157   3.602   8.688   9.152 -0.3175 -0.1627  0.4363
23860SOL    HW172158   3.613   8.715   9.243 -0.0489 -0.3405  0.4581
23860SOL    HW272159   3.613   8.593   9.154 -0.3886 -0.1741  0.2310
23861SOL     OW72160   5.630   7.486   5.529  0.5814 -0.7661 -0.3826
23861SOL    HW172161   5.703   7.477   5.467  0.8181  1.6783 -0.5699
23861SOL    HW272162   5.670   7.475   5.615  1.0825 -0.0786 -0.5135
23862SOL     OW72163   4.575   9.327   1.592 -0.0787 -0.1548 -0.3863
23862SOL    HW172164   4.639   9.269   1.632 -1.0902  0.0183  1.6056
23862SOL    HW272165   4.626   9.384   1.534  1.7983  0.8386  2.1008
23863SOL     OW72166   1.364   5.672   8.319 -0.2254  0.2381  0.5921
23863SOL    HW172167   1.448   5.634   8.293  0.5460  1.6306  0.9655
23863SOL    HW272168   1.373   5.688   8.413 -1.8523 -1.8721  1.1889
23864SOL     OW72169   0.989   6.236   9.578 -0.3125  0.3517  0.5238
23864SOL    HW172170   0.945   6.248   9.662 -0.6777  2.5824  0.0766
23864SOL    HW272171   1.060   6.300   9.579  0.1806 -0.1596 -0.5471
23865SOL     OW72172   9.984   1.053   0.934  0.2196 -0.7278 -0.2191
23865SOL    HW172173  10.043   1.123   0.907  3.1596 -2.0973  2.1088
23865SOL    HW272174   9.897   1.085   0.912  1.6378  2.3041 -1.9946
23866SOL     OW72175   2.418   0.269   2.588 -0.0154  0.2240 -0.1279
23866SOL    HW172176   2.498   0.266   2.640 -0.1739  0.1894  0.1141
23866SOL    HW272177   2.449   0.269   2.497  0.2643  0.3974 -0.0357
23867SOL     OW72178   8.754   7.870   3.901  0.3010 -0.2471  0.2093
23867SOL    HW172179   8.746   7.795   3.842 -0.8625 -0.4817  0.6258
23867SOL    HW272180   8.785   7.831   3.983 -0.0648 -0.2418  0.3521
23868SOL     OW72181   4.645   0.725   5.797  0.0175 -0.1997 -0.2455
23868SOL    HW172182   4.686   0.767   5.873  0.7736  1.7205 -1.6280
23868SOL    HW272183   4.705   0.654   5.775 -0.8218 -1.5735  1.5975
23869SOL     OW72184   0.227   2.921   1.222  0.1234 -0.1027 -0.0205
23869SOL    HW172185   0.247   2.843   1.170 -0.3919  0.1696 -0.6387
23869SOL    HW272186   0.132   2.929   1.217  0.0941  0.0734  0.7615
23870SOL     OW72187   0.899   2.471   4.838  0.5954 -0.0499  0.2515
23870SOL    HW172188   0.861   2.507   4.919 -0.5035 -1.3482  0.3510
23870SOL    HW272189   0.989   2.449   4.862  1.2140  2.2989  0.2585
23871SOL     OW72190   1.508   4.104   4.535 -0.6147  0.3570  0.4917
23871SOL    HW172191   1.546   4.133   4.618  0.7811  0.2163 -0.0798
23871SOL    HW272192   1.574   4.048   4.496 -1.2569  0.4053 -0.7182
23872SOL     OW72193   4.113   8.927   8.449  0.3083 -0.2966 -0.6344
23872SOL    HW172194   4.048   8.919   8.519  0.8408  0.5512 -0.0209
23872SOL    HW272195   4.188   8.875   8.479  0.7349  0.4770 -0.3134
23873SOL     OW72196   8.954   2.502   9.044 -0.5993  0.1066  0.1625
23873SOL    HW172197   8.918   2.566   8.982 -0.0616 -0.1779 -0.4617
23873SOL    HW272198   8.942   2.418   8.999  0.6353 -0.0154  0.0319
23874SOL     OW72199   0.146   6.238   8.219  0.3245 -1.0091  0.4271
23874SOL    HW172200   0.147   6.166   8.156 -2.0849  0.7914 -1.8603
23874SOL    HW272201   0.228   6.285   8.203  0.0376 -0.9497 -0.9126
23875SOL     OW72202   4.715   4.359   6.859  0.1536  0.1166 -0.1744
23875SOL    HW172203   4.694   4.367   6.766  1.0422  0.5958 -0.3439
23875SOL    HW272204   4.799   4.312   6.861 -0.8924 -1.8240  0.4815
23876SOL     OW72205   5.900   6.719   1.717 -0.0485  0.5642 -0.4194
23876SOL    HW172206   5.913   6.625   1.707 -2.0266 -0.0926  2.2040
23876SOL    HW272207   5.981   6.749   1.759 -0.3855 -0.5092  1.1108
23877SOL     OW72208   6.446   3.294   0.272 -0.4483  0.4802  0.1009
23877SOL    HW172209   6.362   3.275   0.230  0.1291  1.7663 -1.7702
23877SOL    HW272210   6.510   3.243   0.222 -0.0078  0.1190  1.0112
23878SOL     OW72211   3.297   9.053   1.228  0.3759 -0.0656 -0.0725
23878SOL    HW172212   3.346   8.972   1.213 -0.2338 -0.6909  1.1493
23878SOL    HW272213   3.312   9.074   1.320  1.8308  2.1335 -0.7414
23879SOL     OW72214   6.552   0.648   1.550 -0.5087 -1.1679  0.0970
23879SOL    HW172215   6.544   0.733   1.593 -0.4892 -0.6733 -0.8598
23879SOL    HW272216   6.463   0.613   1.547 -0.9100 -0.1051 -1.6298
23880SOL     OW72217   7.359   1.555   0.140  0.0653 -0.0363 -0.4230
23880SOL    HW172218   7.313   1.634   0.168 -0.8936 -0.4036 -0.8949
23880SOL    HW272219   7.330   1.541   0.049  0.9261 -0.4241 -0.6517
23881SOL     OW72220   6.023   9.325   0.167 -0.4447 -0.3402 -0.2718
23881SOL    HW172221   5.991   9.361   0.084  1.3013 -1.7717 -1.6409
23881SOL    HW272222   6.014   9.397   0.229 -3.1665  0.3271 -1.3141
23882SOL     OW72223   0.634   2.632   7.072  0.6491 -0.0502 -0.3186
23882SOL    HW172224   0.566   2.695   7.051  0.0900 -0.6258 -0.2678
23882SOL    HW272225   0.716   2.681   7.064  0.1952  0.8471  0.3610
23883SOL     OW72226   3.685   3.174   9.864 -0.4149 -0.3443  0.4887
23883SOL    HW172227   3.714   3.261   9.835  0.3129 -0.4708  0.8067
23883SOL    HW272228   3.620   3.192   9.931 -1.7354 -0.0491 -0.8224
23884SOL     OW72229   0.940   4.206   1.005 -0.0505  0.3937  0.2785
23884SOL    HW172230   0.881   4.197   0.930 -0.1529 -2.3665  0.5893
23884SOL    HW272231   0.882   4.200   1.081  0.3282  0.5918  0.5802
23885SOL     OW72232   3.421   6.709   0.204  0.2069 -0.2481  0.7341
23885SOL    HW172233   3.452   6.798   0.183  1.1596 -0.6229  0.4975
23885SOL    HW272234   3.460   6.691   0.290  1.2173 -0.9729  0.1445
23886SOL     OW72235   9.356   0.428   2.085  0.1981 -0.1889 -0.2174
23886SOL    HW172236   9.263   0.408   2.072  0.5215 -0.6227 -2.2875
23886SOL    HW272237   9.400   0.345   2.067  1.0083  0.1223  0.3111
23887SOL     OW72238   7.085   9.082   6.776  0.5056  0.5107 -0.3853
23887SOL    HW172239   7.063   9.174   6.766  0.9612  0.9155  1.8739
23887SOL    HW272240   7.090   9.068   6.870 -0.1641 -1.9879 -0.6455
23888SOL     OW72241   7.783   3.512   2.377  0.1151 -0.0697 -0.3463
23888SOL    HW172242   7.737   3.596   2.378  1.1526  0.5259 -0.7874
23888SOL    HW272243   7.758   3.472   2.294 -2.9355 -1.7257  1.1930
23889SOL     OW72244   1.680   0.050   6.030 -0.4393  0.2364 -0.0930
23889SOL    HW172245   1.652  -0.042   6.037  0.0252  0.1685  1.0860
23889SOL    HW272246   1.696   0.077   6.121  0.6042  1.1147 -0.5179
23890SOL     OW72247   8.575   0.414   9.546 -1.0839 -0.0171  0.3541
23890SOL    HW172248   8.547   0.500   9.514 -2.8927 -0.4628  0.6148
23890SOL    HW272249   8.601   0.429   9.637  0.4376  0.5700 -0.1527
23891SOL     OW72250   8.103   3.733   4.236 -0.0725  0.2225  0.1987
23891SOL    HW172251   8.058   3.663   4.285 -2.7258  1.9992  0.4928
23891SOL    HW272252   8.085   3.713   4.144 -0.3305  0.1837  0.2554
23892SOL     OW72253   0.672   3.992   3.472  0.6663 -0.0731 -0.2866
23892SOL    HW172254   0.757   4.016   3.437  1.1586 -0.3734  0.6676
23892SOL    HW272255   0.682   3.900   3.497  0.2407  0.0498  0.3515
23893SOL     OW72256   5.540   7.652   9.402  0.1639  0.1237 -0.6558
23893SOL    HW172257   5.542   7.634   9.496  2.9049 -0.3543 -0.7197
23893SOL    HW272258   5.558   7.568   9.361  2.1559  0.8645 -1.4302
23894SOL     OW72259   3.139   3.446   2.089  0.1861 -0.0789 -0.2276
23894SOL    HW172260   3.181   3.364   2.063  0.2969 -0.1895  0.2731
23894SOL    HW272261   3.087   3.422   2.166  0.5136  0.3925  0.1449
23895SOL     OW72262   4.821   9.000   5.146  0.6121 -0.0224 -0.0678
23895SOL    HW172263   4.852   9.088   5.166 -0.3173 -0.2349  2.6712
23895SOL    HW272264   4.741   9.013   5.096 -0.4907  0.8015  1.8133
23896SOL     OW72265   7.622   6.157   0.881 -0.2144  0.0548  0.3351
23896SOL    HW172266   7.555   6.156   0.813 -0.9321 -0.6743  1.0210
23896SOL    HW272267   7.702   6.132   0.837 -0.9175 -1.7115 -0.0302
23897SOL     OW72268   6.834   3.095   5.254  0.0529 -0.5238  0.0364
23897SOL    HW172269   6.787   3.120   5.174 -0.2097 -0.6587  0.1480
23897SOL    HW272270   6.770   3.046   5.306  0.4343 -1.0548  0.0169
23898SOL     OW72271   9.176   1.043   2.746 -0.1547 -0.0366  0.0598
23898SOL    HW172272   9.188   1.057   2.652 -1.5215  1.2278  0.0382
23898SOL    HW272273   9.263   1.060   2.783  0.8048 -2.0872 -1.0819
23899SOL     OW72274   3.242   2.924   3.451  0.3126  0.5322  0.4152
23899SOL    HW172275   3.260   2.978   3.528  0.1117  0.6337  0.3919
23899SOL    HW272276   3.279   2.973   3.378  0.8877  0.2319  0.4955
23900SOL     OW72277   7.837   4.925   8.605  0.3252  0.0543 -0.4010
23900SOL    HW172278   7.872   4.959   8.687  1.6976 -0.1213 -0.8921
23900SOL    HW272279   7.769   4.863   8.632 -1.2919  2.0927  0.5290
23901SOL     OW72280   8.873   7.440   3.693 -0.3808  0.1464  0.2419
23901SOL    HW172281   8.837   7.371   3.638 -1.2067 -0.0811  1.0459
23901SOL    HW272282   8.897   7.395   3.774 -0.6463  0.7523  0.6584
23902SOL     OW72283   9.172   4.669   9.495  0.2964  0.6002  0.0093
23902SOL    HW172284   9.170   4.760   9.522  1.9867  0.9439 -0.8691
23902SOL    HW272285   9.261   4.640   9.517 -0.5870 -1.2245  1.4416
23903SOL     OW72286   1.905   7.573   9.742 -0.3060 -0.0071 -0.0496
23903SOL    HW172287   1.906   7.580   9.838  0.7461 -0.0704 -0.0474
23903SOL    HW272288   1.984   7.525   9.721 -0.6800 -0.2391 -0.9442
23904SOL     OW72289   3.029   3.491   2.566  0.0243 -0.7589 -0.2415
23904SOL    HW172290   3.009   3.479   2.659  0.7000 -1.9298 -0.2222
23904SOL    HW272291   2.981   3.420   2.522 -0.5503 -0.0252 -0.8379
23905SOL     OW72292   2.032   3.877   7.823 -0.3195 -0.0047  0.1373
23905SOL    HW172293   1.983   3.946   7.868 -0.3446 -0.6392  1.1316
23905SOL    HW272294   1.965   3.812   7.801  0.1103 -1.2036  2.1243
23906SOL     OW72295   6.768   4.658   9.343 -0.2851  0.5578 -0.6549
23906SOL    HW172296   6.689   4.608   9.322 -0.7398  1.4669 -1.1582
23906SOL    HW272297   6.795   4.697   9.260  0.4534  0.6053 -0.4000
23907SOL     OW72298   1.714   4.431   2.520 -0.4327 -0.3643 -0.0309
23907SOL    HW172299   1.667   4.504   2.481 -0.2261 -0.3561 -0.2744
23907SOL    HW272300   1.791   4.471   2.560 -1.1456 -0.2525  1.2501
23908SOL     OW72301   5.759   5.012   7.687 -0.4379 -0.6010  0.4074
23908SOL    HW172302   5.759   4.919   7.667  1.0594 -0.6505  0.4873
23908SOL    HW272303   5.826   5.049   7.629 -1.2380  0.4841  0.1460
23909SOL     OW72304   4.491   9.759   4.357  0.0818  0.0605  0.6090
23909SOL    HW172305   4.497   9.763   4.261 -0.4704  0.8781  0.5964
23909SOL    HW272306   4.528   9.674   4.380  0.3309 -0.0936 -0.3239
23910SOL     OW72307   1.217   7.720   6.364 -0.6549 -0.0711 -0.3967
23910SOL    HW172308   1.236   7.762   6.280 -1.1211  3.1211  0.9312
23910SOL    HW272309   1.303   7.709   6.404 -0.5072 -0.6472 -0.8583
23911SOL     OW72310   4.456   0.289   2.754 -0.5581 -0.2292 -0.4722
23911SOL    HW172311   4.528   0.298   2.691 -1.2557 -0.3265 -1.3022
23911SOL    HW272312   4.377   0.285   2.700 -1.2076  0.0412  0.4290
23912SOL     OW72313   7.051   9.533   1.046  0.0948 -0.4200 -0.8022
23912SOL    HW172314   6.986   9.590   1.086  0.0039 -0.0382 -1.4954
23912SOL    HW272315   7.028   9.530   0.953 -0.1650 -1.9289 -0.7252
23913SOL     OW72316   1.008   5.270   4.894 -0.1639  0.3399  0.1189
23913SOL    HW172317   1.083   5.290   4.838 -0.6767  0.7336 -0.4421
23913SOL    HW272318   1.043   5.213   4.962  0.4455 -0.2583 -0.6749
23914SOL     OW72319   9.092   6.772   2.359 -0.2346  0.6251  0.3764
23914SOL    HW172320   9.074   6.825   2.437  0.3546  0.1177  0.8744
23914SOL    HW272321   9.017   6.786   2.302 -1.0917  0.3416  1.4113
23915SOL     OW72322   3.265   7.975   8.298  0.2681  0.2848  0.4840
23915SOL    HW172323   3.255   7.906   8.233 -2.6458 -0.7975  1.9103
23915SOL    HW272324   3.175   8.005   8.314  1.2977  3.4549  0.9706
23916SOL     OW72325   2.486   6.595   4.154  0.1368  0.4067 -0.1479
23916SOL    HW172326   2.451   6.529   4.093  3.6230 -2.3494  0.4649
23916SOL    HW272327   2.449   6.571   4.239  0.8733 -0.4617 -0.0456
23917SOL     OW72328   4.266   9.096   0.923  0.0369  0.4016  0.1844
23917SOL    HW172329   4.290   9.131   0.837 -0.3722  1.4629  0.4792
23917SOL    HW272330   4.271   9.172   0.981  2.1879 -0.6496  1.5047
23918SOL     OW72331   9.017   0.634   1.182 -0.0224  0.2798  0.0532
23918SOL    HW172332   9.009   0.608   1.274  1.9725  0.5295  0.3435
23918SOL    HW272333   9.035   0.553   1.135 -1.1815  0.1320 -0.1586
23919SOL     OW72334   5.562   6.650   5.693 -0.2376 -0.4730 -0.0767
23919SOL    HW172335   5.508   6.719   5.733 -2.6669 -2.3605  0.1503
23919SOL    HW272336   5.550   6.662   5.598  2.0387  1.3489 -0.2176
23920SOL     OW72337   6.005   6.716   8.310 -0.0073 -0.4990 -0.1007
23920SOL    HW172338   5.985   6.799   8.354 -2.0365  0.2435 -2.2547
23920SOL    HW272339   5.993   6.650   8.379  2.6002  0.9321  1.9369
23921SOL     OW72340   5.831   7.313   8.538 -0.8356  0.3519  0.6826
23921SOL    HW172341   5.904   7.276   8.588 -0.6713 -1.2940 -0.6831
23921SOL    HW272342   5.761   7.248   8.546 -1.4791  0.9888  0.3484
23922SOL     OW72343   6.809   1.083   9.158  0.3785  0.4661  0.8739
23922SOL    HW172344   6.785   1.115   9.071 -1.2366 -0.8128  0.8015
23922SOL    HW272345   6.839   1.161   9.205 -1.5349  1.7226  0.0942
23923SOL     OW72346   8.575   1.340   6.898  0.2239 -0.2828 -0.4347
23923SOL    HW172347   8.594   1.254   6.936  0.4418  0.2578  0.7171
23923SOL    HW272348   8.641   1.398   6.936  0.8626  0.1802 -2.1466
23924SOL     OW72349   6.584   2.954   0.935  0.0662 -0.4979  0.0418
23924SOL    HW172350   6.506   2.918   0.893 -0.1625  1.2894 -1.1879
23924SOL    HW272351   6.555   2.979   1.023 -0.4628 -0.7756 -0.0513
23925SOL     OW72352   7.282   1.900   5.341 -0.1467 -0.0264 -0.2876
23925SOL    HW172353   7.300   1.811   5.373 -1.0327 -0.4506 -0.9504
23925SOL    HW272354   7.350   1.915   5.275  3.1221  1.6756  3.0225
23926SOL     OW72355   3.880   8.082   7.925 -0.0442  0.2651 -0.3628
23926SOL    HW172356   3.913   8.151   7.867 -0.5338  0.4234 -0.4602
23926SOL    HW272357   3.896   8.001   7.877 -0.0722  0.3651 -0.5424
23927SOL     OW72358   4.268   3.204   2.592 -0.9546 -0.5726 -0.0314
23927SOL    HW172359   4.284   3.235   2.681 -0.0021 -1.9389  0.3051
23927SOL    HW272360   4.353   3.172   2.563 -1.4592 -0.9722 -1.1060
23928SOL     OW72361   7.245   7.989   7.209 -0.5972  0.2272  0.0821
23928SOL    HW172362   7.211   8.079   7.208 -0.0535  0.4350  0.2160
23928SOL    HW272363   7.308   7.986   7.137  0.2348  0.2896  0.7932
23929SOL     OW72364   8.720   2.376   9.973  0.5886 -0.0503 -0.4422
23929SOL    HW172365   8.739   2.457   9.926 -0.1950  0.0637 -0.5903
23929SOL    HW272366   8.795   2.362  10.030  0.3588  1.2392  0.2096
23930SOL     OW72367   2.255   3.568   3.049  0.0681 -0.0449  0.0558
23930SOL    HW172368   2.313   3.564   2.973  2.0219 -1.3831  1.5155
23930SOL    HW272369   2.202   3.647   3.036  1.7303  0.8268 -1.7057
23931SOL     OW72370   3.317   7.786   0.702  0.3087 -0.3618 -0.1606
23931SOL    HW172371   3.228   7.820   0.705  0.3987 -0.1900  1.3819
23931SOL    HW272372   3.314   7.707   0.756  1.3684  0.3666  1.0136
23932SOL     OW72373   4.478   2.055   9.708  0.0925  0.2119  0.9177
23932SOL    HW172374   4.424   2.111   9.764 -2.5676 -1.2899  0.0245
23932SOL    HW272375   4.533   2.116   9.658 -1.0169  1.8511  1.6264
23933SOL     OW72376   6.838   1.876   3.846  0.3142 -0.0195  0.0658
23933SOL    HW172377   6.787   1.835   3.915  2.1067  0.3761  1.6990
23933SOL    HW272378   6.885   1.803   3.805 -0.3679 -0.1866 -0.4532
23934SOL     OW72379   0.436   8.398   6.717  0.1643  0.0351  0.3362
23934SOL    HW172380   0.414   8.408   6.810  0.5988  0.3817  0.4039
23934SOL    HW272381   0.532   8.394   6.715  0.1237 -1.2415  0.0225
23935SOL     OW72382   6.120   0.396   8.766  0.1929 -0.1387  0.0389
23935SOL    HW172383   6.040   0.402   8.713  0.6471 -0.2187 -0.6708
23935SOL    HW272384   6.159   0.483   8.761  0.7490 -0.4097 -0.6013
23936SOL     OW72385   9.281   5.239   9.126  0.0980  0.3772  0.4019
23936SOL    HW172386   9.195   5.208   9.154  0.7215 -0.9647  0.9163
23936SOL    HW272387   9.263   5.295   9.051 -1.1011 -1.5563 -0.8475
23937SOL     OW72388   9.462   5.817   8.915 -0.2744  0.4385 -0.1590
23937SOL    HW172389   9.544   5.845   8.955  0.5829  0.6171 -1.9602
23937SOL    HW272390   9.404   5.892   8.923  0.1942  0.7932 -0.0831
23938SOL     OW72391   8.645   7.539   5.505  0.4978  0.3880  0.5847
23938SOL    HW172392   8.703   7.615   5.516  0.2907  0.6849 -0.3069
23938SOL    HW272393   8.638   7.502   5.593  0.5132  1.4738  1.0625
23939SOL     OW72394   0.521   4.155   3.805 -0.1315 -0.0167  0.2988
23939SOL    HW172395   0.473   4.167   3.723 -0.8706  1.0388  0.8600
23939SOL    HW272396   0.601   4.207   3.794 -1.1931  1.8494  0.9934
23940SOL     OW72397   7.914   9.582   5.081  0.4020 -0.1033  0.2437
23940SOL    HW172398   7.919   9.662   5.029  0.6052  0.0957  0.5637
23940SOL    HW272399   7.855   9.604   5.153 -0.4770 -0.6124 -0.3066
23941SOL     OW72400   8.850   5.310   9.091  0.2356  0.1324 -0.2866
23941SOL    HW172401   8.761   5.323   9.126  0.8840 -0.3419  1.6360
23941SOL    HW272402   8.837   5.301   8.996 -1.7393  0.3166 -0.0797
23942SOL     OW72403   2.673   0.821   8.473  0.4211 -0.6216  0.5401
23942SOL    HW172404   2.600   0.770   8.439 -0.4478  1.5379 -1.1265
23942SOL    HW272405   2.682   0.894   8.411  2.6146  0.3672  1.8763
23943SOL     OW72406   8.940   0.892   6.144  0.0827 -0.1416  0.1066
23943SOL    HW172407   8.846   0.882   6.128  0.3481 -1.1847 -0.9848
23943SOL    HW272408   8.947   0.906   6.238 -1.2389  0.9899  0.0636
23944SOL     OW72409   3.498   1.811   2.238 -0.1190 -0.1895 -0.3646
23944SOL    HW172410   3.425   1.836   2.181  1.3536  1.1055 -1.7471
23944SOL    HW272411   3.462   1.820   2.327 -1.2521  1.8230 -0.9578
23945SOL     OW72412  10.009   9.611   4.460  0.2603 -0.3193 -0.0647
23945SOL    HW172413   9.978   9.659   4.383  0.1578 -0.2252  0.0350
23945SOL    HW272414   9.930   9.583   4.504  0.3191 -0.3841 -0.0001
23946SOL     OW72415   3.924   9.046   9.193  0.3270 -0.5417  0.3450
23946SOL    HW172416   3.886   9.049   9.280  2.2042 -1.5645  1.2639
23946SOL    HW272417   3.997   9.108   9.195 -0.0255 -0.0512 -0.7484
23947SOL     OW72418   2.825   4.919   4.976 -0.0440 -0.1585  0.5820
23947SOL    HW172419   2.848   5.012   4.970 -1.2434  0.1460  0.4980
23947SOL    HW272420   2.840   4.897   5.068 -1.1684  0.5167  0.9412
23948SOL     OW72421   3.363   3.111   3.312 -0.3741 -0.0538 -0.0798
23948SOL    HW172422   3.386   3.191   3.358 -0.6118 -0.6040  1.0265
23948SOL    HW272423   3.333   3.141   3.226 -0.1904  1.0132  0.2138
23949SOL     OW72424   9.033   1.139   1.684 -0.1178  0.2496  0.5767
23949SOL    HW172425   8.949   1.133   1.639 -0.5100  0.8932  1.1974
23949SOL    HW272426   9.066   1.227   1.663 -0.0157  0.3246  1.0315
23950SOL     OW72427   6.036   1.389   7.740  0.5968  0.5667 -0.0660
23950SOL    HW172428   6.128   1.413   7.742  0.5780  0.6843 -0.5109
23950SOL    HW272429   6.008   1.393   7.831  0.5812  2.2554 -0.1278
23951SOL     OW72430   6.019   2.278   5.722  0.0239  0.2564  0.3813
23951SOL    HW172431   5.960   2.223   5.672  0.7430  0.7928 -1.0999
23951SOL    HW272432   6.013   2.244   5.812 -1.0395 -0.9246 -0.1077
23952SOL     OW72433   4.631   1.133   6.683 -0.1380 -0.2034 -0.1118
23952SOL    HW172434   4.682   1.204   6.724 -2.0974  1.6881 -0.7564
23952SOL    HW272435   4.696   1.082   6.635  1.3648  1.1702  0.3371
23953SOL     OW72436   3.064   1.286   8.839 -0.3314  0.2414 -0.1481
23953SOL    HW172437   2.986   1.230   8.836 -0.3604  0.3029 -1.5209
23953SOL    HW272438   3.038   1.366   8.793  0.2726  0.6274  0.1664
23954SOL     OW72439   5.250   7.430   3.514  0.3731 -0.0461  0.4736
23954SOL    HW172440   5.268   7.518   3.479  3.0661 -0.6694  0.0256
23954SOL    HW272441   5.289   7.371   3.449 -0.3749 -1.5217  1.3310
23955SOL     OW72442   5.983   0.167   0.399 -0.1387  0.0028 -0.3861
23955SOL    HW172443   5.916   0.134   0.339 -0.4218  0.0347 -0.0920
23955SOL    HW272444   6.066   0.139   0.360 -0.3205 -0.0194 -0.7637
23956SOL     OW72445   5.800   8.035   5.891  1.0516  0.2202 -0.3524
23956SOL    HW172446   5.834   8.070   5.809  0.7802  0.6837 -0.2759
23956SOL    HW272447   5.800   7.940   5.879 -2.6819  0.2548 -2.4936
23957SOL     OW72448   4.758   0.126   7.632 -0.0244 -0.6099  0.2250
23957SOL    HW172449   4.828   0.183   7.662  0.7684 -1.1207 -0.6111
23957SOL    HW272450   4.681   0.184   7.628  0.7686  0.4283 -0.6761
23958SOL     OW72451   9.178   3.616   8.081  1.2873  0.3383 -0.3758
23958SOL    HW172452   9.270   3.642   8.090  1.2233  2.1873 -3.5291
23958SOL    HW272453   9.132   3.698   8.063 -0.5922 -0.8327 -1.1497
23959SOL     OW72454   3.869   0.459   6.963 -0.0032  0.5031 -0.5602
23959SOL    HW172455   3.890   0.474   7.055 -0.2517 -1.5123 -0.1113
23959SOL    HW272456   3.922   0.522   6.914  3.0528 -0.8276  0.7902
23960SOL     OW72457   2.063   0.772   0.869 -0.0692  0.1397  0.5516
23960SOL    HW172458   2.018   0.698   0.830 -0.6309  1.6321 -1.8581
23960SOL    HW272459   2.147   0.737   0.898 -0.0633 -1.3142 -1.1055
23961SOL     OW72460   2.844   9.924   9.926 -0.1521  0.1984  0.5600
23961SOL    HW172461   2.859   9.866  10.001 -1.0321  0.1919  0.7514
23961SOL    HW272462   2.779   9.877   9.873 -0.0746  0.5328  0.1678
23962SOL     OW72463   5.998   8.526   9.098  0.2836 -0.1220 -0.0821
23962SOL    HW172464   5.974   8.484   9.180 -0.4032 -2.5861 -1.4161
23962SOL    HW272465   6.014   8.617   9.121 -0.9461 -0.4724  2.5731
23963SOL     OW72466   5.601   2.384   9.200  0.1292 -0.2071  0.4201
23963SOL    HW172467   5.550   2.451   9.155  1.1061 -0.3337 -0.9503
23963SOL    HW272468   5.563   2.380   9.288 -0.1187  1.9327  0.4667
23964SOL     OW72469   1.012   8.372   3.425  0.0353 -0.0824  0.0114
23964SOL    HW172470   0.923   8.350   3.397  0.1853 -0.0890 -0.4655
23964SOL    HW272471   1.001   8.441   3.491 -0.2285  1.4379 -1.5578
23965SOL     OW72472   4.637   2.927   5.632  0.5306  0.0694  0.1016
23965SOL    HW172473   4.716   2.958   5.676  0.9248  0.1898 -0.6814
23965SOL    HW272474   4.583   3.005   5.622  0.8141  0.2005 -0.4018
23966SOL     OW72475   6.915   8.247   5.187  0.3015  0.0186  0.5238
23966SOL    HW172476   6.939   8.288   5.104  0.0767  0.3047  0.6005
23966SOL    HW272477   6.827   8.280   5.205  0.1520 -0.4343  0.6249
23967SOL     OW72478   9.104   7.774   2.190  0.6276  0.1564  0.2852
23967SOL    HW172479   9.061   7.734   2.114 -0.0820  0.7580  0.3619
23967SOL    HW272480   9.178   7.716   2.208 -0.2139 -0.9810  0.2227
23968SOL     OW72481   3.240   4.485   6.431 -0.0765  0.3599  0.6555
23968SOL    HW172482   3.246   4.505   6.337 -0.7432 -0.4201  0.4349
23968SOL    HW272483   3.212   4.568   6.471 -0.7198  0.4539  0.0355
23969SOL     OW72484   2.570   4.307   0.689 -0.5999 -0.1406  0.7016
23969SOL    HW172485   2.644   4.345   0.735  0.3893 -1.4017  0.2161
23969SOL    HW272486   2.527   4.252   0.755 -0.5185 -0.1714  0.7296
23970SOL     OW72487   2.325   9.045   5.958  0.0973 -0.3471  0.3165
23970SOL    HW172488   2.313   9.047   6.053  1.8354 -0.9249  0.5761
23970SOL    HW272489   2.302   9.134   5.929  1.3381  0.4021  1.5279
23971SOL     OW72490   0.533   8.745   3.205 -0.2883  0.5688 -0.3404
23971SOL    HW172491   0.493   8.699   3.131 -0.1941  0.1277 -0.1201
23971SOL    HW272492   0.492   8.831   3.205 -0.1151  0.6578 -1.0527
23972SOL     OW72493   6.414   1.531   9.750  0.3338  0.1802 -0.4451
23972SOL    HW172494   6.404   1.445   9.710 -0.6555 -0.0788  0.3446
23972SOL    HW272495   6.339   1.581   9.718 -0.1201  0.1626  0.5706
23973SOL     OW72496   2.776   7.825   1.383  0.3402  0.0619 -0.7021
23973SOL    HW172497   2.708   7.820   1.450  0.3280 -0.1095 -0.7272
23973SOL    HW272498   2.821   7.741   1.388  2.1462  1.0544  0.9820
23974SOL     OW72499   6.169   9.350   4.011  0.3035 -0.1886 -0.1974
23974SOL    HW172500   6.142   9.442   4.011 -0.4480 -0.3879  1.1305
23974SOL    HW272501   6.116   9.309   4.079 -1.0071 -2.1151 -2.2568
23975SOL     OW72502   2.397   2.552   9.788 -0.1971  0.0557 -0.6304
23975SOL    HW172503   2.358   2.630   9.748 -1.1540 -0.1253 -0.0848
23975SOL    HW272504   2.384   2.564   9.882  0.0641 -0.5455 -0.5109
23976SOL     OW72505   7.905   4.217   2.273  0.3631  0.1249  0.3926
23976SOL    HW172506   7.826   4.169   2.299 -0.2620  1.1772  0.5158
23976SOL    HW272507   7.893   4.235   2.180  1.3583 -1.3369 -0.0457
23977SOL     OW72508   8.805   4.279   4.293 -0.0473 -0.6050  0.2915
23977SOL    HW172509   8.806   4.236   4.379 -1.7801 -1.5712 -0.1277
23977SOL    HW272510   8.772   4.367   4.311  1.7078 -0.0168  0.8862
23978SOL     OW72511   6.178   4.612   0.751 -0.3122  0.6885 -0.2691
23978SOL    HW172512   6.153   4.524   0.778 -0.7276  0.8477 -0.1220
23978SOL    HW272513   6.158   4.667   0.827  2.7270  0.5035  0.7837
23979SOL     OW72514   5.085   0.387   5.631  0.2132  0.3957  0.5663
23979SOL    HW172515   5.130   0.330   5.568 -0.3308  0.2024  0.3471
23979SOL    HW272516   4.997   0.396   5.596 -0.7624 -1.4512  2.3761
23980SOL     OW72517   5.509   7.178   9.785 -0.0634 -0.0067 -0.4389
23980SOL    HW172518   5.572   7.191   9.856 -1.0191  0.1305  0.4081
23980SOL    HW272519   5.493   7.084   9.784 -0.7203  0.0866  0.1455
23981SOL     OW72520   9.071   1.015   2.472 -0.0280  0.2516 -0.2168
23981SOL    HW172521   8.982   1.017   2.437 -0.2224  0.0524  0.2580
23981SOL    HW272522   9.126   1.043   2.399 -0.2021 -2.1663 -1.3821
23982SOL     OW72523   9.885   8.006   8.011 -0.2505  0.1581 -0.0785
23982SOL    HW172524   9.834   8.083   8.035  1.7309  1.8829 -1.0479
23982SOL    HW272525   9.977   8.033   8.023  0.5733 -1.3718 -2.2975
23983SOL     OW72526   1.987   2.933   0.962  0.1777 -0.0801  0.1704
23983SOL    HW172527   1.971   2.915   1.055  1.0167  0.4700  0.4375
23983SOL    HW272528   2.076   2.903   0.947  0.6578  1.3667 -0.0182
23984SOL     OW72529   5.130   2.819   8.927 -0.3222  0.0498  0.2061
23984SOL    HW172530   5.049   2.863   8.953 -1.4111 -0.8312 -1.5345
23984SOL    HW272531   5.116   2.727   8.948 -0.1823 -0.2616 -0.9837
23985SOL     OW72532   2.898   1.649   0.676 -0.1526 -0.0533  0.0466
23985SOL    HW172533   2.834   1.617   0.612 -1.2889  2.1160  0.0148
23985SOL    HW272534   2.918   1.738   0.647  0.8280  0.2552  1.5943
23986SOL     OW72535   1.150   3.920   0.171 -0.6002  0.0766 -0.2468
23986SOL    HW172536   1.069   3.961   0.140 -2.1403 -1.4627  1.5089
23986SOL    HW272537   1.162   3.955   0.260 -0.1476 -0.8083  0.0499
23987SOL     OW72538   4.551   0.230   5.114  0.5933 -0.1341  0.3398
23987SOL    HW172539   4.505   0.211   5.196 -0.4688 -0.8150 -0.3857
23987SOL    HW272540   4.481   0.250   5.051  1.3518 -0.1268 -0.5276
23988SOL     OW72541   2.581   0.805   8.068  0.0242  0.0439 -0.1113
23988SOL    HW172542   2.660   0.754   8.055 -0.3821 -0.5703 -0.2290
23988SOL    HW272543   2.536   0.762   8.141 -1.4649 -1.2151 -1.6964
23989SOL     OW72544   1.025   1.368   3.276  0.2149  0.0717  0.2987
23989SOL    HW172545   1.023   1.444   3.217 -0.1086  0.9313  1.3801
23989SOL    HW272546   1.092   1.390   3.341  0.0028 -0.4963  0.7173
23990SOL     OW72547   5.099   2.322   6.875 -0.3803  0.3576 -0.8110
23990SOL    HW172548   5.054   2.373   6.809 -1.3392  0.2924 -0.2257
23990SOL    HW272549   5.030   2.294   6.936  0.3547 -0.2584 -0.2299
23991SOL     OW72550   2.618   2.877   6.431  1.0240  0.2103 -0.3447
23991SOL    HW172551   2.566   2.857   6.353 -1.4262  0.5033  1.1102
23991SOL    HW272552   2.642   2.969   6.421  1.1463  0.1185 -0.9650
23992SOL     OW72553   4.240   3.927   4.613 -0.4209 -0.0808 -0.4763
23992SOL    HW172554   4.316   3.977   4.584 -2.5569  3.6532 -0.3736
23992SOL    HW272555   4.204   3.890   4.532 -1.3763  2.7126 -1.4375
23993SOL     OW72556   8.245   0.764   7.435  0.3463  0.0897 -0.1314
23993SOL    HW172557   8.204   0.701   7.495 -1.2965  0.5141 -0.7453
23993SOL    HW272558   8.172   0.798   7.383  1.6643 -0.1695 -2.2985
23994SOL     OW72559   3.417   4.025   3.528  0.1807  0.3387 -0.6379
23994SOL    HW172560   3.411   4.119   3.541  3.2904  0.7813 -1.5055
23994SOL    HW272561   3.501   4.000   3.567 -0.6362 -2.1365 -0.2492
23995SOL     OW72562   0.504   6.823   6.200 -0.0014  0.5872 -0.1160
23995SOL    HW172563   0.486   6.860   6.286 -0.6060  2.4508 -0.9949
23995SOL    HW272564   0.509   6.728   6.215 -0.2856  0.8583  1.9126
23996SOL     OW72565   6.096   6.933   3.749 -0.3154  0.1638  0.0201
23996SOL    HW172566   6.149   7.008   3.724 -1.0433  0.7442  0.1760
23996SOL    HW272567   6.146   6.857   3.718  0.2700  0.7181 -0.4344
23997SOL     OW72568   2.029   9.184   5.221 -0.1193  0.4864 -0.3706
23997SOL    HW172569   1.975   9.204   5.145 -1.0109  1.8154  0.5745
23997SOL    HW272570   2.119   9.202   5.191 -0.5216  1.7215 -0.8938
23998SOL     OW72571   0.655   9.286   7.141 -1.0833  0.0569  0.0795
23998SOL    HW172572   0.700   9.275   7.224  0.2331  1.4004 -0.4218
23998SOL    HW272573   0.602   9.365   7.152 -2.0051 -0.5370  0.0787
23999SOL     OW72574   5.835   7.443   7.920 -0.3030 -0.0666 -0.9777
23999SOL    HW172575   5.870   7.517   7.870  0.3544 -0.8272 -1.6858
23999SOL    HW272576   5.814   7.377   7.854 -2.2200 -0.0079 -0.4842
24000SOL     OW72577   9.347   1.653   7.122 -0.0884 -0.1790  0.0773
24000SOL    HW172578   9.395   1.595   7.181  0.9261 -0.4099 -0.9218
24000SOL    HW272579   9.413   1.680   7.058 -1.5644 -1.6407 -2.2111
24001SOL     OW72580   5.262   2.244   3.446  0.3266 -0.0937 -0.0356
24001SOL    HW172581   5.335   2.227   3.506  0.6799 -1.5671 -0.8337
24001SOL    HW272582   5.198   2.291   3.499  1.5170  0.5470  0.8996
24002SOL     OW72583   3.432   2.665   4.326  0.3686  0.6731 -0.0494
24002SOL    HW172584   3.343   2.676   4.359  0.7640  1.7279  0.7277
24002SOL    HW272585   3.423   2.667   4.231 -0.2494  2.8458 -0.0043
24003SOL     OW72586   9.778   2.286   8.644  0.0106 -0.4557  0.0013
24003SOL    HW172587   9.800   2.208   8.594 -1.0109 -0.2639 -0.7843
24003SOL    HW272588   9.860   2.335   8.650  0.6508 -1.5372  0.4408
24004SOL     OW72589   2.233   7.448   2.986  0.1015  0.4503 -0.2075
24004SOL    HW172590   2.310   7.395   3.004 -0.5458 -0.4010  0.1444
24004SOL    HW272591   2.254   7.535   3.019 -0.5620 -0.6979  3.7341
24005SOL     OW72592   5.108   1.919   8.528  0.2466 -0.8843 -0.0249
24005SOL    HW172593   5.057   1.902   8.607 -0.1580 -0.5096 -0.2013
24005SOL    HW272594   5.072   1.858   8.463 -1.3094  0.6641 -0.7033
24006SOL     OW72595   6.920   3.675   7.267  0.3648 -0.3497 -0.1574
24006SOL    HW172596   6.871   3.600   7.233  1.1755 -0.7181 -0.5378
24006SOL    HW272597   6.997   3.681   7.211  0.6426  0.3660  0.2860
24007SOL     OW72598   1.376   7.067   7.037  0.2648  0.5985  0.3904
24007SOL    HW172599   1.447   7.071   6.973  0.3694 -0.1793  0.4524
24007SOL    HW272600   1.296   7.059   6.985  0.3432  0.0456  0.3506
24008SOL     OW72601   4.106   7.244   8.903  0.2726  0.0675 -0.0132
24008SOL    HW172602   4.090   7.191   8.824 -1.2474 -0.8232  0.8321
24008SOL    HW272603   4.065   7.194   8.973  0.4468  1.4849  1.1347
24009SOL     OW72604   7.537   8.753   8.808 -0.0763  0.1883  0.3086
24009SOL    HW172605   7.485   8.829   8.833 -1.2146 -0.6600  0.5812
24009SOL    HW272606   7.567   8.716   8.890  0.9439  0.6373  0.1559
24010SOL     OW72607   1.606   1.863   0.224  0.4737 -0.3981  0.0978
24010SOL    HW172608   1.701   1.876   0.228  0.3864  1.0742 -1.4876
24010SOL    HW272609   1.592   1.809   0.146 -0.0571  0.5662 -0.4973
24011SOL     OW72610   5.731   2.070   6.639  0.5149 -0.0241 -0.1736
24011SOL    HW172611   5.635   2.071   6.650  0.6800  0.4530  1.5809
24011SOL    HW272612   5.761   2.143   6.693  1.7845  0.9133 -2.0435
24012SOL     OW72613   1.716   2.423   2.537 -0.1771  0.2889  0.8540
24012SOL    HW172614   1.790   2.362   2.533  0.4498  0.8838  2.5281
24012SOL    HW272615   1.639   2.368   2.524  0.4320 -0.7036  1.3003
24013SOL     OW72616   3.587   0.610   2.745 -0.1491 -0.4296 -0.3624
24013SOL    HW172617   3.496   0.632   2.728  0.1378 -0.1028 -1.5587
24013SOL    HW272618   3.588   0.577   2.835 -1.5596 -1.1434 -0.5880
24014SOL     OW72619   5.188   8.473   2.240 -0.1871  0.3152  0.3149
24014SOL    HW172620   5.197   8.406   2.308 -0.1766 -0.3336 -0.3218
24014SOL    HW272621   5.222   8.553   2.282 -0.0851 -0.0915  1.0375
24015SOL     OW72622   0.591   1.195   4.586  0.5301  0.1290 -0.1159
24015SOL    HW172623   0.511   1.222   4.540 -0.6710 -0.0848  1.7410
24015SOL    HW272624   0.655   1.182   4.516 -1.0802  0.1829 -1.6853
24016SOL     OW72625   6.415   1.180   6.459 -0.1075  0.4986 -0.0839
24016SOL    HW172626   6.363   1.106   6.491 -1.1290  1.0439 -0.4441
24016SOL    HW272627   6.412   1.244   6.529  1.2944 -0.0082  0.4871
24017SOL     OW72628   6.035   4.216   5.892  0.0619  0.2127 -0.1018
24017SOL    HW172629   6.083   4.139   5.924  0.0671  0.1002 -0.3791
24017SOL    HW272630   5.944   4.187   5.888 -0.2917  0.8632  1.8392
24018SOL     OW72631   7.846   0.434   7.535  0.4302  0.1320  0.3730
24018SOL    HW172632   7.881   0.397   7.454  1.1788 -0.3659  0.9129
24018SOL    HW272633   7.838   0.359   7.594  0.6085  0.6038  1.0128
24019SOL     OW72634   5.486   4.240   0.104 -0.1261 -0.2000  0.0299
24019SOL    HW172635   5.443   4.325   0.109 -0.1718 -0.2225  0.0161
24019SOL    HW272636   5.518   4.234   0.014 -1.8233 -1.0205 -0.5619
24020SOL     OW72637   9.028   7.305   6.962 -0.0845  0.1180 -0.3202
24020SOL    HW172638   9.031   7.380   6.902  1.9529  0.2156 -0.1882
24020SOL    HW272639   8.963   7.330   7.028  1.0240  2.1283  0.1086
24021SOL     OW72640   1.527   2.481   4.034 -0.3871  0.0968  0.1573
24021SOL    HW172641   1.446   2.512   4.076  0.0791  1.7839 -0.1299
24021SOL    HW272642   1.584   2.557   4.032 -0.2536  0.0698 -3.2494
24022SOL     OW72643   9.853   3.362   2.028  0.0841 -0.3165  0.3861
24022SOL    HW172644   9.815   3.440   1.988 -0.8421 -2.6516 -3.8784
24022SOL    HW272645   9.778   3.317   2.067  0.2463 -0.2064  0.8375
24023SOL     OW72646   6.848   2.382   0.816 -0.5781 -0.1872 -0.2091
24023SOL    HW172647   6.753   2.389   0.814 -0.5308  0.4462 -1.4805
24023SOL    HW272648   6.875   2.433   0.892 -1.1666  1.0363 -0.7985
24024SOL     OW72649   8.917   5.698   8.524 -0.2750 -0.0524  0.5101
24024SOL    HW172650   8.941   5.768   8.584 -2.9097  1.2357  0.2293
24024SOL    HW272651   8.855   5.739   8.463  1.1681 -1.6598 -2.2411
24025SOL     OW72652   8.116   4.182   5.155  0.4483 -0.5497 -0.1444
24025SOL    HW172653   8.141   4.264   5.113  0.8337  0.0683  1.2519
24025SOL    HW272654   8.166   4.115   5.108  0.9517  0.1341 -0.5895
24026SOL     OW72655   4.024   3.528   2.050 -0.3680  0.4747  0.2602
24026SOL    HW172656   4.012   3.540   2.144  0.0651  0.7062  0.2870
24026SOL    HW272657   4.018   3.616   2.014 -0.0516  0.4392  0.1245
24027SOL     OW72658   9.822   2.614   9.421 -0.6111 -0.7956 -0.7441
24027SOL    HW172659   9.826   2.564   9.339 -1.4152 -2.1902  0.0252
24027SOL    HW272660   9.799   2.702   9.393 -0.8543 -1.2343 -2.0365
24028SOL     OW72661   8.981   7.037   1.447 -0.3627 -0.5699 -0.3770
24028SOL    HW172662   8.911   6.986   1.406 -0.5351 -1.4941  0.9868
24028SOL    HW272663   9.061   7.000   1.410 -0.5521  0.7334 -2.2164
24029SOL     OW72664   7.846   9.084   7.446  0.0153 -0.2254  0.4097
24029SOL    HW172665   7.813   9.113   7.361  0.2851  0.5610  0.5617
24029SOL    HW272666   7.854   8.989   7.437 -1.6162 -0.3736  0.1434
24030SOL     OW72667   4.408   1.666   8.452 -0.0192 -0.0971  0.1670
24030SOL    HW172668   4.365   1.610   8.517  0.2050  0.2788  0.6400
24030SOL    HW272669   4.384   1.755   8.478 -0.0826  0.0442 -0.3765
24031SOL     OW72670   4.528   8.762   8.900 -0.1419 -0.1393 -0.0223
24031SOL    HW172671   4.523   8.852   8.934  0.5256 -0.0176 -0.2247
24031SOL    HW272672   4.492   8.768   8.811 -2.6578 -0.6182  0.9019
24032SOL     OW72673   3.569   0.477   9.708  0.2876  0.3364 -0.5678
24032SOL    HW172674   3.485   0.457   9.667  0.7310  0.2114 -1.4558
24032SOL    HW272675   3.629   0.488   9.634  0.9186  1.0270  0.0282
24033SOL     OW72676   7.614   2.550   7.208  0.3264 -0.0591 -0.3242
24033SOL    HW172677   7.527   2.590   7.208 -0.0450 -0.7144  2.0822
24033SOL    HW272678   7.670   2.614   7.162 -1.1092  1.0521 -0.6002
24034SOL     OW72679   4.284   6.321   4.858 -0.0706 -0.4837  0.2032
24034SOL    HW172680   4.350   6.375   4.814  0.1589 -0.2420  0.8268
24034SOL    HW272681   4.226   6.384   4.901  0.6779 -0.7205  1.6204
24035SOL     OW72682   8.283   0.566   4.154 -0.2714  0.7091 -0.0207
24035SOL    HW172683   8.294   0.495   4.218  1.7947  1.4956  0.5698
24035SOL    HW272684   8.294   0.523   4.069 -1.1675 -0.0197  0.2152
24036SOL     OW72685   2.204   9.189   9.270 -0.5739 -0.5531  0.0733
24036SOL    HW172686   2.192   9.112   9.216  1.3691  0.5176 -2.0678
24036SOL    HW272687   2.133   9.248   9.245 -0.5850 -0.6627 -0.1528
24037SOL     OW72688   1.161   6.153   4.202 -0.4184 -0.7106 -0.2820
24037SOL    HW172689   1.138   6.080   4.144 -0.5376 -1.6470  0.8949
24037SOL    HW272690   1.087   6.158   4.263  0.9371 -1.6201  1.5324
24038SOL     OW72691   9.031   2.273   2.059  0.4380 -0.4637  0.1758
24038SOL    HW172692   9.115   2.247   2.096  0.2307 -3.1729 -0.9800
24038SOL    HW272693   8.971   2.202   2.084 -1.6124  1.4773  1.1338
24039SOL     OW72694   2.223   7.178   9.130  0.0018  0.2028  0.3208
24039SOL    HW172695   2.162   7.138   9.192 -1.6327  1.8710 -0.1170
24039SOL    HW272696   2.310   7.155   9.163 -0.8250 -1.6571  1.3809
24040SOL     OW72697   1.802   8.533   6.220  0.6935 -0.2128 -0.4693
24040SOL    HW172698   1.849   8.576   6.291 -0.1255  0.3743 -0.2747
24040SOL    HW272699   1.815   8.439   6.236  0.9504 -0.0757  0.1498
24041SOL     OW72700   2.345   2.061   3.739 -0.0467  0.2688 -0.5211
24041SOL    HW172701   2.284   1.989   3.752  1.4637 -0.7213  1.6487
24041SOL    HW272702   2.320   2.126   3.805 -1.2042  1.7057 -2.2554
24042SOL     OW72703   3.607   5.224   9.538 -0.0869 -0.3984 -0.2395
24042SOL    HW172704   3.534   5.238   9.598 -1.2834 -3.0466 -0.9116
24042SOL    HW272705   3.685   5.231   9.593 -0.9969 -0.1504  1.0749
24043SOL     OW72706   3.260   3.331   8.526  0.1874 -0.2140 -0.2620
24043SOL    HW172707   3.334   3.275   8.504 -0.4856 -1.1890 -0.1010
24043SOL    HW272708   3.191   3.304   8.467 -0.4043 -0.1295  0.3766
24044SOL     OW72709   2.058   9.524   2.393 -0.2169 -0.3146  0.1924
24044SOL    HW172710   2.023   9.449   2.440  1.0635 -1.0231  0.0784
24044SOL    HW272711   2.115   9.486   2.326 -0.6147  0.7231 -0.7734
24045SOL     OW72712   3.371   7.125   6.682 -0.0649 -0.4094  0.0300
24045SOL    HW172713   3.397   7.125   6.774  0.8507 -1.9624 -0.1770
24045SOL    HW272714   3.281   7.157   6.681 -0.3263 -1.0355  1.5565
24046SOL     OW72715   6.350   0.907   4.836 -0.0275  0.4757  0.3163
24046SOL    HW172716   6.296   0.869   4.905  0.5255  1.3564  1.2579
24046SOL    HW272717   6.371   0.833   4.779  1.3411 -0.7818  2.3082
24047SOL     OW72718   9.806   3.776   4.403  0.5746  0.2026 -0.4014
24047SOL    HW172719   9.768   3.689   4.391  0.0051  0.5948 -1.6119
24047SOL    HW272720   9.889   3.760   4.447  0.2579 -0.9055 -0.1599
24048SOL     OW72721   4.979   3.309   9.737  0.2188  0.1833 -0.0823
24048SOL    HW172722   5.067   3.271   9.736 -0.5929 -1.7994 -0.0839
24048SOL    HW272723   4.938   3.275   9.816 -1.4469 -1.2105 -1.4542
24049SOL     OW72724   8.567   2.991   0.515 -0.6369 -0.5124 -0.1656
24049SOL    HW172725   8.661   3.007   0.506 -1.0087  1.3741 -1.3130
24049SOL    HW272726   8.555   2.902   0.481  0.5698 -0.2593 -1.3760
24050SOL     OW72727   0.735   8.312   3.323  0.3736 -0.3275 -0.1893
24050SOL    HW172728   0.712   8.405   3.327 -0.2658 -0.4983  0.1393
24050SOL    HW272729   0.756   8.297   3.231 -1.1899 -0.2385 -0.5922
24051SOL     OW72730   7.338   7.562   8.085  0.1017 -0.3530 -0.0973
24051SOL    HW172731   7.373   7.590   8.169 -1.3562 -2.9506  1.5063
24051SOL    HW272732   7.405   7.505   8.048 -0.5000 -1.7056  0.8339
24052SOL     OW72733   6.559   9.744   6.457  0.2827  0.2440  0.2904
24052SOL    HW172734   6.532   9.656   6.432 -0.3045  0.3101  0.6756
24052SOL    HW272735   6.653   9.735   6.475 -0.1610 -0.8470  2.5209
24053SOL     OW72736   8.550   4.545   0.199  0.3021 -0.3964 -0.0392
24053SOL    HW172737   8.517   4.542   0.289 -1.9771 -0.4036 -0.8164
24053SOL    HW272738   8.645   4.556   0.209  0.2832 -1.7511  2.3489
24054SOL     OW72739   3.179   9.722   6.656 -0.0900  0.4166 -0.7895
24054SOL    HW172740   3.147   9.756   6.573  0.6241  2.5604 -0.2346
24054SOL    HW272741   3.272   9.743   6.657 -0.0110  0.1028  0.4035
24055SOL     OW72742   8.460   6.155   2.289  0.0310  0.1137 -0.0555
24055SOL    HW172743   8.375   6.180   2.324  0.4710 -1.7355  2.7112
24055SOL    HW272744   8.441   6.117   2.203 -1.8458  0.3370  0.2239
24056SOL     OW72745   7.667   8.771   4.997  0.2658 -0.5044 -0.0060
24056SOL    HW172746   7.672   8.681   5.030 -1.4077 -0.2120  1.1735
24056SOL    HW272747   7.676   8.762   4.902 -1.0956 -2.0874 -0.0404
24057SOL     OW72748   2.108   3.323   5.721 -0.2134 -0.5113  0.2211
24057SOL    HW172749   2.141   3.381   5.652 -0.0344 -0.7687  0.0890
24057SOL    HW272750   2.013   3.336   5.719 -0.1697 -0.1760  0.2361
24058SOL     OW72751   0.495   6.640   8.955 -0.0458 -0.2156  0.0698
24058SOL    HW172752   0.488   6.561   8.902  2.3696 -1.7427  1.8081
24058SOL    HW272753   0.459   6.615   9.041  1.7701  0.1218  0.9853
24059SOL     OW72754   1.515   3.310   8.089  0.5125  0.3218  0.3403
24059SOL    HW172755   1.444   3.271   8.039  0.4822 -0.3230  0.8772
24059SOL    HW272756   1.589   3.311   8.029  0.3519 -0.0219  0.1354
24060SOL     OW72757   6.758   1.877   1.047 -0.1007  0.5763  0.5984
24060SOL    HW172758   6.823   1.900   1.113  0.4012  1.4530 -0.1802
24060SOL    HW272759   6.694   1.948   1.050 -0.8745 -0.1194  1.1379
24061SOL     OW72760   9.913   3.807   1.773 -0.2311 -0.1100  0.1766
24061SOL    HW172761   9.927   3.721   1.734  1.9343 -0.5460  1.7503
24061SOL    HW272762   9.906   3.790   1.867  1.7261  1.5352  0.6885
24062SOL     OW72763   4.045   7.617   9.946 -0.3927  0.3566 -0.2675
24062SOL    HW172764   3.986   7.543   9.963 -0.1227  0.5899  1.8503
24062SOL    HW272765   4.072   7.605   9.855 -0.6258 -1.9593 -0.0806
24063SOL     OW72766   0.462   2.643   8.549 -1.0623  0.0590  0.0969
24063SOL    HW172767   0.459   2.738   8.559  0.7891  0.6813 -3.6534
24063SOL    HW272768   0.522   2.613   8.617 -1.1604  1.6110  0.9091
24064SOL     OW72769   7.312   2.350   5.697  0.6130  0.6425 -0.6150
24064SOL    HW172770   7.243   2.406   5.734  1.2583  1.5682 -0.7839
24064SOL    HW272771   7.384   2.356   5.759  0.3325 -0.8656 -0.0893
24065SOL     OW72772   5.636   8.137   5.608 -0.5952 -0.2250  0.4119
24065SOL    HW172773   5.663   8.210   5.551  1.0158  0.2640  1.7170
24065SOL    HW272774   5.707   8.074   5.601 -0.7866 -0.5363  1.2231
24066SOL     OW72775   0.242   9.722   2.692  0.5943  0.2433 -0.0848
24066SOL    HW172776   0.319   9.732   2.747  0.7495 -0.2472 -0.2098
24066SOL    HW272777   0.209   9.634   2.712 -0.3933  0.7362  0.5554
24067SOL     OW72778   8.192   7.022   6.650 -0.1798 -0.2694  0.1695
24067SOL    HW172779   8.259   7.009   6.583 -0.8333 -1.4933 -0.2737
24067SOL    HW272780   8.238   7.005   6.733  0.5474  0.9397  0.0506
24068SOL     OW72781   5.116   2.373   3.225  0.5897  0.1333  0.7316
24068SOL    HW172782   5.152   2.285   3.233  1.6089  0.5938  1.2647
24068SOL    HW272783   5.153   2.407   3.144 -1.4010 -0.6350 -0.5899
24069SOL     OW72784   1.291   5.746   5.074 -0.0077 -0.2081  0.7164
24069SOL    HW172785   1.245   5.795   5.006 -0.0964 -0.3147  0.7002
24069SOL    HW272786   1.335   5.814   5.126 -1.3067  0.0084  1.5777
24070SOL     OW72787   1.970   6.859   8.760  0.2817 -0.1760  0.8395
24070SOL    HW172788   1.926   6.782   8.724  0.0643 -0.9810  2.6897
24070SOL    HW272789   1.901   6.906   8.808  0.7690  0.2642  1.1240
24071SOL     OW72790   3.501   5.453   1.146 -0.0924  0.1664  0.2749
24071SOL    HW172791   3.533   5.365   1.130 -0.4489 -0.2000  1.4581
24071SOL    HW272792   3.504   5.496   1.061  0.0188 -1.0035 -0.3295
24072SOL     OW72793   9.220   8.717   8.801 -0.0093  0.1984  0.5289
24072SOL    HW172794   9.307   8.688   8.776  0.4924  1.0595  1.2110
24072SOL    HW272795   9.233   8.807   8.833 -1.5895  1.6224 -2.3630
24073SOL     OW72796   3.842   2.704   4.097 -0.1542  0.5300  0.6529
24073SOL    HW172797   3.870   2.712   4.005  0.1725 -0.1087  0.6894
24073SOL    HW272798   3.899   2.636   4.133 -0.0267  1.0390  1.4356
24074SOL     OW72799   6.712   2.987   2.112  0.1607 -0.4729 -0.0243
24074SOL    HW172800   6.772   2.912   2.107 -0.2094 -0.8877  1.3418
24074SOL    HW272801   6.758   3.057   2.066  1.9524 -0.6335  1.4189
24075SOL     OW72802   6.416   8.644   8.918 -0.1924 -0.3478  0.9328
24075SOL    HW172803   6.483   8.587   8.956  0.1802  0.1992  1.1117
24075SOL    HW272804   6.451   8.732   8.927 -0.0273 -0.1956 -0.8098
24076SOL     OW72805   1.420   5.257   7.059 -0.3194 -0.2429 -0.0814
24076SOL    HW172806   1.351   5.200   7.025 -0.3491 -0.0003 -0.4397
24076SOL    HW272807   1.436   5.225   7.147  0.6459 -1.6814 -0.7503
24077SOL     OW72808   5.678   6.597   0.930  0.3133 -0.3146  0.2060
24077SOL    HW172809   5.604   6.597   0.992  0.2124  0.7855  0.0918
24077SOL    HW272810   5.742   6.656   0.969  0.3137  0.2691 -0.6622
24078SOL     OW72811   2.894   3.183   6.755 -0.0273  0.4265 -0.4624
24078SOL    HW172812   2.962   3.116   6.751 -0.4508 -0.0124 -0.4748
24078SOL    HW272813   2.938   3.264   6.731 -0.0949 -0.2908 -3.4928
24079SOL     OW72814   5.418   6.570   1.244  0.0549 -0.2411 -0.5774
24079SOL    HW172815   5.487   6.633   1.223 -0.4311  0.6079  0.3360
24079SOL    HW272816   5.375   6.605   1.322 -1.3234 -0.8275 -1.0360
24080SOL     OW72817   4.773   5.118   2.131  0.0073  0.2206  0.0195
24080SOL    HW172818   4.711   5.182   2.096  1.4765  0.9336 -1.3834
24080SOL    HW272819   4.856   5.140   2.090  0.7596 -2.0511  0.2075
24081SOL     OW72820   2.698   0.268   7.821 -0.1196 -0.7025  0.3370
24081SOL    HW172821   2.644   0.195   7.792  1.1212 -1.3790 -0.3807
24081SOL    HW272822   2.770   0.271   7.757 -0.3136  1.3645  0.1565
24082SOL     OW72823   5.401   0.391   4.219  0.4339 -0.0760 -0.1520
24082SOL    HW172824   5.461   0.386   4.294 -0.6581  1.9129  0.9227
24082SOL    HW272825   5.451   0.440   4.153 -0.2734  2.5373  1.1307
24083SOL     OW72826   0.776   3.641   9.922 -0.0008 -0.0480 -0.0579
24083SOL    HW172827   0.804   3.586   9.995 -0.4555 -0.8420 -0.4743
24083SOL    HW272828   0.681   3.650   9.934  0.2475  2.0019  0.9152
24084SOL     OW72829   2.698   9.638   5.384 -0.0295  0.5331 -0.4935
24084SOL    HW172830   2.718   9.567   5.323  1.2204  0.8403 -0.4732
24084SOL    HW272831   2.739   9.715   5.344 -1.8940  1.4063 -0.8382
24085SOL     OW72832   1.040   0.748   0.223  0.0408 -0.8781 -0.1787
24085SOL    HW172833   1.043   0.795   0.140 -0.5088 -1.1478 -0.3544
24085SOL    HW272834   1.066   0.813   0.289  0.1599 -0.5782 -0.5197
24086SOL     OW72835   7.225   3.790   5.564 -0.0549  0.9242  0.0554
24086SOL    HW172836   7.244   3.795   5.657 -1.5137  2.1189  0.3238
24086SOL    HW272837   7.135   3.823   5.556 -1.1543 -2.0426 -1.3743
24087SOL     OW72838   6.126   4.253   8.453  0.1611  0.2214 -0.2288
24087SOL    HW172839   6.078   4.218   8.378 -1.1108  1.9885 -0.3028
24087SOL    HW272840   6.175   4.328   8.417  0.4871  0.3491  0.4735
24088SOL     OW72841   6.021   2.933   0.249  0.0810 -0.0958 -0.3952
24088SOL    HW172842   6.073   2.854   0.231 -1.1219 -0.9840 -0.1219
24088SOL    HW272843   5.958   2.937   0.177  1.5504  1.9382 -1.6786
24089SOL     OW72844   9.751   2.177   9.352  0.1929  0.1131 -0.4474
24089SOL    HW172845   9.794   2.249   9.307  3.5420 -1.4474 -0.1085
24089SOL    HW272846   9.745   2.108   9.286 -1.4650  0.1136 -0.3341
24090SOL     OW72847   4.009   1.401   0.894 -0.1107 -0.0396  0.1662
24090SOL    HW172848   4.099   1.396   0.926 -0.4235  0.3148  1.1324
24090SOL    HW272849   3.956   1.366   0.966 -0.8153  0.6128 -0.0264
24091SOL     OW72850   1.295   4.384   1.361  0.1051 -0.1709 -0.0727
24091SOL    HW172851   1.245   4.388   1.443  0.7134 -1.4110  0.3847
24091SOL    HW272852   1.326   4.474   1.348 -2.5077  0.7482 -0.5831
24092SOL     OW72853   3.103   0.610   0.379 -0.2712  0.4264 -0.0777
24092SOL    HW172854   3.014   0.607   0.413 -0.3041  1.8767  0.0304
24092SOL    HW272855   3.109   0.535   0.320 -0.4915 -1.6526  2.3941
24093SOL     OW72856   4.573   6.475   1.075  0.4522 -0.0622  0.0105
24093SOL    HW172857   4.573   6.385   1.042 -0.7719 -1.3298  3.0886
24093SOL    HW272858   4.656   6.483   1.122 -0.3135 -0.3692  1.4795
24094SOL     OW72859   6.822   1.227   3.987  0.0010 -0.0616  0.3448
24094SOL    HW172860   6.786   1.145   3.953 -2.6615  1.1260  0.0814
24094SOL    HW272861   6.761   1.253   4.056  0.8394  1.6481  0.4963
24095SOL     OW72862   7.602   8.507   7.701 -0.3255  0.1658 -0.9556
24095SOL    HW172863   7.672   8.570   7.716  0.9612 -1.3460 -0.4095
24095SOL    HW272864   7.621   8.469   7.615  1.5775 -2.6546  0.5529
24096SOL     OW72865   8.333   1.900   4.700 -0.4597  0.0525  0.1611
24096SOL    HW172866   8.316   1.912   4.607 -0.5002  0.1748  0.1840
24096SOL    HW272867   8.349   1.989   4.733 -1.7162  0.1622  0.5258
24097SOL     OW72868   1.683   8.841   8.423 -0.2130  0.0993 -0.2622
24097SOL    HW172869   1.710   8.933   8.420 -1.4099  0.4954  0.5277
24097SOL    HW272870   1.736   8.803   8.493 -0.0577  0.2899 -0.2746
24098SOL     OW72871   5.981   5.647   5.484  0.1064  0.0940  0.2327
24098SOL    HW172872   6.002   5.740   5.497 -0.2366  0.4175 -1.3353
24098SOL    HW272873   5.954   5.641   5.392 -0.5588 -1.4376  0.4999
24099SOL     OW72874   0.787   9.913   0.930 -0.1837  0.1803  0.6382
24099SOL    HW172875   0.809   9.905   1.023 -0.3535  0.1145  0.6733
24099SOL    HW272876   0.868   9.891   0.884  0.1388  1.0171  0.7812
24100SOL     OW72877   8.462   0.207   7.027 -0.4492  0.1409  0.1381
24100SOL    HW172878   8.457   0.192   6.932 -0.9718  2.5109 -0.2750
24100SOL    HW272879   8.391   0.269   7.045  0.4661  0.7492  1.8641
24101SOL     OW72880   2.946   9.682   4.649 -0.1973 -0.2495 -0.1021
24101SOL    HW172881   3.000   9.605   4.665 -0.3833 -0.4679 -0.4872
24101SOL    HW272882   2.866   9.667   4.700  0.6516  0.7215  1.5837
24102SOL     OW72883   6.326   2.715   2.161  0.1716 -0.2662  0.2108
24102SOL    HW172884   6.387   2.650   2.126  0.8695 -0.0401  0.9689
24102SOL    HW272885   6.291   2.759   2.084  0.8904 -0.4721 -0.2466
24103SOL     OW72886   8.946   2.733   2.085 -0.5958  0.1745 -0.0409
24103SOL    HW172887   8.962   2.655   2.139  0.3052  0.8341  0.6664
24103SOL    HW272888   8.921   2.801   2.148  1.6836  1.2910 -0.2550
24104SOL     OW72889   8.135   6.683   6.290  0.2611 -0.1591  0.2668
24104SOL    HW172890   8.173   6.613   6.236  1.3767  0.5544  0.1062
24104SOL    HW272891   8.174   6.763   6.257  0.2441  0.3920  1.5264
24105SOL     OW72892   3.295   9.774   1.148 -0.2586  0.4280 -0.0677
24105SOL    HW172893   3.217   9.720   1.134  1.4524 -1.6553 -2.5697
24105SOL    HW272894   3.348   9.723   1.209 -0.1616  1.1032  0.4283
24106SOL     OW72895   1.366   4.255   8.761 -0.5798  0.8760  0.7495
24106SOL    HW172896   1.382   4.179   8.816  0.3242 -0.0874 -0.7520
24106SOL    HW272897   1.431   4.319   8.790  0.2398  0.1884  0.4924
24107SOL     OW72898   2.458   4.300   6.952 -0.3503  0.3486  0.3445
24107SOL    HW172899   2.510   4.235   7.000  1.4760  0.6559 -1.0578
24107SOL    HW272900   2.444   4.371   7.014 -0.8704 -0.6338  1.3754
24108SOL     OW72901   0.569   8.081   1.588 -0.1502  0.2378  0.2917
24108SOL    HW172902   0.652   8.117   1.619  1.1466 -0.7415 -1.8000
24108SOL    HW272903   0.543   8.018   1.656 -0.5003  2.2324  2.1253
24109SOL     OW72904   4.968   7.875   9.531 -0.0170  0.2927 -0.1816
24109SOL    HW172905   5.037   7.816   9.504 -0.3236 -0.6395  0.9844
24109SOL    HW272906   4.887   7.830   9.507 -0.2401  0.6550 -0.1184
24110SOL     OW72907   6.248   4.846   0.351 -0.4812 -0.1980  0.2743
24110SOL    HW172908   6.214   4.776   0.297 -2.5009 -1.1404  2.5452
24110SOL    HW272909   6.289   4.802   0.425  1.6530  1.0341 -0.0904
24111SOL     OW72910   2.774   1.004   5.020  0.9462  0.0587  0.3142
24111SOL    HW172911   2.734   0.942   4.959  1.5747  0.0970 -0.1499
24111SOL    HW272912   2.861   1.022   4.982  0.8191  1.1206  0.4974
24112SOL     OW72913   2.959   7.805   3.703  0.3627  0.4420 -0.2669
24112SOL    HW172914   2.926   7.845   3.783  0.2323 -0.6771  0.2538
24112SOL    HW272915   3.053   7.827   3.701  0.3424  0.5572  0.1320
24113SOL     OW72916   7.625   4.219   3.477 -0.1232 -0.0355 -0.0317
24113SOL    HW172917   7.666   4.211   3.391  1.0252 -1.9707  0.6273
24113SOL    HW272918   7.531   4.217   3.459  0.0302 -2.9276 -1.1632
24114SOL     OW72919   2.293   9.050   9.698 -0.3017  0.2955  0.2088
24114SOL    HW172920   2.272   9.027   9.607 -1.5849  3.6752 -0.5103
24114SOL    HW272921   2.364   9.114   9.691  0.0198  0.1229  1.6348
24115SOL     OW72922   6.989   4.392   7.301 -0.0546 -0.4912 -0.7714
24115SOL    HW172923   6.986   4.483   7.271  0.1300  0.2815  1.4253
24115SOL    HW272924   7.082   4.371   7.305 -0.0310 -0.2275  0.2417
24116SOL     OW72925   6.703   3.160   3.486 -0.3074 -0.6189 -0.0333
24116SOL    HW172926   6.658   3.132   3.565 -0.1880 -2.1081 -0.4724
24116SOL    HW272927   6.795   3.167   3.511 -0.2454 -1.2558 -0.0808
24117SOL     OW72928   3.249   9.833   7.087  0.2763  0.6725 -0.3194
24117SOL    HW172929   3.172   9.794   7.047 -0.2823 -0.2808  1.5635
24117SOL    HW272930   3.320   9.815   7.025 -0.7500  0.3607 -1.4415
24118SOL     OW72931   0.955   7.030   7.982  0.0377  0.1128  0.1046
24118SOL    HW172932   0.884   6.998   8.038  0.4755 -1.0269  0.0273
24118SOL    HW272933   0.973   6.958   7.921  1.7989  0.0528  0.6397
24119SOL     OW72934   1.242   5.101   3.428  0.8105 -0.3828  0.1675
24119SOL    HW172935   1.219   5.178   3.376 -0.7473  0.0133  1.3796
24119SOL    HW272936   1.164   5.084   3.481  2.2225 -0.9198  2.1713
24120SOL     OW72937   7.239   2.741   3.318 -0.4962 -0.2653  0.2223
24120SOL    HW172938   7.257   2.662   3.369  1.7705  0.9034  1.3718
24120SOL    HW272939   7.251   2.813   3.379  0.5741  1.1035 -1.4874
24121SOL     OW72940   2.706   9.136   1.612 -0.3100 -0.5980  0.0283
24121SOL    HW172941   2.712   9.216   1.560  1.0438  0.2571  1.4229
24121SOL    HW272942   2.619   9.141   1.654  0.7048  1.5084  2.1054
24122SOL     OW72943   6.354   6.768   6.339  0.4196  0.9983  0.6560
24122SOL    HW172944   6.380   6.684   6.302  1.5686  1.4087  0.4928
24122SOL    HW272945   6.277   6.748   6.393 -1.6978  0.4432 -2.2956
24123SOL     OW72946   2.657   4.587   2.646  0.0198  0.7715  0.7146
24123SOL    HW172947   2.734   4.634   2.678  0.8622  1.0052 -1.5131
24123SOL    HW272948   2.690   4.500   2.622 -0.6581  0.4796  0.8046
24124SOL     OW72949   9.153   4.612   7.322  0.1029 -0.0927  0.4692
24124SOL    HW172950   9.066   4.579   7.300 -0.1323  0.5244  0.4810
24124SOL    HW272951   9.204   4.533   7.340  0.0395 -0.5802 -1.2898
24125SOL     OW72952   8.885   9.921   8.535  0.1781  0.8180  0.6144
24125SOL    HW172953   8.856   9.890   8.621  1.0712  0.6629  0.8730
24125SOL    HW272954   8.958   9.863   8.513  1.0363  1.9032  0.5167
24126SOL     OW72955   7.852   3.756   3.013 -0.4669 -0.3008  0.4498
24126SOL    HW172956   7.762   3.744   2.981 -0.7828 -0.6567  1.4392
24126SOL    HW272957   7.855   3.708   3.095  0.6253 -0.2498  0.4583
24127SOL     OW72958   9.317   9.155   6.494 -0.1768 -0.3069  0.1189
24127SOL    HW172959   9.273   9.088   6.442  1.3875  0.3731 -2.2469
24127SOL    HW272960   9.386   9.189   6.437  0.7265  1.5631  2.1469
24128SOL     OW72961   8.927   5.689   4.550  0.3156 -0.5331 -0.0517
24128SOL    HW172962   8.975   5.607   4.564 -0.1052 -0.4015  2.5812
24128SOL    HW272963   8.994   5.757   4.557  0.0883 -0.4597  1.7630
24129SOL     OW72964   7.277   1.647   3.769  0.0816  0.2785  0.1721
24129SOL    HW172965   7.249   1.693   3.689  0.5371 -0.4862 -0.4483
24129SOL    HW272966   7.296   1.557   3.739 -0.3037 -0.1770  1.2569
24130SOL     OW72967   2.472   9.423   1.324  0.2911  1.0801 -0.6708
24130SOL    HW172968   2.393   9.373   1.343 -0.1109  2.0324  0.3184
24130SOL    HW272969   2.516   9.375   1.255  0.0813 -0.7961  0.4448
24131SOL     OW72970   6.217   5.167   7.639 -0.5737  0.4524  0.1136
24131SOL    HW172971   6.252   5.083   7.668 -0.9406 -0.3931 -1.7680
24131SOL    HW272972   6.225   5.224   7.716  1.7712 -0.6368  0.7797
24132SOL     OW72973   6.025   5.634   2.661  0.9007  0.5131  0.0273
24132SOL    HW172974   5.965   5.591   2.722  2.0767 -0.9273  0.2310
24132SOL    HW272975   5.985   5.620   2.575  0.0349  1.1683  0.3129
24133SOL     OW72976   5.730   0.908   5.935  0.2570 -0.4018  0.1443
24133SOL    HW172977   5.681   0.981   5.896  1.6950  1.0962  1.0131
24133SOL    HW272978   5.667   0.868   5.995 -0.8449 -0.4865 -1.0129
24134SOL     OW72979   8.791   8.110   4.971 -0.2386 -0.2985 -0.3924
24134SOL    HW172980   8.806   8.016   4.969 -1.8675 -0.5692 -1.0657
24134SOL    HW272981   8.747   8.130   4.888 -0.2823  0.9949 -0.0853
24135SOL     OW72982   1.004   1.565   2.024 -0.4527 -0.4394  0.7218
24135SOL    HW172983   1.056   1.530   2.096 -0.8106  0.8162  1.6307
24135SOL    HW272984   0.962   1.643   2.060 -2.6225 -1.1525 -0.1045
24136SOL     OW72985   7.660   0.614   7.565 -0.5560  0.4138 -0.0762
24136SOL    HW172986   7.739   0.569   7.534 -0.3251  1.0163 -0.3731
24136SOL    HW272987   7.588   0.569   7.520 -0.2499  1.0974 -1.2957
24137SOL     OW72988   3.857   8.798   4.655  0.1607  0.1856 -0.0647
24137SOL    HW172989   3.921   8.739   4.695  0.1767  0.5487  0.4576
24137SOL    HW272990   3.889   8.885   4.676 -0.6021  0.3724  0.3543
24138SOL     OW72991   6.586   6.353   2.670  0.0620  0.0881 -0.0743
24138SOL    HW172992   6.514   6.302   2.705 -0.3824  1.7128  1.4806
24138SOL    HW272993   6.626   6.295   2.605 -0.2277 -2.3520  1.7622
24139SOL     OW72994   9.465   8.747   1.582  0.6483  0.6488 -0.3922
24139SOL    HW172995   9.432   8.836   1.591 -0.8914  0.1901 -1.1093
24139SOL    HW272996   9.499   8.743   1.493 -1.4128 -0.0726 -1.2212
24140SOL     OW72997   9.330   7.761   5.656 -0.0392 -0.3161  0.0516
24140SOL    HW172998   9.419   7.791   5.675 -0.1085 -0.8278  1.3100
24140SOL    HW272999   9.320   7.775   5.562  1.0107  0.6752  0.0564
24141SOL     OW73000   1.392   5.162   2.160 -0.0909 -0.0629  0.5151
24141SOL    HW173001   1.438   5.245   2.174 -0.9548  0.2819  1.3588
24141SOL    HW273002   1.320   5.185   2.101 -0.5898 -0.1182  1.0978
24142SOL     OW73003   3.441   6.779   3.169  0.0352 -0.6054  0.0154
24142SOL    HW173004   3.517   6.789   3.110  1.0746 -1.9869  1.0488
24142SOL    HW273005   3.365   6.786   3.112  0.9850 -0.7553 -1.3100
24143SOL     OW73006   1.866   5.360   2.682  0.5899 -0.1403 -0.5697
24143SOL    HW173007   1.911   5.381   2.764  0.5496 -1.5221 -0.1670
24143SOL    HW273008   1.883   5.435   2.625  0.5723  0.8747  0.7154
24144SOL     OW73009   5.051   8.181   4.862 -0.3884  0.5081 -0.1752
24144SOL    HW173010   4.974   8.142   4.820 -1.7329  1.2008  1.5021
24144SOL    HW273011   5.049   8.146   4.951  1.8148 -0.1774 -0.3406
24145SOL     OW73012   0.174   5.444   0.213  0.2113 -0.0486 -0.0313
24145SOL    HW173013   0.146   5.368   0.162  1.8962 -0.8597  0.2120
24145SOL    HW273014   0.226   5.496   0.152  0.0966  0.2884  0.1543
24146SOL     OW73015   6.692   7.153   0.294 -0.1160 -0.7078 -0.1134
24146SOL    HW173016   6.615   7.108   0.328 -0.3025  0.0523  0.4740
24146SOL    HW273017   6.766   7.105   0.330 -0.3154 -0.3483  0.7928
24147SOL     OW73018   4.780   5.923   8.697  0.3406 -0.0123  0.4492
24147SOL    HW173019   4.819   5.875   8.624  1.1623  0.8864  0.2824
24147SOL    HW273020   4.824   6.008   8.696  0.9496 -0.2571  2.4922
24148SOL     OW73021   3.735   4.873   2.557 -0.2494  0.0375  0.4278
24148SOL    HW173022   3.665   4.811   2.578 -0.3427  0.0184  0.0544
24148SOL    HW273023   3.764   4.905   2.643  0.5269 -1.3083  0.7103
24149SOL     OW73024   8.487   3.710   8.767  0.6147  0.1014  0.8611
24149SOL    HW173025   8.392   3.712   8.778  0.6746  0.5571  1.3137
24149SOL    HW273026   8.504   3.625   8.728 -0.2480  1.0163 -1.7411
24150SOL     OW73027   1.924   1.420   9.621 -0.3033  0.2669 -0.0958
24150SOL    HW173028   1.838   1.437   9.660  0.0147  1.6078  0.0721
24150SOL    HW273029   1.906   1.408   9.527 -0.6369  1.0302 -0.1397
24151SOL     OW73030   0.129   0.929   5.624 -0.2192  0.1610  0.3301
24151SOL    HW173031   0.052   0.873   5.633 -0.4052  0.4573  0.6225
24151SOL    HW273032   0.180   0.889   5.554 -0.3741 -0.3437  0.4977
24152SOL     OW73033   4.096   9.213   4.227  0.1102 -0.5678  0.6408
24152SOL    HW173034   4.015   9.263   4.221 -0.1031 -0.6998  2.0917
24152SOL    HW273035   4.133   9.237   4.311  1.7498 -0.2885 -0.1166
24153SOL     OW73036   4.735   5.930   3.994  0.5110 -0.1903  0.1899
24153SOL    HW173037   4.765   5.847   4.032 -0.0628 -0.6860 -0.4049
24153SOL    HW273038   4.716   5.908   3.903 -0.3865  0.4204  0.2213
24154SOL     OW73039   5.832   8.378   0.165 -0.0714  0.2826  0.1611
24154SOL    HW173040   5.889   8.436   0.215 -0.8564  0.0156  1.3919
24154SOL    HW273041   5.846   8.292   0.203 -0.6999  0.0742 -0.0705
24155SOL     OW73042   7.945   7.603   5.509  0.5659 -0.3700 -0.1499
24155SOL    HW173043   8.037   7.612   5.485  0.6975 -0.5141  0.2944
24155SOL    HW273044   7.944   7.609   5.605  0.0376  0.3104 -0.1823
24156SOL     OW73045   0.320   8.873   8.048  0.5250 -0.6433  0.2094
24156SOL    HW173046   0.307   8.965   8.025  1.3615 -1.1884 -2.8232
24156SOL    HW273047   0.233   8.833   8.038  0.5823 -0.5701 -0.6587
24157SOL     OW73048   7.717   3.667   4.486 -0.1402 -0.3773  0.2216
24157SOL    HW173049   7.789   3.652   4.548  0.4000  0.9471 -0.0541
24157SOL    HW273050   7.724   3.596   4.423  1.2792  0.0121 -0.0957
24158SOL     OW73051   8.718   9.651   8.155 -0.5726  0.2925  0.1943
24158SOL    HW173052   8.784   9.714   8.126  0.0353  0.1695  1.2447
24158SOL    HW273053   8.768   9.576   8.186 -1.3110 -2.1498 -3.8410
24159SOL     OW73054   4.266   5.129   8.555  0.3333 -0.3175  0.4484
24159SOL    HW173055   4.247   5.054   8.499  0.8406  0.6811 -1.1228
24159SOL    HW273056   4.357   5.116   8.583  0.3340 -0.4208  0.3995
24160SOL     OW73057   9.561   5.983   2.337 -0.4137 -0.3008 -0.0060
24160SOL    HW173058   9.625   6.038   2.292 -1.2744 -0.9599 -2.2093
24160SOL    HW273059   9.608   5.903   2.359 -0.1047 -0.1924 -0.2730
24161SOL     OW73060   1.155   6.298   8.690  0.5776 -0.9526 -0.4577
24161SOL    HW173061   1.244   6.324   8.715  0.3331 -1.0659  0.5716
24161SOL    HW273062   1.147   6.207   8.720 -0.8334 -0.0784  2.1556
24162SOL     OW73063   1.707   3.666   5.762 -0.0114 -0.3676  0.1064
24162SOL    HW173064   1.633   3.717   5.795  0.5536  0.0862  0.7007
24162SOL    HW273065   1.666   3.590   5.719 -0.8120 -1.4480  2.5576
24163SOL     OW73066   0.905   4.662   0.288  0.7150 -0.2585  0.3453
24163SOL    HW173067   0.926   4.732   0.349  0.7434 -0.9698  1.1633
24163SOL    HW273068   0.908   4.704   0.202  1.0970  0.6529  0.7892
24164SOL     OW73069   6.189   2.623   6.816 -0.2046  0.2548 -0.7090
24164SOL    HW173070   6.267   2.599   6.866 -0.4347 -0.9741 -0.8979
24164SOL    HW273071   6.220   2.636   6.727 -0.0016  1.1523 -0.5120
24165SOL     OW73072   7.444   8.288   5.848  0.1022 -0.3107  0.3396
24165SOL    HW173073   7.422   8.295   5.941 -1.9774 -0.1320 -0.1361
24165SOL    HW273074   7.431   8.196   5.826  1.5819 -0.5736  0.4124
24166SOL     OW73075   9.050   3.113   8.560  0.1645  0.5480  0.0578
24166SOL    HW173076   8.974   3.150   8.605 -1.8256  0.1811 -2.7183
24166SOL    HW273077   9.063   3.171   8.484  0.4265 -1.2987 -1.3846
24167SOL     OW73078   8.408   3.458   4.195 -0.1801  0.0068  0.0999
24167SOL    HW173079   8.378   3.401   4.125 -0.0070  0.7926 -0.6308
24167SOL    HW273080   8.502   3.466   4.182  0.0640 -0.8471  1.1918
24168SOL     OW73081   2.843   1.441   6.428 -0.1083 -0.1655 -0.4762
24168SOL    HW173082   2.920   1.385   6.440  1.2353  1.9341  1.7941
24168SOL    HW273083   2.832   1.446   6.333  2.3119 -0.9224 -0.8881
24169SOL     OW73084   3.066   9.058   3.884  0.2342  0.5978  0.5979
24169SOL    HW173085   2.980   9.018   3.873 -0.2273  1.7064  0.0192
24169SOL    HW273086   3.078   9.064   3.979 -1.9916  3.7593  0.8600
24170SOL     OW73087   0.445   6.086   3.663 -0.3745 -0.0613 -0.1503
24170SOL    HW173088   0.473   6.139   3.737  0.2109  0.5055 -0.7590
24170SOL    HW273089   0.381   6.141   3.617 -2.3411 -1.2320  1.0732
24171SOL     OW73090   2.977   5.020   1.314  0.0031  0.2860 -0.1159
24171SOL    HW173091   2.919   5.080   1.361  0.8501  1.0585 -0.0243
24171SOL    HW273092   2.921   4.976   1.251 -0.9873 -0.1204  1.0102
24172SOL     OW73093   6.072   8.259   5.952  0.0300  0.1127 -0.2186
24172SOL    HW173094   6.049   8.196   5.884  0.8023  0.2546 -0.6208
24172SOL    HW273095   6.037   8.221   6.033  1.2701 -1.3036 -0.3017
24173SOL     OW73096   6.795   4.825   0.347  0.3118  0.0700 -0.2261
24173SOL    HW173097   6.788   4.785   0.261 -0.9445  1.7288 -0.9554
24173SOL    HW273098   6.709   4.810   0.387  1.1493 -1.4576  1.1592
24174SOL     OW73099   5.997   1.624   4.004 -0.5312 -0.1898 -0.1332
24174SOL    HW173100   5.933   1.578   3.950  0.3330 -0.3757 -1.0278
24174SOL    HW273101   6.064   1.654   3.942  0.2190  0.0599  0.7673
24175SOL     OW73102   3.819   5.071   7.826 -0.8927 -0.0409  0.8784
24175SOL    HW173103   3.817   5.165   7.845  0.0532  0.1565  0.0696
24175SOL    HW273104   3.865   5.065   7.742 -0.4288 -1.2705  1.2094
24176SOL     OW73105   4.296   6.587   3.592 -0.2701 -0.2036 -0.3282
24176SOL    HW173106   4.369   6.585   3.530  0.9171  0.0444  1.0215
24176SOL    HW273107   4.296   6.499   3.631  2.2060  0.9927  2.8315
24177SOL     OW73108   8.723   8.837   9.561 -0.2080  0.6605 -0.0674
24177SOL    HW173109   8.641   8.788   9.574  0.6859 -0.9671 -0.2690
24177SOL    HW273110   8.762   8.798   9.483  1.0115  1.0389  0.3366
24178SOL     OW73111   2.279   1.097   4.260  0.5143 -0.0243  0.5792
24178SOL    HW173112   2.332   1.077   4.336  1.2578 -1.1207 -0.2051
24178SOL    HW273113   2.218   1.024   4.252  1.0475 -0.3882 -0.3893
24179SOL     OW73114   6.839   3.735   4.632  0.2736 -0.5189  0.3240
24179SOL    HW173115   6.902   3.800   4.660 -0.5409  0.3177  0.2680
24179SOL    HW273116   6.826   3.751   4.538 -1.2446  0.4247  0.6620
24180SOL     OW73117   0.407   4.303   6.921  0.2149 -0.1572  0.3077
24180SOL    HW173118   0.394   4.234   6.856 -1.4557  2.4046 -2.3037
24180SOL    HW273119   0.320   4.317   6.958  0.0883  1.7837 -0.6239
24181SOL     OW73120   7.028   7.007   2.178 -0.1324 -0.1532 -0.0782
24181SOL    HW173121   6.946   7.036   2.217  0.6380  1.4335  0.4375
24181SOL    HW273122   7.063   6.943   2.241 -0.8355 -0.6355 -0.1727
24182SOL     OW73123   8.043   6.419   3.895  0.3502 -0.0137  0.5610
24182SOL    HW173124   8.039   6.474   3.817  0.0328 -0.6921  0.0846
24182SOL    HW273125   8.013   6.475   3.966 -2.0038 -0.1234 -0.2324
24183SOL     OW73126   5.888   4.426   2.358 -0.2436 -0.7012  0.5318
24183SOL    HW173127   5.859   4.335   2.353 -0.4742 -0.6100  0.2461
24183SOL    HW273128   5.906   4.451   2.267  0.8754 -0.8057  0.7023
24184SOL     OW73129   4.209   6.219   0.611  0.0265  0.4690  0.0630
24184SOL    HW173130   4.298   6.182   0.617 -0.3361 -0.2295  2.3836
24184SOL    HW273131   4.151   6.144   0.628 -0.9672  1.1195 -0.4050
24185SOL     OW73132   0.573   4.472   6.471  0.0609  0.2506 -0.1959
24185SOL    HW173133   0.514   4.489   6.545 -1.9202 -0.6458 -1.4958
24185SOL    HW273134   0.610   4.558   6.451 -0.5787  0.8024  0.8625
24186SOL     OW73135   3.815   6.849   2.505 -0.0281  0.6850 -0.4809
24186SOL    HW173136   3.731   6.837   2.463  0.3730  3.0447 -2.1677
24186SOL    HW273137   3.801   6.923   2.564  0.8072  0.9768 -0.6402
24187SOL     OW73138   6.177   2.010   8.036  0.4657 -0.0360 -0.1617
24187SOL    HW173139   6.094   2.001   8.084 -0.2375 -2.0187 -1.6198
24187SOL    HW273140   6.242   1.971   8.095 -0.1782 -1.2982 -0.2532
24188SOL     OW73141   9.142   6.300   7.371 -0.0517  0.2080 -0.5929
24188SOL    HW173142   9.212   6.326   7.310  0.3438  0.1658 -0.1620
24188SOL    HW273143   9.126   6.208   7.352  1.6200 -0.4397  0.8323
24189SOL     OW73144   6.613   5.220   0.643 -0.0556 -0.1307  0.0406
24189SOL    HW173145   6.597   5.294   0.702 -0.0449  0.4686 -0.7040
24189SOL    HW273146   6.578   5.248   0.559  1.1057 -0.4628 -0.5769
24190SOL     OW73147   0.199   2.738   6.408 -0.0673  0.3393 -0.3108
24190SOL    HW173148   0.108   2.711   6.409 -0.2603  0.9758 -0.2294
24190SOL    HW273149   0.247   2.661   6.377 -0.3474 -0.8019  1.9147
24191SOL     OW73150   5.450   7.290   3.369  0.1326  0.4445 -0.0240
24191SOL    HW173151   5.431   7.220   3.307 -1.1356 -0.1976  1.0390
24191SOL    HW273152   5.481   7.363   3.315  0.8780 -0.7153 -1.2025
24192SOL     OW73153   0.015   7.061   2.741  0.4220 -0.2784 -0.0124
24192SOL    HW173154  -0.070   7.093   2.770  0.9997 -0.2260  1.7022
24192SOL    HW273155   0.073   7.073   2.816  1.8063 -0.8869 -0.9353
24193SOL     OW73156   4.478   9.805   7.348 -0.0362  0.6656 -0.4106
24193SOL    HW173157   4.500   9.880   7.403  0.2212 -0.6676  1.3722
24193SOL    HW273158   4.535   9.735   7.379 -1.6041 -0.8070 -0.7375
24194SOL     OW73159   2.060   2.226   3.170  0.2492 -0.3377 -0.0139
24194SOL    HW173160   2.126   2.245   3.237  1.1806 -1.3658 -0.6007
24194SOL    HW273161   2.111   2.212   3.090 -0.8573  1.1290 -1.0190
24195SOL     OW73162   8.010   6.126   7.672 -0.4724  0.4182 -0.0110
24195SOL    HW173163   7.990   6.207   7.720 -1.2214  0.2784 -0.0702
24195SOL    HW273164   8.034   6.063   7.740 -0.7994  0.4327  0.1217
24196SOL     OW73165   9.537   4.753   8.939 -0.2695  0.1399 -0.2885
24196SOL    HW173166   9.554   4.731   9.030 -2.1806 -0.2955  0.0100
24196SOL    HW273167   9.487   4.834   8.942  0.3773  0.5896 -1.0225
24197SOL     OW73168   2.247   9.777   4.492  0.2044  0.1471 -0.1960
24197SOL    HW173169   2.153   9.772   4.475  0.1461 -0.6960  0.2758
24197SOL    HW273170   2.277   9.686   4.485  0.8515  0.3080  0.3749
24198SOL     OW73171   9.586   3.556   3.759  0.2420  0.2949 -0.0495
24198SOL    HW173172   9.550   3.529   3.843 -0.4365 -1.7627 -0.9409
24198SOL    HW273173   9.516   3.605   3.717  0.2612  0.5359  0.1941
24199SOL     OW73174   9.546   3.763   2.101  0.5214  0.1938  0.0010
24199SOL    HW173175   9.568   3.819   2.175  2.7741  1.1185 -1.2527
24199SOL    HW273176   9.451   3.766   2.096  0.4284  1.8290  1.5399
24200SOL     OW73177   3.266   7.543   9.251 -0.0304  0.3551  0.1288
24200SOL    HW173178   3.322   7.593   9.310  0.1791  0.2663  0.0069
24200SOL    HW273179   3.176   7.568   9.275  0.0514  0.2968  0.5032
24201SOL     OW73180   4.354   9.424   5.836 -0.2765  0.6116 -0.3058
24201SOL    HW173181   4.310   9.352   5.790  1.1727 -2.3495  2.5508
24201SOL    HW273182   4.288   9.459   5.895 -0.3482 -0.1083  0.0581
24202SOL     OW73183   9.758   4.284   1.386  0.3911 -0.0434 -0.2797
24202SOL    HW173184   9.747   4.379   1.390  0.9359  0.1514 -2.3713
24202SOL    HW273185   9.850   4.270   1.408  0.6563  0.0598 -1.2709
24203SOL     OW73186   5.598   1.631   8.621 -0.4578  0.0842  0.5135
24203SOL    HW173187   5.675   1.620   8.676  1.9649  0.0879 -2.5574
24203SOL    HW273188   5.555   1.546   8.622  1.2880 -0.8542  0.1017
24204SOL     OW73189   8.544   8.603   8.164  0.5287 -0.5942  0.3788
24204SOL    HW173190   8.483   8.676   8.150  0.3834 -1.0478 -1.6350
24204SOL    HW273191   8.590   8.593   8.081  0.5216 -2.8270  0.5689
24205SOL     OW73192   7.445   6.563   8.164 -0.9295  0.4905 -0.5487
24205SOL    HW173193   7.379   6.621   8.203 -0.5099 -0.0862  1.0811
24205SOL    HW273194   7.498   6.621   8.110 -1.2940  1.3974  0.0383
24206SOL     OW73195   3.863   8.701   6.470 -0.4036 -0.0428 -0.0269
24206SOL    HW173196   3.874   8.794   6.452 -0.4804 -0.1365 -0.5897
24206SOL    HW273197   3.883   8.691   6.563 -0.4056  0.5350  0.0353
24207SOL     OW73198   2.549   7.812   3.388  0.1015 -0.0166 -0.0021
24207SOL    HW173199   2.521   7.844   3.473  1.5082  1.0404  0.0929
24207SOL    HW273200   2.626   7.759   3.407  0.0794 -0.2527 -0.5610
24208SOL     OW73201   0.622   0.272   1.835  0.0817  0.1093  0.0242
24208SOL    HW173202   0.591   0.339   1.896  2.6221  0.8594  0.6180
24208SOL    HW273203   0.640   0.196   1.890 -2.2173 -0.9443 -0.5644
24209SOL     OW73204   9.068   1.296   5.598  0.2713 -0.4275 -0.5947
24209SOL    HW173205   9.041   1.236   5.668  2.8908 -0.7740  0.2398
24209SOL    HW273206   9.111   1.239   5.534  1.3193  0.3485 -0.5980
24210SOL     OW73207   1.109   2.207   4.704 -0.1166 -0.2635 -0.4692
24210SOL    HW173208   1.103   2.291   4.749  1.1100 -0.0612 -0.6312
24210SOL    HW273209   1.135   2.230   4.614 -0.2265 -0.7814 -0.6350
24211SOL     OW73210   0.461   7.304   7.644  0.2654  0.1300 -0.1544
24211SOL    HW173211   0.421   7.332   7.562 -1.9349  0.5262  0.9642
24211SOL    HW273212   0.409   7.228   7.672  1.6527 -0.6709  0.3555
24212SOL     OW73213   2.504   8.382   4.978  0.1954  0.7837 -0.0408
24212SOL    HW173214   2.589   8.414   4.950 -0.4953  0.5146 -2.6332
24212SOL    HW273215   2.460   8.355   4.898 -2.3177  0.8327  1.2207
24213SOL     OW73216   0.876   7.924   9.327 -0.1768 -0.0317  0.0220
24213SOL    HW173217   0.918   7.951   9.408 -1.8973 -0.1397  0.9821
24213SOL    HW273218   0.784   7.946   9.339 -0.5185 -0.3490 -1.7828
24214SOL     OW73219   9.746   3.536   7.752  0.3242  0.2900 -0.2355
24214SOL    HW173220   9.792   3.600   7.806 -1.2345  1.7416 -0.5582
24214SOL    HW273221   9.670   3.511   7.804  1.5589 -2.3923  0.4719
24215SOL     OW73222   0.935   5.439   6.535 -0.3605 -0.2643 -0.4954
24215SOL    HW173223   0.917   5.406   6.623  0.9446 -2.0838 -0.8731
24215SOL    HW273224   0.860   5.412   6.483  0.0540 -1.4744 -0.4871
24216SOL     OW73225   1.299   2.827   8.726 -0.5587  0.2036 -0.6181
24216SOL    HW173226   1.236   2.789   8.789 -1.4877  1.8359 -0.5107
24216SOL    HW273227   1.255   2.818   8.641  0.4843 -1.5429 -1.0352
24217SOL     OW73228   6.324   1.614   8.023  0.1325 -0.2346 -0.0545
24217SOL    HW173229   6.247   1.632   8.077 -0.1337 -0.3342 -0.3951
24217SOL    HW273230   6.398   1.646   8.075 -0.3308  2.0902 -0.7397
24218SOL     OW73231   5.641   9.868   5.007  0.1216 -0.7325 -0.0534
24218SOL    HW173232   5.696   9.943   4.985  0.2686 -1.1877 -1.2660
24218SOL    HW273233   5.695   9.815   5.066  0.4887 -0.5282 -0.2066
24219SOL     OW73234   8.433   4.596   6.803 -0.7177 -0.0983  0.1410
24219SOL    HW173235   8.432   4.537   6.879 -2.1782  1.1138  1.1100
24219SOL    HW273236   8.366   4.661   6.822  0.4939  1.6189 -1.1235
24220SOL     OW73237   9.042   4.779   4.391 -0.6225  0.0790  0.4449
24220SOL    HW173238   9.011   4.857   4.437 -0.6797 -0.1080  0.7267
24220SOL    HW273239   9.122   4.754   4.437 -0.7252 -0.1574  0.4981
24221SOL     OW73240   5.941   7.331   2.274  0.2848  0.0479 -0.4987
24221SOL    HW173241   6.036   7.322   2.276  0.1304 -2.7378 -1.8564
24221SOL    HW273242   5.908   7.250   2.313 -1.5930  1.3515  0.8228
24222SOL     OW73243   5.938   9.417   9.903  0.1423  0.0935 -0.2034
24222SOL    HW173244   5.856   9.417   9.952 -0.0189 -0.4292 -0.4664
24222SOL    HW273245   5.911   9.418   9.811  0.4299 -0.0753 -0.2924
24223SOL     OW73246   8.993   4.009   9.333 -0.5691  0.1554 -0.0791
24223SOL    HW173247   8.941   4.087   9.355  1.0879  1.2771  0.0674
24223SOL    HW273248   8.955   3.977   9.252 -0.6847  1.7148 -0.6677
24224SOL     OW73249   7.128   1.695   2.109  0.1952  0.1874 -0.0768
24224SOL    HW173250   7.179   1.711   2.030  1.1712 -0.1062  0.4770
24224SOL    HW273251   7.049   1.652   2.078  0.2496  0.6977 -0.9608
24225SOL     OW73252   1.303   8.606   9.204 -0.2294  0.0157  0.5671
24225SOL    HW173253   1.331   8.551   9.130 -3.1607  2.8793 -3.0934
24225SOL    HW273254   1.375   8.668   9.216  0.6429 -1.0068  0.7276
24226SOL     OW73255   1.451   4.736   1.931  0.1802 -0.4805 -0.1608
24226SOL    HW173256   1.411   4.823   1.935 -0.5750 -0.7977 -0.6234
24226SOL    HW273257   1.431   4.704   1.843  0.9207 -0.9084 -0.1825
24227SOL     OW73258   1.699   6.329   2.425  0.1223  0.0994  0.0805
24227SOL    HW173259   1.669   6.269   2.493 -0.7453 -0.1961 -0.5611
24227SOL    HW273260   1.703   6.415   2.469  2.9684 -0.6133  1.4822
24228SOL     OW73261   4.370   9.419   7.602  0.2500  0.1510  0.2469
24228SOL    HW173262   4.293   9.364   7.588  0.9938 -1.0472  0.7113
24228SOL    HW273263   4.408   9.430   7.514  0.2895 -0.3709  0.1962
24229SOL     OW73264   2.482   5.217   1.680 -0.1284 -0.1324  0.0813
24229SOL    HW173265   2.392   5.200   1.708 -0.0417 -0.6410  0.0642
24229SOL    HW273266   2.527   5.249   1.758  0.2581 -2.0633  0.7033
24230SOL     OW73267   4.639   3.546   8.599 -0.7419  0.2866  0.1873
24230SOL    HW173268   4.706   3.524   8.664 -0.0597  0.8997 -0.2925
24230SOL    HW273269   4.687   3.555   8.517 -1.6829 -1.0645 -0.5354
24231SOL     OW73270   3.984   7.303   2.820 -0.4498 -0.0832 -0.1745
24231SOL    HW173271   3.924   7.303   2.746 -0.8135  0.8253  0.1095
24231SOL    HW273272   3.939   7.353   2.888  0.7009  0.7622 -0.0096
24232SOL     OW73273   8.943   0.964   7.254  0.3549 -0.4635 -0.1238
24232SOL    HW173274   8.956   0.871   7.274 -0.7006 -0.9243 -1.3834
24232SOL    HW273275   8.953   0.969   7.159 -1.1901  0.3881 -0.2760
24233SOL     OW73276   2.948   5.914   3.491  0.3496 -0.2507  0.1791
24233SOL    HW173277   2.859   5.922   3.524  0.9656  2.8943  1.4563
24233SOL    HW273278   2.955   5.983   3.425  2.0521  0.1290  0.7138
24234SOL     OW73279   7.378   1.486   6.924 -0.1426 -0.4360 -0.2178
24234SOL    HW173280   7.312   1.461   6.859 -0.4662 -1.1500  0.3691
24234SOL    HW273281   7.329   1.529   6.994  0.0214 -0.8820  0.1778
24235SOL     OW73282   2.745   7.683   3.555 -0.5281 -0.5497  0.6294
24235SOL    HW173283   2.717   7.615   3.617 -0.5771  1.6714  3.2555
24235SOL    HW273284   2.819   7.725   3.598 -0.1080  0.6576 -1.1951
24236SOL     OW73285   6.920   6.071   4.578 -0.2346 -0.3825  0.1433
24236SOL    HW173286   6.866   6.072   4.657 -0.7493  0.0354 -0.2060
24236SOL    HW273287   6.889   6.146   4.528  0.5981 -0.2131 -0.1145
24237SOL     OW73288   2.740   6.988   4.351 -0.4514  0.1025 -0.0297
24237SOL    HW173289   2.765   6.904   4.312 -0.6594  0.7336 -1.6105
24237SOL    HW273290   2.717   7.043   4.276 -2.2734  0.9591  1.0925
24238SOL     OW73291   7.089   4.619   0.383 -0.1178 -0.0525 -0.2991
24238SOL    HW173292   7.066   4.707   0.412 -0.6113 -0.4345  0.5070
24238SOL    HW273293   7.167   4.631   0.329  0.1474  0.8198  0.2558
24239SOL     OW73294   1.635   4.660   6.682 -0.1322  0.0104 -0.3178
24239SOL    HW173295   1.594   4.736   6.725  0.8026  0.2922  0.1147
24239SOL    HW273296   1.591   4.654   6.598  0.1531  1.4038 -0.5990
24240SOL     OW73297   2.938   1.232   7.954  0.7709 -0.2109 -0.1115
24240SOL    HW173298   3.027   1.222   7.988  0.4683 -0.1462  0.7435
24240SOL    HW273299   2.917   1.324   7.968  0.6035 -0.2064 -0.3894
24241SOL     OW73300   4.204   1.621   0.249  0.1340 -0.2181  0.5922
24241SOL    HW173301   4.150   1.613   0.170  1.7655  0.8847 -0.6957
24241SOL    HW273302   4.140   1.624   0.321 -1.6933  2.6158 -0.9450
24242SOL     OW73303   5.218   4.370   5.663 -0.0228  0.2472 -0.6667
24242SOL    HW173304   5.238   4.440   5.724 -2.4979  0.4161  0.0448
24242SOL    HW273305   5.135   4.396   5.622  0.1314 -1.2128 -2.0166
24243SOL     OW73306   5.510   9.823   8.796  0.1852  0.0360  0.3663
24243SOL    HW173307   5.567   9.758   8.755 -0.2263 -0.3910  0.4749
24243SOL    HW273308   5.421   9.795   8.776 -0.0149  0.0727  1.1464
24244SOL     OW73309   1.256   3.349   3.814  0.7738  0.3459  0.4222
24244SOL    HW173310   1.347   3.343   3.786 -0.0730  0.2135 -2.5893
24244SOL    HW273311   1.217   3.412   3.754 -1.2855 -0.0962  1.2301
24245SOL     OW73312   0.234   4.788   9.119  0.0848  0.3450  0.1962
24245SOL    HW173313   0.289   4.709   9.128 -2.3751 -1.2465  3.4813
24245SOL    HW273314   0.158   4.759   9.070 -0.2224  1.0641  0.2397
24246SOL     OW73315   9.302   7.290   7.717 -0.0457 -0.2126  0.0502
24246SOL    HW173316   9.212   7.270   7.743 -0.3927 -0.5324 -1.3300
24246SOL    HW273317   9.294   7.330   7.631  1.2027 -1.3697 -0.6432
24247SOL     OW73318   5.891   9.699   4.776  0.0286  0.6870 -0.2900
24247SOL    HW173319   5.944   9.720   4.699 -0.5687 -0.0078 -0.9005
24247SOL    HW273320   5.949   9.716   4.850  0.8547  0.6610 -0.9205
24248SOL     OW73321   7.980   0.368   8.862  0.3836 -0.0245 -0.6728
24248SOL    HW173322   7.913   0.412   8.915  1.0238 -1.2044  1.2094
24248SOL    HW273323   8.017   0.438   8.808  0.1986  1.4191  0.9687
24249SOL     OW73324   6.176   2.306   0.596 -0.1959 -0.2963  0.0475
24249SOL    HW173325   6.101   2.342   0.548  1.4451  1.8169 -1.0379
24249SOL    HW273326   6.240   2.376   0.599  1.6271 -1.8992  1.3232
24250SOL     OW73327   0.298   6.342   8.457 -0.4979 -0.7156  0.2856
24250SOL    HW173328   0.221   6.316   8.407  0.0887 -0.5250 -0.7456
24250SOL    HW273329   0.335   6.260   8.488 -0.8919 -0.8337  0.4524
24251SOL     OW73330   0.511   6.828   4.022 -0.4237 -0.3706  0.1466
24251SOL    HW173331   0.591   6.869   3.988  0.7612  0.7390  3.8219
24251SOL    HW273332   0.484   6.767   3.953  1.9731  1.2089 -2.4088
24252SOL     OW73333   1.402   2.901   3.394 -0.0430  0.0372  0.3106
24252SOL    HW173334   1.335   2.871   3.456  0.6344  0.9764  1.5390
24252SOL    HW273335   1.469   2.833   3.398 -0.5589 -0.5286 -0.3573
24253SOL     OW73336   6.625   2.225   4.560 -0.2032  0.0518 -0.2296
24253SOL    HW173337   6.709   2.179   4.563 -0.5190 -0.5055  0.0319
24253SOL    HW273338   6.582   2.202   4.642 -1.1706 -0.7096 -0.9409
24254SOL     OW73339   5.806   9.868   9.148  0.1505  0.1263  0.3284
24254SOL    HW173340   5.716   9.893   9.130 -0.2189 -0.4022  1.3771
24254SOL    HW273341   5.813   9.777   9.118  0.0344 -0.1713  1.1820
24255SOL     OW73342   5.603   4.776   9.830 -0.0769 -0.4986 -0.2670
24255SOL    HW173343   5.696   4.801   9.839  0.0494 -1.1800  0.3974
24255SOL    HW273344   5.581   4.734   9.913 -0.0892 -3.2098 -1.5237
24256SOL     OW73345   4.844   9.275   4.550 -0.1734  0.0487  0.1121
24256SOL    HW173346   4.822   9.333   4.623  1.6215  0.8965  0.0424
24256SOL    HW273347   4.848   9.188   4.589 -1.0361  0.2274  0.6278
24257SOL     OW73348   6.896   1.077   6.866 -0.2120  0.3728 -0.3361
24257SOL    HW173349   6.931   0.993   6.838 -0.1214  0.4761 -0.5392
24257SOL    HW273350   6.973   1.130   6.887 -0.1984  0.8283 -1.4372
24258SOL     OW73351   0.772   6.911   8.130 -0.7094  0.4937  0.0988
24258SOL    HW173352   0.753   6.856   8.206 -1.9137  0.4573 -0.2113
24258SOL    HW273353   0.736   6.863   8.055  0.4929  0.5095 -0.5154
24259SOL     OW73354   8.081   5.892   5.029  0.3962 -0.4524  0.2617
24259SOL    HW173355   8.100   5.948   5.105  0.6683  0.4096 -0.4351
24259SOL    HW273356   8.159   5.898   4.974 -0.2805 -0.0847 -0.6806
24260SOL     OW73357   6.246   8.445   5.852 -0.6156  0.2970  0.2780
24260SOL    HW173358   6.301   8.367   5.851 -0.8030  0.1322  1.5841
24260SOL    HW273359   6.156   8.412   5.854 -0.6843  0.4870  2.1808
24261SOL     OW73360   4.245   8.109   4.887  0.0925 -0.4006 -1.1230
24261SOL    HW173361   4.318   8.160   4.850 -0.1423 -0.2542 -1.3947
24261SOL    HW273362   4.190   8.175   4.930  0.2720 -0.5489 -0.6729
24262SOL     OW73363   7.675   3.012   9.697  0.1387  0.2689 -0.2878
24262SOL    HW173364   7.613   3.001   9.769  0.3434 -0.0764 -0.1614
24262SOL    HW273365   7.749   3.060   9.736  0.5348 -0.4812 -0.0984
24263SOL     OW73366   8.810   6.571   1.233  0.0110  0.1478 -0.2115
24263SOL    HW173367   8.832   6.656   1.271  0.6941  0.9628 -2.3285
24263SOL    HW273368   8.761   6.526   1.302  1.0471  1.5984  1.5576
24264SOL     OW73369   7.602   1.102   1.566 -0.1646  0.4657 -0.1509
24264SOL    HW173370   7.517   1.059   1.575  0.1987 -0.2616 -0.1351
24264SOL    HW273371   7.585   1.193   1.589 -0.1087 -0.4213  4.3183
24265SOL     OW73372   1.410   8.315   4.860  0.2317 -0.7661  0.2878
24265SOL    HW173373   1.450   8.326   4.945  0.7202 -0.0052 -0.0298
24265SOL    HW273374   1.366   8.399   4.843 -0.9304 -1.3370  0.3309
24266SOL     OW73375   5.941   1.464   7.257 -0.7261  0.2093  0.0226
24266SOL    HW173376   5.979   1.377   7.242  1.8824  1.2265  0.1934
24266SOL    HW273377   5.910   1.462   7.347 -2.1885 -1.0024 -0.4608
24267SOL     OW73378   0.347   9.058   0.331  0.1815  0.1311  0.2568
24267SOL    HW173379   0.392   9.065   0.247 -0.2452 -0.0536  0.0150
24267SOL    HW273380   0.358   9.145   0.371  0.2017  0.2834 -0.0792
24268SOL     OW73381   6.184   3.255   3.897 -0.0028 -0.6535  0.1506
24268SOL    HW173382   6.212   3.294   3.815 -2.9879  1.2672 -0.1044
24268SOL    HW273383   6.161   3.330   3.953 -0.3927 -1.9647  1.8492
24269SOL     OW73384   3.903   2.496   9.267 -0.5005 -0.5168 -0.1124
24269SOL    HW173385   3.828   2.550   9.292 -0.1851 -0.2569  0.3045
24269SOL    HW273386   3.963   2.558   9.224 -1.4414 -1.1345 -2.4616
24270SOL     OW73387   9.999   2.377   7.568  0.0075 -0.0711 -0.1509
24270SOL    HW173388   9.983   2.450   7.508 -1.6738  1.0429  1.5288
24270SOL    HW273389   9.950   2.400   7.647 -0.8125 -3.1530  0.3713
24271SOL     OW73390   4.899   5.815   7.707 -0.0790 -0.0371 -0.2754
24271SOL    HW173391   4.857   5.886   7.659 -0.7344 -0.3766 -0.2201
24271SOL    HW273392   4.976   5.855   7.747  0.2183  0.3596 -1.2200
24272SOL     OW73393   7.128   3.708   0.456 -0.6213  0.5223  0.9379
24272SOL    HW173394   7.222   3.694   0.470 -0.5986 -0.2494  0.1123
24272SOL    HW273395   7.089   3.698   0.542 -0.1707 -1.2015  0.9687
24273SOL     OW73396   3.332   7.386   8.477 -0.6807 -0.2623  0.1184
24273SOL    HW173397   3.376   7.333   8.411  1.1472 -0.9090  1.7624
24273SOL    HW273398   3.273   7.325   8.522 -1.6402  0.0926 -0.6138
24274SOL     OW73399   7.734   5.500   8.381  0.4002 -0.0011  0.2936
24274SOL    HW173400   7.769   5.413   8.401 -0.1379 -0.9430 -2.3773
24274SOL    HW273401   7.777   5.525   8.299 -1.5201  0.9365 -0.5113
24275SOL     OW73402   3.114   8.927   5.886 -0.1943 -0.1407  0.4324
24275SOL    HW173403   3.128   8.994   5.952 -1.2406  0.3886  0.1324
24275SOL    HW273404   3.133   8.971   5.803 -2.3734  0.2924  0.0991
24276SOL     OW73405   8.091   9.752   7.014 -0.0750 -0.2774  0.3306
24276SOL    HW173406   8.063   9.768   7.104  1.5084 -0.6359  0.9055
24276SOL    HW273407   8.162   9.813   6.998 -0.6810  0.1532 -0.8816
24277SOL     OW73408   8.132   3.398   8.904  0.5395  0.0403 -0.6577
24277SOL    HW173409   8.158   3.477   8.951 -0.1055  0.1599 -0.4898
24277SOL    HW273410   8.085   3.345   8.968  0.3358 -0.1479 -0.9555
24278SOL     OW73411   2.663   3.313   1.250 -0.1053  0.1135  0.0149
24278SOL    HW173412   2.693   3.403   1.243  0.3128 -0.0929 -1.0974
24278SOL    HW273413   2.672   3.292   1.343  1.3950  0.6831  0.0311
24279SOL     OW73414   8.906   4.114   7.256  0.0277 -0.3353 -0.1842
24279SOL    HW173415   8.872   4.090   7.170  0.5158  0.5055 -0.6257
24279SOL    HW273416   8.974   4.049   7.274  0.9615  0.3516 -1.1198
24280SOL     OW73417   4.424   4.456   2.068  0.9688  0.7086 -0.0419
24280SOL    HW173418   4.338   4.439   2.107  0.6628  0.1820 -0.8978
24280SOL    HW273419   4.422   4.549   2.045 -0.3978  0.2097 -2.3323
24281SOL     OW73420   7.461   6.840   4.150 -0.4401 -0.1266  0.0622
24281SOL    HW173421   7.454   6.883   4.064  0.0854 -0.0435  0.0536
24281SOL    HW273422   7.524   6.894   4.198  0.5072 -1.0803 -0.0701
24282SOL     OW73423   9.835   0.592   1.641 -0.3689 -0.0305  0.4626
24282SOL    HW173424   9.852   0.578   1.734  0.8051  0.0429  0.2698
24282SOL    HW273425   9.793   0.678   1.638 -1.7223 -0.6426  1.0421
24283SOL     OW73426   8.625   0.505   5.518  0.7346  0.4502 -0.4650
24283SOL    HW173427   8.625   0.584   5.464 -1.2521  1.4114  0.8030
24283SOL    HW273428   8.657   0.534   5.604 -1.6745  0.4089  0.5452
24284SOL     OW73429   5.198   7.222   6.256  0.1253 -0.2254 -0.3324
24284SOL    HW173430   5.197   7.295   6.319 -0.7723 -0.2144 -0.3443
24284SOL    HW273431   5.108   7.189   6.257  0.6452 -1.6815  0.0679
24285SOL     OW73432   3.590   5.573   4.841 -0.5193 -0.3122  0.3117
24285SOL    HW173433   3.647   5.611   4.775 -0.3794 -1.7465 -0.4287
24285SOL    HW273434   3.502   5.580   4.804 -0.7102  0.8076  0.9287
24286SOL     OW73435   9.277   8.410   6.352 -0.3674  0.0093  0.1907
24286SOL    HW173436   9.369   8.437   6.354 -1.3208  3.6507  1.8424
24286SOL    HW273437   9.249   8.424   6.262  0.0907  1.2877  0.2357
24287SOL     OW73438   0.812   3.299   2.579  0.3333  0.2545  0.1901
24287SOL    HW173439   0.841   3.208   2.570  1.4405  0.5750  0.3980
24287SOL    HW273440   0.799   3.328   2.489 -1.5500 -0.5468  0.1389
24288SOL     OW73441   1.261   8.735   4.392  0.3346 -0.0276  0.1903
24288SOL    HW173442   1.189   8.672   4.378  0.2598  0.1307 -0.1288
24288SOL    HW273443   1.286   8.721   4.484 -1.5826  1.4377  1.0140
24289SOL     OW73444   5.507   2.819   7.034  0.0459  0.3614  0.3083
24289SOL    HW173445   5.528   2.726   7.019  1.0597  0.5494  0.4363
24289SOL    HW273446   5.420   2.831   6.996  0.2461 -0.4568 -0.4424
24290SOL     OW73447   3.010   6.935   0.115 -0.4149 -0.3771  0.1038
24290SOL    HW173448   3.076   6.868   0.134 -1.4128 -2.2871 -2.5334
24290SOL    HW273449   2.940   6.919   0.178  2.1146  2.8092  4.1514
24291SOL     OW73450   9.078   1.152   0.706 -0.0068 -0.9386  0.5269
24291SOL    HW173451   9.171   1.176   0.707  0.3411 -2.1811 -0.1606
24291SOL    HW273452   9.077   1.058   0.688 -1.4053 -0.9521  0.5254
24292SOL     OW73453   8.008   9.125   5.365 -0.0325  1.1601  0.6642
24292SOL    HW173454   8.011   9.201   5.424 -3.1299  1.5715  0.4540
24292SOL    HW273455   7.961   9.157   5.288  0.9221 -0.3131 -0.5801
24293SOL     OW73456   7.300   3.731   3.305  0.5389 -0.2659  0.2387
24293SOL    HW173457   7.377   3.787   3.294  0.4323 -0.0452  0.5908
24293SOL    HW273458   7.325   3.647   3.268  1.1489 -0.3661  0.8753
24294SOL     OW73459   5.692   9.533   7.380 -0.1220  0.4484 -0.1339
24294SOL    HW173460   5.695   9.584   7.299  1.0759  1.1396  0.3148
24294SOL    HW273461   5.781   9.539   7.415 -0.0417 -1.6932  0.1069
24295SOL     OW73462   7.929   6.375   2.310 -0.0815 -0.2647 -0.0573
24295SOL    HW173463   8.017   6.394   2.276  0.1168 -0.1066  0.5314
24295SOL    HW273464   7.943   6.312   2.380 -0.1914  1.3547  1.4919
24296SOL     OW73465   3.281   6.418   7.099  0.4648 -0.5230 -0.0789
24296SOL    HW173466   3.338   6.485   7.137 -0.0341  0.6275 -1.2484
24296SOL    HW273467   3.339   6.364   7.046  1.1416 -2.0561  2.0776
24297SOL     OW73468   9.855   6.587   8.994 -0.4422 -0.9870 -0.1052
24297SOL    HW173469   9.936   6.571   8.946 -1.1748 -2.4577 -0.8915
24297SOL    HW273470   9.883   6.633   9.073  1.3229 -2.6335  0.2884
24298SOL     OW73471   7.343   7.855   9.560 -0.5882 -0.3231  0.3727
24298SOL    HW173472   7.334   7.760   9.556  0.2668 -0.4557  1.2474
24298SOL    HW273473   7.343   7.876   9.653 -0.9043  0.5572  0.1873
24299SOL     OW73474   4.658   4.127   6.146  0.3841  0.1828 -0.1687
24299SOL    HW173475   4.656   4.126   6.050 -1.3826  0.3563 -0.1598
24299SOL    HW273476   4.660   4.034   6.171  2.8264  0.1325 -0.3469
24300SOL     OW73477   3.553   0.586   2.154 -0.4793  0.1032 -1.1917
24300SOL    HW173478   3.535   0.494   2.136 -1.0811 -0.5785  2.2437
24300SOL    HW273479   3.604   0.585   2.234  0.3128  2.7831 -1.5653
24301SOL     OW73480   1.883   5.371   6.836 -0.2450  0.0724 -0.0405
24301SOL    HW173481   1.803   5.380   6.887 -1.4260 -3.4307 -0.9505
24301SOL    HW273482   1.857   5.393   6.746  0.0838  0.0224 -0.1496
24302SOL     OW73483   6.995   6.947   1.919 -0.4348  0.3272 -0.2921
24302SOL    HW173484   6.909   6.986   1.901  0.5798  2.8930 -0.0327
24302SOL    HW273485   7.012   6.967   2.011  0.8777  0.8304 -0.6190
24303SOL     OW73486   0.020   5.942   9.358  0.2657  0.1301  0.0919
24303SOL    HW173487  -0.007   5.981   9.275 -1.0025  1.2668  0.9897
24303SOL    HW273488   0.068   6.011   9.403 -1.5459  0.5612  1.4802
24304SOL     OW73489   4.970   1.713   4.895 -0.0114 -0.1574  0.2980
24304SOL    HW173490   5.032   1.644   4.871 -0.4319 -0.2896 -0.4163
24304SOL    HW273491   4.978   1.777   4.825  0.5444  0.6529  1.0707
24305SOL     OW73492   9.648   9.570   7.256 -0.5080  0.0491  0.3162
24305SOL    HW173493   9.701   9.642   7.222  1.6591 -1.2168  0.7777
24305SOL    HW273494   9.712   9.505   7.285 -2.2729 -3.3411 -2.5864
24306SOL     OW73495   7.789   6.529   7.420  0.6506  0.3555 -0.4935
24306SOL    HW173496   7.875   6.504   7.386  1.4225  2.1794 -0.0499
24306SOL    HW273497   7.809   6.598   7.484 -0.9577 -0.8922  1.4794
24307SOL     OW73498   4.905   6.217   4.892  0.2440  0.0143  0.2748
24307SOL    HW173499   4.927   6.130   4.928 -2.0161 -0.2624  1.1396
24307SOL    HW273500   4.926   6.211   4.799  0.7716 -1.2327  0.4554
24308SOL     OW73501   2.356   6.657   8.159 -0.5558  0.2493 -0.3546
24308SOL    HW173502   2.347   6.569   8.124 -2.8758  0.4344 -0.3971
24308SOL    HW273503   2.293   6.709   8.109  0.5115  1.8591 -0.0913
24309SOL     OW73504   6.261   9.420   7.515  0.2105 -0.1931 -0.1196
24309SOL    HW173505   6.189   9.367   7.481  1.3562 -1.0182 -1.3176
24309SOL    HW273506   6.336   9.361   7.517  0.9918  0.7924  0.6443
24310SOL     OW73507   8.835   6.086   6.361 -0.0082 -0.8769 -0.7054
24310SOL    HW173508   8.881   6.068   6.443 -2.4954 -1.9309  0.5606
24310SOL    HW273509   8.869   6.022   6.299  2.5598  0.5084 -0.8501
24311SOL     OW73510   2.923   9.062   9.406  0.3122  0.0073 -0.3636
24311SOL    HW173511   2.997   9.110   9.443  0.8784 -0.2215 -1.1522
24311SOL    HW273512   2.857   9.128   9.389  0.6508  0.3427 -0.3864
24312SOL     OW73513   4.358   3.466   2.209  0.4028  0.3190  0.0097
24312SOL    HW173514   4.353   3.433   2.119 -0.9510 -0.1492  0.2248
24312SOL    HW273515   4.440   3.515   2.213  0.7646 -0.1443 -1.3103
24313SOL     OW73516   4.264   2.948   6.001 -0.2926  0.1328  0.7068
24313SOL    HW173517   4.330   2.948   5.932  0.6143  0.2162  1.5585
24313SOL    HW273518   4.265   2.858   6.035 -2.5241 -0.6531 -1.0155
24314SOL     OW73519   3.721   5.225   2.966 -0.1521  0.4063 -0.4473
24314SOL    HW173520   3.670   5.156   2.922 -1.5567  0.6890  0.6723
24314SOL    HW273521   3.665   5.255   3.037  0.3565  2.8402 -0.9872
24315SOL     OW73522   1.159   3.419   6.900  0.5668 -0.4906  0.4340
24315SOL    HW173523   1.089   3.408   6.835  1.2473 -1.7694 -0.1115
24315SOL    HW273524   1.119   3.469   6.970 -0.3846  0.3662 -0.6755
24316SOL     OW73525   0.519   3.960   7.858  0.5847  0.4653 -0.0400
24316SOL    HW173526   0.543   4.008   7.937  2.0298  1.6361 -1.1072
24316SOL    HW273527   0.500   4.029   7.794 -0.2135 -0.4458 -0.8134
24317SOL     OW73528   7.529   3.217   4.223 -0.2504  0.2435 -0.1918
24317SOL    HW173529   7.487   3.132   4.208  0.8631 -0.2468 -0.6834
24317SOL    HW273530   7.548   3.249   4.135  1.6251 -0.2064 -0.0023
24318SOL     OW73531   6.727   5.463   3.855 -0.1705  0.3014  0.0818
24318SOL    HW173532   6.801   5.521   3.838 -0.2158  0.8052  1.4533
24318SOL    HW273533   6.721   5.459   3.951 -0.7425 -1.2401  0.0124
24319SOL     OW73534   1.174   9.586   3.662  0.2177 -0.7250 -0.0345
24319SOL    HW173535   1.173   9.651   3.733 -3.0688  0.1010 -0.6737
24319SOL    HW273536   1.101   9.528   3.683 -1.7672  0.3311 -3.3137
24320SOL     OW73537   8.957   9.893   6.146  0.0313  0.0994  0.3173
24320SOL    HW173538   9.003   9.962   6.192  0.9792 -0.9582  0.9938
24320SOL    HW273539   8.864   9.913   6.159  0.2941  0.9321  0.9643
24321SOL     OW73540   9.020   5.149   8.891 -0.0742  0.3756 -0.0167
24321SOL    HW173541   8.979   5.078   8.842  0.4352 -0.8084  1.2020
24321SOL    HW273542   9.067   5.199   8.825 -0.0563 -0.6927 -0.8507
24322SOL     OW73543   2.107   7.055   9.577  0.1285  0.0216  0.4962
24322SOL    HW173544   2.052   7.112   9.630 -0.7201 -1.6700  1.5348
24322SOL    HW273545   2.193   7.057   9.621 -0.4100 -0.9181  1.6662
24323SOL     OW73546   8.784   4.659   7.147 -0.0556 -0.0399 -0.4103
24323SOL    HW173547   8.713   4.595   7.141  0.9869 -1.3392  0.4782
24323SOL    HW273548   8.764   4.710   7.225 -0.1645 -0.2392 -0.3051
24324SOL     OW73549   7.808   9.623   7.875 -0.2746 -0.0236 -0.3724
24324SOL    HW173550   7.835   9.531   7.874 -1.1494 -0.2927 -0.6178
24324SOL    HW273551   7.820   9.651   7.966 -1.1644 -0.7531 -0.0133
24325SOL     OW73552   3.484   8.272   2.707  0.0037  0.1215 -0.5723
24325SOL    HW173553   3.563   8.279   2.761  0.0964 -0.4371 -0.6270
24325SOL    HW273554   3.494   8.340   2.640  0.3710  0.1492 -0.4917
24326SOL     OW73555   3.011   8.882   0.912 -0.4406 -0.5261  0.5724
24326SOL    HW173556   3.004   8.874   1.007 -0.4450 -0.1201  0.6081
24326SOL    HW273557   3.061   8.805   0.885 -1.1614 -1.0836  0.8067
24327SOL     OW73558   3.900   8.886   5.240  0.2188  0.1689  0.3469
24327SOL    HW173559   3.976   8.899   5.296  0.9844 -0.6785 -0.4742
24327SOL    HW273560   3.936   8.866   5.154 -0.9275 -0.5378  0.0113
24328SOL     OW73561   2.840   0.935   5.436 -0.1191  0.1691  0.0278
24328SOL    HW173562   2.788   0.931   5.516 -0.2163  3.1186  0.2041
24328SOL    HW273563   2.777   0.955   5.367  0.4379  1.6650 -0.0925
24329SOL     OW73564   7.341   3.700   2.482 -0.0290  0.0842  0.4242
24329SOL    HW173565   7.302   3.723   2.567 -1.8315  0.8118 -0.5407
24329SOL    HW273566   7.420   3.651   2.504 -0.5524  0.0907  2.5204
24330SOL     OW73567   1.829   0.313   4.223  0.0312 -0.0157  0.2781
24330SOL    HW173568   1.918   0.334   4.253 -0.0560  1.1839 -0.2521
24330SOL    HW273569   1.820   0.359   4.140 -0.7081 -1.0454 -0.2432
24331SOL     OW73570   5.711   6.103   0.682  0.3149  0.7751  0.0224
24331SOL    HW173571   5.684   6.194   0.695 -0.6645  0.4842  0.1311
24331SOL    HW273572   5.733   6.072   0.770  1.3679  1.1057 -0.1062
24332SOL     OW73573   8.658   5.786   8.486 -0.2987 -0.0561  0.6434
24332SOL    HW173574   8.605   5.859   8.453 -0.3432 -0.3964 -0.0542
24332SOL    HW273575   8.595   5.715   8.501 -0.1777 -0.1340  0.7900
24333SOL     OW73576   5.455   2.448   9.796 -0.0160  0.4585 -0.1089
24333SOL    HW173577   5.396   2.469   9.724 -1.0356 -1.0427  0.2359
24333SOL    HW273578   5.502   2.370   9.767 -2.0378 -1.5283  1.6197
24334SOL     OW73579   8.692   6.606   0.999  0.1840 -0.2808  0.0213
24334SOL    HW173580   8.691   6.519   0.961 -0.5492 -1.1855  1.9787
24334SOL    HW273581   8.745   6.597   1.078  0.8327  1.2755 -0.2046
24335SOL     OW73582   5.094   3.499   2.465 -0.5321  0.2356 -0.4305
24335SOL    HW173583   5.075   3.478   2.374  0.0343 -1.2355 -0.2384
24335SOL    HW273584   5.035   3.571   2.486 -0.3532  0.9046 -2.0803
24336SOL     OW73585   8.276   7.808   8.279 -0.0477 -0.2292 -0.6528
24336SOL    HW173586   8.367   7.811   8.248  0.5930 -0.8141  1.0367
24336SOL    HW273587   8.283   7.831   8.372 -1.6793 -0.0394 -0.5613
24337SOL     OW73588   2.083   1.230   6.492  0.6369  0.0384  0.2264
24337SOL    HW173589   2.071   1.324   6.508  0.2385  0.1316 -0.5556
24337SOL    HW273590   2.106   1.224   6.399  1.3388 -0.5894  0.4346
24338SOL     OW73591   7.870   2.629   8.285 -0.1699 -0.3881  0.4209
24338SOL    HW173592   7.827   2.576   8.352  3.0171  0.4589  3.4123
24338SOL    HW273593   7.876   2.571   8.209 -0.1588 -2.9999  2.2730
24339SOL     OW73594   0.926   7.225   0.686 -0.1523 -0.4316  0.0029
24339SOL    HW173595   0.981   7.288   0.638 -0.6650 -0.3625 -0.4962
24339SOL    HW273596   0.902   7.272   0.766  1.5288 -0.9042  0.8397
24340SOL     OW73597   8.734   9.947   4.961 -0.0645  0.1179  0.4369
24340SOL    HW173598   8.801   9.918   5.024 -0.2475 -1.4699 -0.0479
24340SOL    HW273599   8.733   9.877   4.895 -1.5257  0.6078 -0.0775
24341SOL     OW73600   8.491   8.142   0.309 -0.2660  0.1980  0.4261
24341SOL    HW173601   8.458   8.167   0.223  1.7845 -1.1156 -0.8031
24341SOL    HW273602   8.546   8.066   0.293 -1.4450 -1.3804  3.1935
24342SOL     OW73603   4.205   8.629   1.723  0.1856 -0.6800  0.2544
24342SOL    HW173604   4.223   8.722   1.707  1.3646 -0.6147  1.7233
24342SOL    HW273605   4.256   8.582   1.657 -1.3157 -0.3149 -1.2544
24343SOL     OW73606   2.520   6.790   1.863 -0.3767  0.3106 -0.0296
24343SOL    HW173607   2.456   6.844   1.908 -0.7788 -0.9749  0.9898
24343SOL    HW273608   2.581   6.763   1.932 -0.2806 -0.6557 -0.4797
24344SOL     OW73609   8.183   3.927   5.022 -0.6766 -0.1453 -0.4047
24344SOL    HW173610   8.151   3.941   4.933 -0.4941  0.1161 -0.4298
24344SOL    HW273611   8.269   3.887   5.011  0.0407  1.3571 -0.3708
24345SOL     OW73612   9.674   2.298   3.926 -0.6776  0.3262  0.0839
24345SOL    HW173613   9.647   2.252   3.847  0.1333  2.0626 -1.2868
24345SOL    HW273614   9.660   2.391   3.906 -1.4402  0.7798  2.3890
24346SOL     OW73615   3.632   2.309   0.112 -0.5539  0.0605  0.0668
24346SOL    HW173616   3.667   2.247   0.048 -0.2155  1.2826 -0.9760
24346SOL    HW273617   3.600   2.254   0.184 -0.7145 -1.3375 -1.0349
24347SOL     OW73618   7.984   2.662   3.601 -0.4745  0.1519 -0.1712
24347SOL    HW173619   7.893   2.654   3.629 -0.2107  1.0385  1.0837
24347SOL    HW273620   7.989   2.749   3.562 -0.6507 -0.7783 -2.3659
24348SOL     OW73621   7.727   2.096   0.722  0.3010 -0.5735 -0.4156
24348SOL    HW173622   7.677   2.015   0.714 -2.3338  0.9123 -0.0530
24348SOL    HW273623   7.686   2.157   0.660  2.1888  0.5405 -0.6663
24349SOL     OW73624   3.019   7.282   4.514  0.1370  0.3262 -0.1748
24349SOL    HW173625   2.962   7.343   4.468 -0.7710 -0.1500  0.2905
24349SOL    HW273626   2.959   7.222   4.558  0.9867  0.1524  0.7862
24350SOL     OW73627   1.728   0.273   9.671 -0.0190 -0.2531  0.2093
24350SOL    HW173628   1.724   0.325   9.752  1.7104 -0.5310  0.5223
24350SOL    HW273629   1.724   0.338   9.601  2.7684  0.4559  0.5999
24351SOL     OW73630   6.229   6.559   2.942 -0.5535 -0.2273 -0.3023
24351SOL    HW173631   6.277   6.567   3.025  1.4611 -4.1432 -0.8473
24351SOL    HW273632   6.137   6.554   2.969 -0.1021  0.3000  1.5169
24352SOL     OW73633   0.278   6.159   1.498 -0.5425  0.0742  0.1713
24352SOL    HW173634   0.336   6.084   1.493 -1.7092 -0.8464 -0.0167
24352SOL    HW273635   0.222   6.141   1.574  0.0928  1.4496  0.9943
24353SOL     OW73636   1.740   1.931   2.111 -0.5104  0.0086  0.6913
24353SOL    HW173637   1.746   1.863   2.044 -0.9184 -0.1496  0.8079
24353SOL    HW273638   1.746   1.884   2.194 -0.6330  0.1320  0.7715
24354SOL     OW73639   5.592   5.207   2.665 -0.8048  0.0999 -0.2401
24354SOL    HW173640   5.624   5.218   2.755  3.1924  0.1124 -1.4499
24354SOL    HW273641   5.582   5.112   2.655 -0.9962  0.0768  0.1508
24355SOL     OW73642   4.184   9.433   8.523 -0.2310 -0.5336 -0.3721
24355SOL    HW173643   4.172   9.371   8.596  1.7678 -0.1854  0.3280
24355SOL    HW273644   4.191   9.377   8.446  0.7835 -1.1697  0.1500
24356SOL     OW73645   0.667   8.534   4.175  0.5777  0.5110 -0.3234
24356SOL    HW173646   0.744   8.589   4.162 -0.1638  1.3437 -1.2186
24356SOL    HW273647   0.638   8.511   4.087 -2.4514  3.3853 -0.2503
24357SOL     OW73648   5.954   3.887   7.180 -0.1379  0.1242  0.2969
24357SOL    HW173649   5.977   3.967   7.133  0.1814 -0.1382  0.0041
24357SOL    HW273650   5.996   3.817   7.130 -0.9485 -0.2874  0.1865
24358SOL     OW73651   5.742   4.654   8.225 -0.1768  0.1509  0.2310
24358SOL    HW173652   5.650   4.681   8.223 -0.2513  0.0313  1.3262
24358SOL    HW273653   5.787   4.727   8.268  0.1028 -0.1588  0.4653
24359SOL     OW73654   5.249   7.500   9.270 -0.0990 -0.0960  0.2650
24359SOL    HW173655   5.243   7.467   9.181  0.7869  0.1713  0.1032
24359SOL    HW273656   5.334   7.469   9.302  0.9752  2.3671 -0.0439
24360SOL     OW73657   5.789   5.343   6.546  0.7202 -0.3784  0.0166
24360SOL    HW173658   5.786   5.437   6.564  1.0867 -0.3502 -0.0698
24360SOL    HW273659   5.879   5.327   6.519  0.0834 -0.2980 -2.3793
24361SOL     OW73660   5.270   8.648   7.689 -0.1836  0.1433  0.1000
24361SOL    HW173661   5.245   8.633   7.780  0.6067 -1.2110  0.1231
24361SOL    HW273662   5.271   8.561   7.649 -1.5521  0.8047 -1.5103
24362SOL     OW73663   1.431   6.331   5.221  0.4693 -0.3030  0.2247
24362SOL    HW173664   1.443   6.368   5.133  0.0649 -0.4235  0.1191
24362SOL    HW273665   1.365   6.387   5.262  0.3001 -0.5441  0.2804
24363SOL     OW73666   2.533   9.442   3.067  0.0694 -0.1035  0.0725
24363SOL    HW173667   2.551   9.423   2.975  1.5369  1.5648 -0.0190
24363SOL    HW273668   2.455   9.498   3.065 -1.0695 -1.6060  0.0248
24364SOL     OW73669   7.462   0.101   6.031  0.5046 -0.4884 -0.0297
24364SOL    HW173670   7.546   0.061   6.053 -0.3096 -1.7596  0.9064
24364SOL    HW273671   7.439   0.063   5.946  1.4552  0.8926 -0.9725
24365SOL     OW73672   4.074   2.360   0.011  0.5213  0.0883  0.5036
24365SOL    HW173673   4.133   2.434   0.025  0.6140  0.1581 -0.2263
24365SOL    HW273674   3.988   2.393   0.038  0.9807 -0.4288  2.8496
24366SOL     OW73675   5.219   9.609   4.137 -0.0062  0.8619 -0.1241
24366SOL    HW173676   5.187   9.574   4.055  1.5935 -0.3627 -0.2817
24366SOL    HW273677   5.209   9.538   4.200 -0.4514  1.5021  0.5512
24367SOL     OW73678   9.814   1.488   0.235 -0.2910 -0.0699 -0.2890
24367SOL    HW173679   9.890   1.434   0.255  0.7935  1.1216 -1.0318
24367SOL    HW273680   9.767   1.496   0.318 -0.4436 -2.0440 -0.1415
24368SOL     OW73681   8.150   6.364   1.248  0.3621 -0.2321 -0.9415
24368SOL    HW173682   8.094   6.441   1.248 -0.4994 -0.8130 -2.2426
24368SOL    HW273683   8.097   6.296   1.205  1.5863 -1.1725 -1.0234
24369SOL     OW73684   4.811   6.355   5.598 -0.1660  0.3734  0.0426
24369SOL    HW173685   4.878   6.369   5.665  1.6614  1.7266 -1.9104
24369SOL    HW273686   4.841   6.279   5.549  0.1892  1.1956 -1.0634
24370SOL     OW73687   7.573   3.607   4.742 -0.3193  0.2341 -0.5230
24370SOL    HW173688   7.492   3.557   4.753 -0.1045 -0.1908 -0.8690
24370SOL    HW273689   7.631   3.549   4.693  0.7396 -0.0257  0.9744
24371SOL     OW73690   3.669   6.401   0.282 -0.0209 -0.2273  0.5563
24371SOL    HW173691   3.582   6.423   0.249 -0.2833 -1.4800  0.3587
24371SOL    HW273692   3.729   6.454   0.229 -0.7166  2.2298  2.0558
24372SOL     OW73693   9.914   1.745   0.364 -0.0912  0.2930 -0.5901
24372SOL    HW173694   9.945   1.662   0.328  0.9671 -0.0247  0.9301
24372SOL    HW273695   9.920   1.807   0.292  0.1316 -0.7079 -1.4578
24373SOL     OW73696   4.832   9.593   7.253  0.5749 -0.6427 -0.3563
24373SOL    HW173697   4.753   9.540   7.259 -0.7411  1.3328  0.7096
24373SOL    HW273698   4.803   9.683   7.267  2.9424  0.2166 -0.4181
24374SOL     OW73699   6.030   8.976   2.776  0.2900 -0.5659  0.5277
24374SOL    HW173700   6.125   8.968   2.764 -0.0768 -0.7740 -3.6616
24374SOL    HW273701   6.009   9.061   2.739 -1.1878 -0.4144  1.6374
24375SOL     OW73702   7.153   7.917   4.130 -0.3343 -0.2175  0.5168
24375SOL    HW173703   7.188   7.983   4.190  0.5724  0.8760 -1.1011
24375SOL    HW273704   7.229   7.866   4.104 -0.5863 -0.2502 -0.1790
24376SOL     OW73705   3.407   4.514   2.010  0.1919  0.1665 -0.2612
24376SOL    HW173706   3.499   4.501   2.033  0.3522 -0.2470 -1.0933
24376SOL    HW273707   3.405   4.503   1.915 -0.5578  1.1440 -0.3683
24377SOL     OW73708   6.526   1.738   2.897  0.6042 -0.1070 -0.4180
24377SOL    HW173709   6.472   1.734   2.976 -0.1663 -2.6290 -0.9568
24377SOL    HW273710   6.607   1.693   2.922  0.1735 -1.3383 -1.1215
24378SOL     OW73711   9.179   4.170   7.954 -0.2341 -0.7353 -0.0514
24378SOL    HW173712   9.238   4.241   7.927 -0.7178  1.3958  3.8317
24378SOL    HW273713   9.092   4.202   7.930 -0.2720 -1.4947 -1.0121
24379SOL     OW73714   5.999   7.930   4.726 -0.5628 -0.4049 -0.3509
24379SOL    HW173715   5.989   7.860   4.791 -1.2324  0.2096  0.2168
24379SOL    HW273716   5.977   8.010   4.773 -0.9411  0.0652 -1.3033
24380SOL     OW73717   9.724   7.884  -0.027 -0.1951  0.7478 -0.0629
24380SOL    HW173718   9.680   7.809   0.013 -0.2952  0.5967 -0.4551
24380SOL    HW273719   9.809   7.890   0.018 -0.4954  0.8656  0.4968
24381SOL     OW73720   2.668   3.837   1.322  0.3640 -0.0961  0.4525
24381SOL    HW173721   2.581   3.809   1.351  0.0202  0.4729 -0.0224
24381SOL    HW273722   2.681   3.921   1.366 -0.2546  0.8892 -1.1637
24382SOL     OW73723   4.427   9.681   6.806 -0.0466  0.1239 -0.0342
24382SOL    HW173724   4.410   9.763   6.852  0.2185  0.0189  0.2574
24382SOL    HW273725   4.459   9.622   6.874 -1.2882 -0.5657 -0.0197
24383SOL     OW73726   4.717   1.394   8.226 -0.1590 -0.2076  0.0986
24383SOL    HW173727   4.637   1.447   8.224 -0.7605 -1.0971 -0.0445
24383SOL    HW273728   4.694   1.317   8.277  0.5425 -0.5782 -0.1282
24384SOL     OW73729   4.691   9.703   9.815  0.3790 -0.3202  0.2802
24384SOL    HW173730   4.625   9.766   9.787  0.3559 -0.3268  0.3203
24384SOL    HW273731   4.775   9.748   9.802  0.3534 -0.2122  0.4851
24385SOL     OW73732   5.519   2.830   3.884 -0.4662 -0.2992  0.1715
24385SOL    HW173733   5.503   2.740   3.856  2.7439 -1.5559  1.8129
24385SOL    HW273734   5.554   2.873   3.806 -0.2940 -1.0424 -0.1743
24386SOL     OW73735   1.823   9.180   0.343 -0.1378 -0.2740  0.2398
24386SOL    HW173736   1.911   9.186   0.305  0.4836 -0.0583  1.6553
24386SOL    HW273737   1.764   9.179   0.267  0.9117  2.1676 -0.7088
24387SOL     OW73738   9.457   9.727   1.902 -0.2833 -0.8657 -0.0713
24387SOL    HW173739   9.478   9.745   1.810  2.2331 -2.1986  0.1464
24387SOL    HW273740   9.450   9.813   1.942 -1.1662 -0.2582 -1.4441
24388SOL     OW73741   8.971   4.556   6.044  0.0372  0.1608  0.3382
24388SOL    HW173742   8.992   4.539   6.136 -1.2980 -0.6871  0.5175
24388SOL    HW273743   8.997   4.476   5.998  0.4426  0.4750  0.0154
24389SOL     OW73744   7.220   5.553   0.270  0.0300  0.3810  0.1228
24389SOL    HW173745   7.195   5.461   0.271  1.1352  0.0634  1.5069
24389SOL    HW273746   7.158   5.594   0.210 -2.0361 -0.8229  1.3358
24390SOL     OW73747   1.398   1.175   2.726  0.6135 -0.5545  0.3347
24390SOL    HW173748   1.384   1.147   2.636 -1.5798 -1.8739  1.0186
24390SOL    HW273749   1.484   1.139   2.749  1.3401  0.0495 -1.2655
24391SOL     OW73750   3.746   2.363   4.298  0.3234  0.4410  0.2352
24391SOL    HW173751   3.800   2.289   4.327  1.1752  1.2378  0.7459
24391SOL    HW273752   3.725   2.410   4.379  0.8404  1.4385 -0.1941
24392SOL     OW73753   2.979   9.147   4.677 -0.3836  0.4530  0.4393
24392SOL    HW173754   2.947   9.206   4.746 -0.0832  0.8422  0.2524
24392SOL    HW273755   2.945   9.061   4.701 -2.2351  0.9641 -0.1644
24393SOL     OW73756   3.004   2.963   6.339 -0.5669  0.2032  0.4282
24393SOL    HW173757   2.949   2.919   6.405 -1.2419  0.0758 -0.2004
24393SOL    HW273758   3.010   3.053   6.369 -1.2680  0.2575  0.4279
24394SOL     OW73759   4.722   4.634   3.308  0.0741  0.0708  0.1927
24394SOL    HW173760   4.656   4.630   3.377  0.7269 -0.4260  0.8062
24394SOL    HW273761   4.672   4.624   3.227 -0.8096  1.5628  0.5069
24395SOL     OW73762   3.539   3.732   8.685 -0.5310  0.2391  0.5023
24395SOL    HW173763   3.549   3.804   8.622 -1.0494  0.6916  0.9224
24395SOL    HW273764   3.485   3.668   8.639  0.2536 -0.0618 -0.0148
24396SOL     OW73765   8.552   6.156   3.524  0.3303  0.1165 -0.1313
24396SOL    HW173766   8.637   6.197   3.543  0.0466  0.9682 -0.6440
24396SOL    HW273767   8.512   6.214   3.460  0.3772 -1.5710 -1.7482
24397SOL     OW73768   6.742   2.408   8.932 -0.2087  0.8295  0.0321
24397SOL    HW173769   6.791   2.466   8.873 -0.4649  0.6856 -0.3259
24397SOL    HW273770   6.809   2.350   8.969 -0.2266 -0.1050 -1.3062
24398SOL     OW73771   7.135   0.682   1.130  0.4479  0.1388  0.1797
24398SOL    HW173772   7.082   0.621   1.078 -0.8404  0.4888  1.0282
24398SOL    HW273773   7.217   0.690   1.081 -1.2731  1.7568 -2.7269
24399SOL     OW73774   5.521   0.064   2.459  0.4235  0.2054 -0.0031
24399SOL    HW173775   5.602   0.028   2.496  1.5973  1.2017 -1.4680
24399SOL    HW273776   5.508   0.014   2.378 -0.2563  0.2786  0.0568
24400SOL     OW73777   9.397   1.396   5.929  0.1439  0.1082  0.6636
24400SOL    HW173778   9.321   1.444   5.960 -1.2670 -2.1791  0.9764
24400SOL    HW273779   9.361   1.325   5.875  1.9921 -1.3112  1.1589
24401SOL     OW73780   7.937   7.965   5.639 -0.1772  0.0814  0.0538
24401SOL    HW173781   7.880   7.923   5.575 -0.7838 -0.7113  1.0859
24401SOL    HW273782   7.990   8.025   5.587 -1.7169  0.6084 -0.9858
24402SOL     OW73783   0.246   1.875   5.449 -0.1977  0.6021  0.0013
24402SOL    HW173784   0.333   1.863   5.486 -0.4866  0.5057  0.6564
24402SOL    HW273785   0.238   1.806   5.383 -0.8355 -1.2414  1.8889
24403SOL     OW73786   0.141   9.437   2.074 -0.3483  0.2798 -0.1308
24403SOL    HW173787   0.118   9.358   2.024 -0.1356  0.6956 -0.8866
24403SOL    HW273788   0.059   9.486   2.080 -0.5813 -0.1824  0.7017
24404SOL     OW73789   0.908   1.706   4.054 -0.3910 -0.3167 -0.0551
24404SOL    HW173790   0.893   1.753   3.972 -2.1544 -3.0993 -1.4559
24404SOL    HW273791   1.001   1.684   4.052 -0.4541 -0.5168 -1.4320
24405SOL     OW73792   5.972   1.852   7.719 -0.1886 -0.2537 -0.3169
24405SOL    HW173793   5.904   1.842   7.785  1.7158  0.0866  1.8227
24405SOL    HW273794   6.050   1.814   7.759  1.6425  2.1786 -1.3338
24406SOL     OW73795   1.236   6.422   5.722  0.0125  0.1888 -0.1406
24406SOL    HW173796   1.159   6.468   5.754  1.4119  0.7395  2.8140
24406SOL    HW273797   1.290   6.490   5.682  1.3058  1.0048  2.7007
24407SOL     OW73798   5.014   9.832   0.898 -0.0830 -0.1341 -0.5691
24407SOL    HW173799   5.104   9.832   0.867  0.1143  0.4110 -0.0133
24407SOL    HW273800   5.018   9.789   0.984  0.0389  1.9415  0.5130
24408SOL     OW73801   1.307   2.880   2.011 -0.0823  0.2829 -0.6015
24408SOL    HW173802   1.370   2.823   1.964 -1.0213 -0.7394 -0.6640
24408SOL    HW273803   1.318   2.966   1.970 -1.1856 -0.6713 -3.0758
24409SOL     OW73804   6.728   0.848   1.700 -0.2928 -0.5051  0.1319
24409SOL    HW173805   6.779   0.915   1.746 -1.4391 -0.0373  0.7822
24409SOL    HW273806   6.766   0.765   1.728  1.7863 -0.1555 -1.4356
24410SOL     OW73807   6.937   7.444   7.925  0.6523  0.4132 -0.3550
24410SOL    HW173808   6.918   7.406   7.840 -1.3219  0.2549  0.1106
24410SOL    HW273809   6.940   7.539   7.909  0.7265  0.3603 -0.6601
24411SOL     OW73810   0.727   5.314   2.103 -0.3133 -0.8454 -0.3666
24411SOL    HW173811   0.671   5.391   2.119 -1.5073 -1.8291  0.3581
24411SOL    HW273812   0.742   5.316   2.008  0.3683  0.7263 -0.2612
24412SOL     OW73813   2.493   7.450   1.940 -0.2349  0.2255 -0.1374
24412SOL    HW173814   2.432   7.379   1.922 -1.4524  1.2636 -0.2170
24412SOL    HW273815   2.555   7.412   2.002 -1.1454 -0.7574  0.2095
24413SOL     OW73816   8.865   2.163   3.661  0.4341  0.0683  0.0426
24413SOL    HW173817   8.884   2.242   3.712 -2.0518 -0.6506  2.2877
24413SOL    HW273818   8.935   2.102   3.686  1.3837  0.9339 -0.3876
24414SOL     OW73819   4.292   9.080   3.790  0.4432  0.0333 -0.3762
24414SOL    HW173820   4.203   9.048   3.774  0.5041  0.7385 -2.4545
24414SOL    HW273821   4.301   9.081   3.885 -1.7146 -0.2002 -0.1278
24415SOL     OW73822   6.754   7.626   9.957  0.0418 -0.4354 -0.2314
24415SOL    HW173823   6.798   7.541   9.957 -0.0407 -0.4834  0.9396
24415SOL    HW273824   6.806   7.680  10.016 -1.5154 -0.5364  1.3066
24416SOL     OW73825   9.767   9.827   1.218  0.2983  0.1946 -0.3353
24416SOL    HW173826   9.735   9.792   1.135 -0.6805  1.2900 -0.4403
24416SOL    HW273827   9.801   9.750   1.265  0.6768 -0.4623 -1.6494
24417SOL     OW73828   7.682   6.097   1.301  0.0738  0.3983 -0.7596
24417SOL    HW173829   7.661   6.173   1.355 -0.6889  1.5882 -2.6176
24417SOL    HW273830   7.628   6.027   1.337 -0.4245  1.1582  0.0153
24418SOL     OW73831   8.352   3.091   4.953 -0.2340  0.1730  0.3014
24418SOL    HW173832   8.327   3.180   4.977 -0.1431  0.5712 -0.9995
24418SOL    HW273833   8.351   3.091   4.857  0.4528 -1.0262  0.2759
24419SOL     OW73834   3.331   4.687   1.398 -0.3279  0.4166 -0.0212
24419SOL    HW173835   3.253   4.721   1.442 -0.7933 -0.2303 -0.3324
24419SOL    HW273836   3.401   4.699   1.462 -0.5704  1.4533  0.0835
24420SOL     OW73837   3.689   8.165   3.189  0.0308 -0.1112 -0.0698
24420SOL    HW173838   3.627   8.095   3.210  0.4088 -1.0284 -1.8400
24420SOL    HW273839   3.642   8.246   3.208 -0.4179 -0.8085  2.0077
24421SOL     OW73840   5.073   9.152   4.378  0.3205 -0.3322  0.3835
24421SOL    HW173841   5.063   9.062   4.348 -0.2793  0.5473 -2.3342
24421SOL    HW273842   4.989   9.194   4.358  0.9386  1.0911  0.6212
24422SOL     OW73843   0.864   6.886   7.455 -0.0412  0.4202 -0.3576
24422SOL    HW173844   0.948   6.866   7.413  0.8949 -0.6361  1.8853
24422SOL    HW273845   0.887   6.930   7.536 -1.8084  2.4062 -0.8412
24423SOL     OW73846   1.063   9.444   7.813  0.7201 -0.4360  0.1180
24423SOL    HW173847   1.101   9.531   7.828 -2.5446  1.0197  0.7807
24423SOL    HW273848   1.035   9.414   7.900 -0.6495 -0.8561 -0.4352
24424SOL     OW73849   0.634   6.666   6.434 -0.4124  0.4666 -0.1525
24424SOL    HW173850   0.573   6.611   6.483  1.6343  0.7848  3.0970
24424SOL    HW273851   0.698   6.605   6.398  0.5959  0.4871  1.5274
24425SOL     OW73852   8.914   7.426   2.677  0.3612  0.0501  0.6534
24425SOL    HW173853   8.976   7.486   2.718  0.4454  0.3103  0.1450
24425SOL    HW273854   8.828   7.465   2.691  0.4762  0.6869 -0.3416
24426SOL     OW73855   5.450   4.552   8.620 -0.1956  0.8050  0.2836
24426SOL    HW173856   5.520   4.556   8.685 -0.2023 -3.2663  0.7480
24426SOL    HW273857   5.476   4.482   8.560 -0.9694  3.2892 -3.3359
24427SOL     OW73858   5.461   6.902   0.298 -0.2873 -0.0562 -0.4332
24427SOL    HW173859   5.376   6.860   0.311  0.5813 -1.6839  0.1531
24427SOL    HW273860   5.507   6.845   0.237  1.0122 -0.0870  0.5569
24428SOL     OW73861   6.328   6.024   9.761 -0.1082 -0.2042 -0.1525
24428SOL    HW173862   6.288   6.060   9.682  0.7802 -0.5476 -0.7686
24428SOL    HW273863   6.280   5.943   9.778  0.9385 -1.1476 -1.4747
24429SOL     OW73864   3.004   6.577   1.149 -0.4543  0.0552  0.4499
24429SOL    HW173865   3.028   6.561   1.240 -1.0492  0.5151  0.6948
24429SOL    HW273866   2.914   6.612   1.153 -0.2676  0.6556 -0.2654
24430SOL     OW73867   9.597   9.879   2.112  0.3778 -0.2977 -0.6085
24430SOL    HW173868   9.616   9.785   2.111  0.5052 -0.3096  0.6635
24430SOL    HW273869   9.529   9.888   2.179  1.0310  0.6195 -0.0521
24431SOL     OW73870   2.337   2.838   9.785  0.5507  0.6602 -0.7184
24431SOL    HW173871   2.402   2.888   9.736 -0.5999  1.5664 -1.3687
24431SOL    HW273872   2.318   2.891   9.862 -1.4204  1.8417 -1.9081
24432SOL     OW73873   7.647   9.234   5.294  0.1753  0.7882 -0.0979
24432SOL    HW173874   7.592   9.295   5.245 -0.3915 -1.6700 -2.7652
24432SOL    HW273875   7.721   9.216   5.237 -0.0800 -1.5403  0.2002
24433SOL     OW73876   8.183   3.008   8.105  0.3521 -0.4259 -0.1616
24433SOL    HW173877   8.104   3.063   8.110  0.5236 -0.0893 -1.0117
24433SOL    HW273878   8.191   2.971   8.193 -0.4458 -0.0341  0.0932
24434SOL     OW73879   4.476   3.150   5.670 -0.4443 -0.1329 -0.6067
24434SOL    HW173880   4.511   3.234   5.700 -1.5386 -0.2831  1.2508
24434SOL    HW273881   4.396   3.137   5.722 -1.7252 -1.1247 -2.6633
24435SOL     OW73882   7.715   8.803   4.691  0.2635 -0.2876 -0.1528
24435SOL    HW173883   7.801   8.813   4.651  0.6316 -0.6555  0.5250
24435SOL    HW273884   7.663   8.876   4.657  0.5514 -0.6133 -1.3075
24436SOL     OW73885   4.597   5.025   3.496  0.1202 -0.1839  0.3647
24436SOL    HW173886   4.693   5.030   3.498  0.0898  0.9962 -0.5428
24436SOL    HW273887   4.572   5.076   3.420 -1.2628 -0.1932  0.7964
24437SOL     OW73888   7.110   3.897   3.950 -1.3066  0.1161  0.0521
24437SOL    HW173889   7.187   3.845   3.971 -1.5484 -0.3630 -0.2145
24437SOL    HW273890   7.143   3.968   3.895 -0.9719  0.2540  0.4272
24438SOL     OW73891   0.817   7.304   1.345 -0.5189 -0.1375  0.2721
24438SOL    HW173892   0.794   7.359   1.270  1.1254 -0.9658 -0.8759
24438SOL    HW273893   0.883   7.244   1.312 -0.5417 -1.2530  2.1225
24439SOL     OW73894   4.326   4.585   7.145  0.1961  0.2965  0.0473
24439SOL    HW173895   4.375   4.527   7.086 -0.5126  0.6506 -0.9122
24439SOL    HW273896   4.291   4.653   7.088 -0.8469  0.4269  0.8257
24440SOL     OW73897   9.009   6.522   8.635  0.4286  0.0796  0.3422
24440SOL    HW173898   9.078   6.490   8.575  0.8768  0.3531  0.7021
24440SOL    HW273899   9.051   6.594   8.682 -0.0276  0.0698  0.7619
24441SOL     OW73900   8.365   6.808   4.545  0.1587 -0.5669  0.5142
24441SOL    HW173901   8.407   6.878   4.594  0.7103 -0.3868 -0.1843
24441SOL    HW273902   8.437   6.749   4.522 -0.2530 -1.2046  0.8369
24442SOL     OW73903   3.426   6.456   0.816 -0.0673  0.1955 -0.1250
24442SOL    HW173904   3.370   6.436   0.741 -0.2018 -1.1790  0.3263
24442SOL    HW273905   3.367   6.496   0.879 -0.4158 -0.6635  0.0990
24443SOL     OW73906   0.895   9.098   1.601  0.3764 -0.4719  0.2146
24443SOL    HW173907   0.983   9.118   1.633 -0.5665 -0.2853  2.9625
24443SOL    HW273908   0.854   9.184   1.590  0.0748 -0.5899  0.4050
24444SOL     OW73909   0.871   5.764   5.046 -0.4023  0.0517  0.2293
24444SOL    HW173910   0.829   5.759   4.961 -0.2650  0.3136  0.1450
24444SOL    HW273911   0.942   5.827   5.035 -0.0784 -0.2705  0.4073
24445SOL     OW73912   0.073   2.227   9.310 -0.6941  0.0104 -0.4814
24445SOL    HW173913   0.032   2.142   9.328  0.0994 -0.1800  0.5035
24445SOL    HW273914   0.095   2.262   9.396 -0.5480  0.9843 -0.9085
24446SOL     OW73915   7.544   4.098   1.360  0.1551 -0.1599 -0.1179
24446SOL    HW173916   7.450   4.119   1.367 -0.0933 -1.4792  0.8227
24446SOL    HW273917   7.574   4.150   1.285 -1.2429  0.5627 -0.2231
24447SOL     OW73918   1.572   2.156   2.093 -0.8007 -0.2001  0.5037
24447SOL    HW173919   1.639   2.090   2.112  0.1943  0.2970 -1.1109
24447SOL    HW273920   1.620   2.237   2.081 -1.9778  0.8011  2.0826
24448SOL     OW73921   2.639   3.098   2.351  0.1474  0.6589 -0.0833
24448SOL    HW173922   2.729   3.065   2.342 -0.6994 -1.9846  0.5604
24448SOL    HW273923   2.584   3.020   2.350 -2.0238  2.0703  1.4145
24449SOL     OW73924   9.186   7.033   5.918  0.7764 -0.1034  0.0853
24449SOL    HW173925   9.175   7.047   6.012  2.1737  1.6816  0.0496
24449SOL    HW273926   9.280   7.017   5.907  0.5477 -0.8820 -0.9683
24450SOL     OW73927   9.317   9.867   3.465 -0.1002  0.2109 -0.2795
24450SOL    HW173928   9.333   9.817   3.385  2.7688  1.3111 -0.5046
24450SOL    HW273929   9.287   9.952   3.435 -1.3932 -0.1224 -0.0231
24451SOL     OW73930   8.317   0.723   0.363  0.5023  0.0729  0.3924
24451SOL    HW173931   8.256   0.745   0.292 -1.7640 -0.1299  2.1328
24451SOL    HW273932   8.274   0.756   0.442  2.8218  0.1007  1.7223
24452SOL     OW73933   3.733   5.030   0.178  0.2036 -0.0770  0.1854
24452SOL    HW173934   3.758   4.939   0.195 -2.4848 -1.4869 -2.5228
24452SOL    HW273935   3.798   5.060   0.114 -0.1511 -0.9007 -0.5922
24453SOL     OW73936   3.848   0.258   2.364  0.1131 -0.0075 -0.1730
24453SOL    HW173937   3.837   0.196   2.291  0.4470  1.3378 -1.4134
24453SOL    HW273938   3.894   0.332   2.326 -0.8075  1.2915  1.1131
24454SOL     OW73939   1.889   4.082   7.506 -0.3493 -0.3193 -0.2613
24454SOL    HW173940   1.804   4.057   7.543 -0.7763  0.4113 -0.7216
24454SOL    HW273941   1.874   4.085   7.412  0.5768 -1.5846 -0.4871
24455SOL     OW73942   8.817   5.824   7.264  0.1443  0.2703  0.1111
24455SOL    HW173943   8.744   5.880   7.291  0.9496  2.2842 -1.6218
24455SOL    HW273944   8.888   5.886   7.243  1.5252 -1.4885 -0.6202
24456SOL     OW73945   1.511   2.950   6.957  0.2362 -0.5076 -1.1441
24456SOL    HW173946   1.437   2.975   6.902  1.2904 -1.1372 -2.9420
24456SOL    HW273947   1.523   2.856   6.940  2.1545 -0.1831 -1.8481
24457SOL     OW73948   8.765   3.339   7.003  0.2351 -0.2852 -0.6053
24457SOL    HW173949   8.746   3.261   6.950  1.2620 -1.1069  0.1830
24457SOL    HW273950   8.860   3.349   6.997  0.3278 -0.2103  0.8132
24458SOL     OW73951   7.021   7.285   0.137  0.1232  0.0220 -0.1599
24458SOL    HW173952   7.095   7.226   0.153 -1.8662 -1.6045  5.0114
24458SOL    HW273953   7.057   7.373   0.154  2.0155  0.0638 -3.4897
24459SOL     OW73954   4.297   1.578   4.248  0.1421 -0.3917 -0.5106
24459SOL    HW173955   4.203   1.564   4.234  0.0487 -0.0228 -0.2802
24459SOL    HW273956   4.302   1.663   4.292  0.4388 -1.2722  1.2525
24460SOL     OW73957   0.420   0.042   3.486 -0.5751 -0.3933  0.4825
24460SOL    HW173958   0.349   0.016   3.427 -2.0771 -0.1419  2.0921
24460SOL    HW273959   0.473  -0.038   3.497  1.0185  0.0503 -2.7491
24461SOL     OW73960   7.433   9.724   2.824  0.2168 -0.5088  0.1677
24461SOL    HW173961   7.498   9.654   2.835 -0.4801 -1.6638 -2.4155
24461SOL    HW273962   7.467   9.777   2.752  0.7415  1.9805  2.0625
24462SOL     OW73963   2.298   4.686   3.030 -0.7402 -0.2272 -0.2155
24462SOL    HW173964   2.271   4.610   2.977  1.1477 -1.1514  0.0399
24462SOL    HW273965   2.340   4.745   2.967 -0.4534 -0.3121 -0.1055
24463SOL     OW73966   3.000   9.228   4.414  0.2677 -0.1092 -0.3457
24463SOL    HW173967   2.963   9.314   4.431  0.6235  0.1086 -0.6615
24463SOL    HW273968   3.022   9.194   4.500  0.0315  0.0727 -0.2133
24464SOL     OW73969   5.515   1.083   0.645 -0.0750  0.6897  0.5533
24464SOL    HW173970   5.601   1.115   0.669 -0.0578  0.3481  0.9545
24464SOL    HW273971   5.513   0.992   0.675 -0.1980  0.3717 -0.3664
24465SOL     OW73972   3.300   4.296   8.526  0.5148 -0.1066  0.0941
24465SOL    HW173973   3.354   4.287   8.447  1.6306  1.6010  0.6163
24465SOL    HW273974   3.360   4.277   8.598  0.1104  0.5994  0.6319
24466SOL     OW73975   4.085   2.425   1.268 -0.0727  0.4756 -0.1178
24466SOL    HW173976   4.121   2.339   1.243 -3.1133 -0.9946  0.0916
24466SOL    HW273977   4.038   2.455   1.190  2.6893  3.1404 -0.9590
24467SOL     OW73978   2.308   2.053   7.339 -0.1571 -0.0021  0.5010
24467SOL    HW173979   2.393   2.096   7.328  0.0644 -0.3149  0.9593
24467SOL    HW273980   2.310   2.018   7.428 -1.2221  0.9703  0.9188
24468SOL     OW73981   2.090   7.909   8.957 -0.2830  0.0483  0.5259
24468SOL    HW173982   2.173   7.890   9.001  1.7135 -0.4727 -3.0370
24468SOL    HW273983   2.047   7.824   8.950  0.2496 -0.1932  0.0167
24469SOL     OW73984   9.804   0.411   4.884 -0.3747  0.2430 -0.1976
24469SOL    HW173985   9.887   0.454   4.863  0.5153 -0.3959  1.7640
24469SOL    HW273986   9.824   0.318   4.884  0.0269  0.1435  4.0658
24470SOL     OW73987   2.462   8.223   6.523  0.0084  0.4375  0.0415
24470SOL    HW173988   2.464   8.132   6.495  1.8230 -0.1451  1.8139
24470SOL    HW273989   2.378   8.256   6.492 -0.1621 -1.4620 -1.7080
24471SOL     OW73990   6.430   9.568   9.952  0.2337 -0.2943  0.0424
24471SOL    HW173991   6.334   9.569   9.955  0.1638  2.0982 -0.4373
24471SOL    HW273992   6.456   9.647  10.001  1.9049 -0.4015 -0.6173
24472SOL     OW73993   8.837   2.686   8.853  0.4321 -0.0108 -0.0724
24472SOL    HW173994   8.763   2.731   8.894  0.2708 -1.3882  1.2248
24472SOL    HW273995   8.880   2.754   8.801 -1.5561  0.9009 -0.6365
24473SOL     OW73996   3.762   5.381   6.494  0.1682  0.2464  0.3550
24473SOL    HW173997   3.760   5.351   6.585  1.2075 -1.5594 -0.1636
24473SOL    HW273998   3.851   5.360   6.464 -0.7475 -1.0172 -1.6488
24474SOL     OW73999   6.962   9.017   4.527 -0.3647  0.5612  0.1473
24474SOL    HW174000   6.923   8.932   4.505  0.9264  0.0696 -0.3681
24474SOL    HW274001   6.953   9.068   4.447  2.6934 -0.6066 -1.1055
24475SOL     OW74002   2.847   3.901   8.417  0.3772 -0.4199  0.1792
24475SOL    HW174003   2.868   3.816   8.456 -1.5838 -0.7862  0.5444
24475SOL    HW274004   2.873   3.893   8.325  1.1727 -1.0253  0.4466
24476SOL     OW74005   3.557   7.859   3.834 -0.8046 -0.3675 -0.9458
24476SOL    HW174006   3.548   7.793   3.765  1.1617 -1.2361 -0.4407
24476SOL    HW274007   3.616   7.925   3.796 -0.7782 -0.1683 -0.5644
24477SOL     OW74008   6.410   3.788   0.829  0.1781 -0.3060 -0.5468
24477SOL    HW174009   6.476   3.849   0.861 -0.2794 -0.7676  1.3688
24477SOL    HW274010   6.461   3.715   0.793  0.7045 -0.0209 -0.3945
24478SOL     OW74011   0.398   7.646   4.792 -0.3350 -0.3863 -0.1666
24478SOL    HW174012   0.415   7.667   4.700  0.9530  0.4859  0.2372
24478SOL    HW274013   0.421   7.553   4.800 -1.0323 -0.6269 -0.8397
24479SOL     OW74014   1.843   2.862   2.733  0.0432 -0.1783  0.3583
24479SOL    HW174015   1.857   2.897   2.821  0.1639  0.3254  0.1415
24479SOL    HW274016   1.791   2.928   2.689 -0.0337 -0.4402  0.0541
24480SOL     OW74017   6.231   1.713   8.474  0.2357 -0.3329  0.4156
24480SOL    HW174018   6.151   1.723   8.525 -0.3593  0.3895 -0.6279
24480SOL    HW274019   6.296   1.682   8.537  0.0386  2.3252  2.0589
24481SOL     OW74020   1.300   4.276   7.704  0.3472 -0.2204 -0.3544
24481SOL    HW174021   1.270   4.194   7.664 -0.2087 -0.5370  0.6632
24481SOL    HW274022   1.384   4.294   7.663 -1.3551  0.9344 -3.6863
24482SOL     OW74023   6.839   7.237   2.187 -0.0412  0.5880 -0.1087
24482SOL    HW174024   6.826   7.190   2.104 -0.0294  1.4261 -0.5983
24482SOL    HW274025   6.918   7.289   2.172 -0.1366  0.8700  0.3688
24483SOL     OW74026   7.349   9.206   5.367 -0.1613  0.3542  0.2603
24483SOL    HW174027   7.328   9.298   5.387  1.2944  0.5132  1.2258
24483SOL    HW274028   7.440   9.209   5.337 -0.2916 -0.7194 -0.2734
24484SOL     OW74029   5.976   9.569   0.329 -0.1878 -0.3039 -0.6528
24484SOL    HW174030   6.066   9.582   0.359 -0.3189  1.7157 -1.0056
24484SOL    HW274031   5.922   9.608   0.398 -0.8118 -1.3999 -0.4995
24485SOL     OW74032   6.785   8.941   7.029  0.5548  0.5343 -0.2205
24485SOL    HW174033   6.781   8.996   6.951 -0.3748 -0.5243 -0.9410
24485SOL    HW274034   6.810   8.854   6.997 -0.9028 -0.1846  0.4867
24486SOL     OW74035   1.912   7.344   5.658  0.3922 -0.1182  0.5427
24486SOL    HW174036   1.949   7.380   5.577  0.9572 -0.7390  0.5113
24486SOL    HW274037   1.918   7.416   5.721  0.7499  0.0993  0.2668
24487SOL     OW74038   3.049   9.863   4.103 -0.6375 -0.0543 -0.5384
24487SOL    HW174039   3.027   9.785   4.054 -0.9407 -0.9243  0.9109
24487SOL    HW274040   3.109   9.833   4.172 -2.3268  0.5475  1.3079
24488SOL     OW74041   9.889   4.142   9.892  0.1228  0.0309  0.5959
24488SOL    HW174042   9.915   4.144   9.984  2.5249 -2.3312  0.0911
24488SOL    HW274043   9.972   4.153   9.844 -0.9537  0.3364 -1.2810
24489SOL     OW74044   0.519   8.290   1.813 -0.3259  0.1508 -0.3419
24489SOL    HW174045   0.457   8.315   1.882 -1.8674 -0.3321 -1.4944
24489SOL    HW274046   0.494   8.200   1.790  0.1411  0.3089 -1.5381
24490SOL     OW74047   9.583   7.892   8.677  0.1876 -0.3886 -0.2969
24490SOL    HW174048   9.567   7.876   8.584  0.9891 -0.0352 -0.5005
24490SOL    HW274049   9.618   7.809   8.710 -1.0130 -0.8325 -0.0772
24491SOL     OW74050   0.108   1.983   3.578  0.3781 -0.0961 -0.7008
24491SOL    HW174051   0.063   1.927   3.514 -2.4940 -2.0725  2.6940
24491SOL    HW274052   0.043   2.049   3.602  2.2786  2.2226 -1.4569
24492SOL     OW74053   9.643   2.513   8.273  0.5404 -0.0122  0.0205
24492SOL    HW174054   9.604   2.439   8.319  0.8979 -1.9819 -2.5818
24492SOL    HW274055   9.606   2.591   8.315  0.9314 -1.5676  3.5487
24493SOL     OW74056   0.758   6.106   8.374 -0.3201 -0.0391 -0.4647
24493SOL    HW174057   0.742   6.158   8.295 -1.7375 -0.0100 -0.1950
24493SOL    HW274058   0.837   6.143   8.412  0.1936  0.1605 -1.6935
24494SOL     OW74059   0.387   9.271   8.800  0.3297  0.1710 -0.3544
24494SOL    HW174060   0.423   9.262   8.888 -3.0607 -1.1863  1.0615
24494SOL    HW274061   0.413   9.359   8.772  2.1660  0.3361  1.6102
24495SOL     OW74062   1.106   8.673   4.859 -0.2211  0.2531 -0.1136
24495SOL    HW174063   1.156   8.703   4.783 -1.2171  0.7038 -0.6099
24495SOL    HW274064   1.082   8.753   4.905  1.2626 -0.0564  1.2952
24496SOL     OW74065   9.321   8.589   3.463 -0.8708  0.1857 -0.3961
24496SOL    HW174066   9.323   8.494   3.479 -3.0870  0.1893  0.2200
24496SOL    HW274067   9.340   8.598   3.370 -1.5303 -0.9308 -0.6561
24497SOL     OW74068   3.465   6.715   0.465 -0.0838  0.0902  1.2079
24497SOL    HW174069   3.408   6.780   0.505 -0.5499 -1.2385  2.8396
24497SOL    HW274070   3.543   6.713   0.522 -0.8641 -2.0050  2.3455
24498SOL     OW74071   3.446   6.534   6.576  0.5229 -0.3595  0.4703
24498SOL    HW174072   3.438   6.551   6.670  1.6660  0.6035  0.4260
24498SOL    HW274073   3.427   6.618   6.534 -1.2938 -1.0841 -0.2797
24499SOL     OW74074   0.585   2.421   5.364  0.1728 -0.0759 -0.3619
24499SOL    HW174075   0.589   2.388   5.274  0.0039 -0.1135 -0.3549
24499SOL    HW274076   0.537   2.503   5.358 -0.3065 -0.3402 -0.2300
24500SOL     OW74077   8.742   0.567   3.150  0.2754 -0.4125 -0.6305
24500SOL    HW174078   8.680   0.516   3.202 -0.2242  0.0094 -0.8085
24500SOL    HW274079   8.700   0.652   3.138  2.5021  1.3488  2.5765
24501SOL     OW74080   7.953   0.630   9.437 -0.0116 -0.0236  0.4844
24501SOL    HW174081   7.990   0.565   9.378  0.5410 -0.0500  0.8561
24501SOL    HW274082   7.883   0.584   9.483 -1.3270  0.3404 -1.0480
24502SOL     OW74083   8.469   6.791   6.699 -0.3297  0.1712 -0.2000
24502SOL    HW174084   8.431   6.850   6.634 -0.0959 -0.2682 -0.7418
24502SOL    HW274085   8.473   6.706   6.655  0.5276  0.0336  0.1290
24503SOL     OW74086   1.389   4.741   5.949  0.0121 -0.6463  0.2571
24503SOL    HW174087   1.455   4.671   5.951  1.5024  0.6943 -0.0349
24503SOL    HW274088   1.439   4.821   5.935 -1.5957  0.5600  1.0258
24504SOL     OW74089   6.374   5.764   0.319 -0.3847 -0.4090 -0.3747
24504SOL    HW174090   6.385   5.774   0.224 -0.8889  0.3833 -0.3560
24504SOL    HW274091   6.407   5.845   0.356 -1.7110 -0.0200  0.0106
24505SOL     OW74092   6.260   7.586   3.942  0.1985 -0.1278  0.5544
24505SOL    HW174093   6.187   7.643   3.919  0.9242  0.9612  0.8776
24505SOL    HW274094   6.223   7.498   3.942 -0.9306  0.3314 -0.0190
24506SOL     OW74095   6.865   0.078   9.274 -0.0268  0.5788 -0.1952
24506SOL    HW174096   6.847   0.165   9.307  0.0622 -0.1906  2.0567
24506SOL    HW274097   6.936   0.045   9.330  0.5931 -0.6066 -1.5894
24507SOL     OW74098   2.237   7.007   0.140 -0.0022  0.2367 -0.1849
24507SOL    HW174099   2.284   7.005   0.224  0.5248 -1.4655 -0.4709
24507SOL    HW274100   2.271   7.084   0.095 -0.7567  1.5541  1.3935
24508SOL     OW74101   4.356   0.676   1.535 -0.0894  0.4592  0.9105
24508SOL    HW174102   4.445   0.643   1.524  0.1936  0.9991  1.4836
24508SOL    HW274103   4.314   0.615   1.596  0.5776  1.3709  2.3425
24509SOL     OW74104   1.138   8.691   1.902 -0.1712 -0.3290 -0.2268
24509SOL    HW174105   1.109   8.770   1.947  1.2196  0.0716  0.0338
24509SOL    HW274106   1.066   8.668   1.843 -0.1939  1.7897 -1.1198
24510SOL     OW74107   3.322   8.665   1.913  0.0491  0.4445  0.2753
24510SOL    HW174108   3.418   8.670   1.915  0.0892 -0.3805  0.5548
24510SOL    HW274109   3.302   8.573   1.930 -0.7901  0.5625 -0.0230
24511SOL     OW74110   0.291   4.061   1.888 -0.5295 -0.3368  0.8144
24511SOL    HW174111   0.251   4.063   1.801  0.5926 -0.0638  0.2810
24511SOL    HW274112   0.385   4.064   1.871 -0.2774 -0.6708  2.0325
24512SOL     OW74113   2.425   6.453   4.399 -0.4406 -0.0298  0.2948
24512SOL    HW174114   2.400   6.529   4.453  0.5648 -0.6632  1.7205
24512SOL    HW274115   2.491   6.408   4.451 -1.5555 -2.3211 -0.1692
24513SOL     OW74116   9.767   1.257   4.982  0.4376  1.1273 -0.2061
24513SOL    HW174117   9.862   1.245   4.985  0.1461 -2.6155 -0.6810
24513SOL    HW274118   9.735   1.214   5.062 -0.8663  2.7288  0.1787
24514SOL     OW74119   9.077   5.507   0.464 -0.0673 -0.3622 -0.3232
24514SOL    HW174120   9.106   5.479   0.378  1.4810  0.3015 -0.0535
24514SOL    HW274121   9.086   5.429   0.519 -1.4899 -0.9115 -0.8307
24515SOL     OW74122   4.374   1.686   3.439 -0.7642  0.3580  0.0796
24515SOL    HW174123   4.459   1.690   3.482 -1.2512  1.6869  0.9578
24515SOL    HW274124   4.364   1.593   3.416  0.2806 -0.0726  1.2314
24516SOL     OW74125   5.858   4.274   7.289 -0.1379  0.0458  0.5237
24516SOL    HW174126   5.861   4.257   7.195 -0.3751  0.6745  0.3938
24516SOL    HW274127   5.948   4.260   7.318 -0.4923 -2.3646  0.6368
24517SOL     OW74128   7.596   3.621   2.876 -0.2240  0.6134  0.2345
24517SOL    HW174129   7.555   3.708   2.876 -0.0674  0.6909  1.1168
24517SOL    HW274130   7.532   3.565   2.918 -0.2002  0.3495 -0.0765
24518SOL     OW74131   4.456   2.354   1.071 -0.3270  0.6409 -0.6166
24518SOL    HW174132   4.392   2.423   1.053 -1.6032  0.3800  2.3512
24518SOL    HW274133   4.506   2.387   1.145  1.3164 -0.2514 -1.2905
24519SOL     OW74134   3.310   2.970   9.241  0.1479 -0.4808  0.1052
24519SOL    HW174135   3.309   2.902   9.175 -0.8978 -0.8743  0.5024
24519SOL    HW274136   3.265   3.044   9.201  1.4936  0.0767 -0.4119
24520SOL     OW74137   8.656   4.876   9.881  0.4819 -0.2691  0.7843
24520SOL    HW174138   8.585   4.831   9.927 -0.4880 -0.1466 -0.5313
24520SOL    HW274139   8.714   4.805   9.854  0.0886 -0.5262  0.5948
24521SOL     OW74140   5.711   3.214   9.490  0.1815 -0.3732  0.5717
24521SOL    HW174141   5.698   3.249   9.401 -0.8399 -0.0718  0.8269
24521SOL    HW274142   5.653   3.266   9.545  1.1625 -0.2382  1.5128
24522SOL     OW74143   9.833   1.724   4.670 -0.7755 -0.1712  0.0178
24522SOL    HW174144   9.815   1.648   4.614 -0.0191 -0.1185 -0.3007
24522SOL    HW274145   9.762   1.785   4.650 -2.7868 -1.6936  1.9822
24523SOL     OW74146   2.725   2.277   1.226 -0.1963 -0.0470  0.2222
24523SOL    HW174147   2.710   2.210   1.160 -1.6432 -0.2173  0.6856
24523SOL    HW274148   2.785   2.339   1.185 -0.4204 -0.5789 -0.9389
24524SOL     OW74149   9.503   6.332   1.003 -0.2513  0.0671 -0.0167
24524SOL    HW174150   9.449   6.411   0.994  0.2068  0.3387 -0.4315
24524SOL    HW274151   9.519   6.304   0.912 -0.3030 -0.4326  0.1252
24525SOL     OW74152   5.574   6.723   8.057 -0.1304 -0.0051 -0.1847
24525SOL    HW174153   5.507   6.727   8.124 -0.9306 -0.5712 -0.9243
24525SOL    HW274154   5.604   6.813   8.047 -0.0059  0.0780  0.9198
24526SOL     OW74155   9.860   3.051   9.578  0.1007 -0.5345  0.1114
24526SOL    HW174156   9.783   3.007   9.615 -0.5125  0.4160  0.0013
24526SOL    HW274157   9.933   3.019   9.631 -0.2062 -2.1921 -0.3987
24527SOL     OW74158   2.291   1.687   6.869 -0.0311 -0.0132  0.5759
24527SOL    HW174159   2.302   1.782   6.880 -0.4700  0.3440 -1.5824
24527SOL    HW274160   2.376   1.657   6.838 -0.6244  0.1703 -1.3445
24528SOL     OW74161   4.040   8.646   7.961  0.4978 -0.5082 -0.0240
24528SOL    HW174162   3.990   8.570   7.994  0.4197 -0.5801 -0.3026
24528SOL    HW274163   4.057   8.699   8.039 -0.0626 -0.4560  0.0687
24529SOL     OW74164   6.767   2.729   4.188  0.3946 -0.0384 -0.0637
24529SOL    HW174165   6.848   2.732   4.137 -0.7096  0.0615 -1.9189
24529SOL    HW274166   6.714   2.662   4.143 -1.1195  0.9592  0.1780
24530SOL     OW74167   9.071   4.513   5.649  0.4702 -0.1930  0.6366
24530SOL    HW174168   9.076   4.467   5.565  0.7289  0.7326  0.1239
24530SOL    HW274169   8.997   4.574   5.639  1.0308  0.5242  0.7577
24531SOL     OW74170   2.873   5.718   5.313 -0.0390  0.2807 -0.2620
24531SOL    HW174171   2.789   5.752   5.284 -0.4755 -0.6979 -0.1886
24531SOL    HW274172   2.931   5.794   5.313 -0.4391  0.6334 -2.0660
24532SOL     OW74173   6.909   3.263   9.538  0.1346  0.6882  0.4216
24532SOL    HW174174   6.892   3.337   9.480  1.8766  1.1086  0.3823
24532SOL    HW274175   6.982   3.217   9.497 -0.1224 -0.3477  1.0969
24533SOL     OW74176   0.317   9.740   0.820 -0.2349 -0.6524 -0.4487
24533SOL    HW174177   0.262   9.713   0.894 -0.4798  1.5313  0.2231
24533SOL    HW274178   0.256   9.756   0.749 -0.3364  0.2848 -0.1617
24534SOL     OW74179   4.329   7.898   5.553  0.3385 -0.3157  0.3989
24534SOL    HW174180   4.336   7.986   5.516  0.5019 -1.3779 -2.3483
24534SOL    HW274181   4.417   7.879   5.586  1.5798 -0.9127 -2.8624
24535SOL     OW74182   6.134   0.469   6.716 -0.6737 -0.6892 -0.3532
24535SOL    HW174183   6.046   0.507   6.719 -0.6431 -0.6739  0.5954
24535SOL    HW274184   6.132   0.398   6.781  0.3861  0.1506  0.6512
24536SOL     OW74185   1.784   7.156   3.459  0.0020 -0.6540  0.2705
24536SOL    HW174186   1.715   7.096   3.434 -0.0552  0.1490 -1.6942
24536SOL    HW274187   1.741   7.222   3.513 -1.1651  0.6517 -2.1131
24537SOL     OW74188   6.539   8.345   2.947 -0.0898 -0.3758  0.3804
24537SOL    HW174189   6.620   8.381   2.910 -0.1898  0.6928  1.1496
24537SOL    HW274190   6.567   8.270   2.998 -0.1297 -3.2121 -3.3419
24538SOL     OW74191   4.232   2.232   6.076  0.3862 -0.9488  0.7211
24538SOL    HW174192   4.168   2.273   6.019  2.4730 -0.3144 -1.3280
24538SOL    HW274193   4.231   2.286   6.156 -0.6124 -0.1304  0.1750
24539SOL     OW74194   5.138   4.192   2.940 -0.0332  0.1315 -0.3411
24539SOL    HW174195   5.212   4.196   2.880 -1.8495  0.9510 -2.6826
24539SOL    HW274196   5.070   4.143   2.892 -1.4220  0.4245  1.2154
24540SOL     OW74197   9.218   6.805   9.991  0.4726 -0.0705 -0.3334
24540SOL    HW174198   9.276   6.824   9.917 -0.0114  0.5228 -0.5696
24540SOL    HW274199   9.190   6.715   9.977  1.0186 -0.2334 -0.4287
24541SOL     OW74200   0.910   3.064   1.350 -0.1518 -0.0135 -0.2139
24541SOL    HW174201   0.926   3.140   1.294 -0.9566 -0.5861 -1.2568
24541SOL    HW274202   0.822   3.079   1.386  1.0341  1.2453  2.4172
24542SOL     OW74203   1.850   9.425   7.261  0.0134 -0.5533  0.1717
24542SOL    HW174204   1.858   9.502   7.204  0.0614 -0.6080  0.1058
24542SOL    HW274205   1.821   9.461   7.345  3.1403 -0.0358  1.1341
24543SOL     OW74206   5.071   1.905   2.309 -0.3200 -0.0370 -0.1524
24543SOL    HW174207   5.122   1.954   2.244 -0.4109  0.1846 -0.0583
24543SOL    HW274208   5.034   1.832   2.260 -0.4650  0.1813 -0.3703
24544SOL     OW74209   4.434   2.903   5.823 -0.2609  0.0306  0.0936
24544SOL    HW174210   4.391   2.833   5.774  1.6612 -0.8535 -0.4167
24544SOL    HW274211   4.502   2.935   5.764 -0.0440  1.2362  0.9568
24545SOL     OW74212   5.717   1.173   5.293 -0.0102  0.3594  0.4845
24545SOL    HW174213   5.754   1.255   5.262 -0.8314  0.7485  0.5026
24545SOL    HW274214   5.650   1.200   5.356 -1.6257 -0.2312 -0.9163
24546SOL     OW74215   5.369   2.452   0.055 -0.4835  0.1802 -0.3450
24546SOL    HW174216   5.391   2.465  -0.038 -0.6030  0.8805 -0.2807
24546SOL    HW274217   5.348   2.539   0.087  1.5983  0.3033  0.8716
24547SOL     OW74218   4.968   3.305   1.636  0.4486 -0.3665 -0.5840
24547SOL    HW174219   5.043   3.252   1.663  0.1372 -0.2401  0.5983
24547SOL    HW274220   5.007   3.391   1.616  0.6299 -0.3173 -0.0349
24548SOL     OW74221   6.804   4.260   3.343  0.4633 -0.1475  0.2945
24548SOL    HW174222   6.737   4.318   3.306  0.7875  0.6711  0.9682
24548SOL    HW274223   6.787   4.175   3.301 -0.1604  0.3667 -0.5323
24549SOL     OW74224   5.296   2.578   6.909  0.3102  0.5188  0.1846
24549SOL    HW174225   5.214   2.584   6.957  0.6929 -0.2187  0.9512
24549SOL    HW274226   5.272   2.598   6.818 -0.7188  0.2634  0.3887
24550SOL     OW74227   6.822   5.391   6.813 -0.1152  0.0751  0.4629
24550SOL    HW174228   6.734   5.403   6.849 -0.6376 -1.4292 -0.2430
24550SOL    HW274229   6.839   5.298   6.821  1.8358  0.4720  1.4572
24551SOL     OW74230   9.947   8.875   5.709  0.3775 -0.0215  0.3242
24551SOL    HW174231   9.880   8.819   5.670 -0.5803  0.0511  1.7993
24551SOL    HW274232   9.951   8.952   5.651 -2.2183  0.8606  1.1902
24552SOL     OW74233   9.721   1.578   3.218 -0.0250  0.1179  0.0747
24552SOL    HW174234   9.750   1.520   3.147 -0.9858  0.0621 -0.2836
24552SOL    HW274235   9.760   1.663   3.197  1.3624 -0.3555  0.5798
24553SOL     OW74236   1.249   3.306   1.434  0.8241 -0.2901  0.1889
24553SOL    HW174237   1.223   3.397   1.444  0.3972 -0.4430  0.4859
24553SOL    HW274238   1.334   3.310   1.389  1.4189  0.2988  1.3216
24554SOL     OW74239   3.523   5.467   6.870 -0.1345 -0.1949 -0.2768
24554SOL    HW174240   3.548   5.475   6.962  0.3116 -0.9601 -0.3239
24554SOL    HW274241   3.557   5.547   6.830 -3.5491  2.0362  0.8477
24555SOL     OW74242   9.857   9.429   7.451 -0.2022  0.5759  0.0716
24555SOL    HW174243   9.856   9.348   7.502 -2.6607  0.7069  0.3174
24555SOL    HW274244   9.857   9.499   7.517 -3.8024  0.7529  0.0845
24556SOL     OW74245   5.342   2.458   6.531  0.2350  0.6719  0.7723
24556SOL    HW174246   5.360   2.480   6.440  0.9262  2.1066  1.2116
24556SOL    HW274247   5.261   2.407   6.529  2.0770 -2.4538 -0.9392
24557SOL     OW74248   1.244   8.217   5.500  0.1186 -0.1653 -0.0263
24557SOL    HW174249   1.274   8.205   5.410  0.1797 -1.2811  0.1290
24557SOL    HW274250   1.149   8.202   5.495  0.3872 -2.3384  0.4127
24558SOL     OW74251   9.235   9.311   5.253 -0.1625 -0.4200 -0.1622
24558SOL    HW174252   9.159   9.277   5.206 -1.8293 -0.0838  2.1301
24558SOL    HW274253   9.285   9.233   5.277 -0.7972 -0.8006 -0.0605
24559SOL     OW74254   4.462   7.513   7.090 -0.2986 -0.0486  0.0582
24559SOL    HW174255   4.532   7.569   7.123  0.5566  0.1413 -1.9548
24559SOL    HW274256   4.426   7.560   7.015 -2.2498 -0.4034  0.6904
24560SOL     OW74257   7.564   3.434   0.481 -0.7271 -0.2371  0.1526
24560SOL    HW174258   7.574   3.510   0.424 -1.5212 -1.1357 -1.2322
24560SOL    HW274259   7.526   3.469   0.562 -0.4586  0.9242 -0.2165
24561SOL     OW74260   4.682   7.301   5.659  0.7385  0.2845  0.4888
24561SOL    HW174261   4.672   7.206   5.653 -0.9057  0.4015  0.9891
24561SOL    HW274262   4.593   7.336   5.647  1.3643  1.7849 -0.0612
24562SOL     OW74263   3.880   6.503   3.432 -0.2685  0.1259 -0.1046
24562SOL    HW174264   3.939   6.578   3.444 -0.9017  0.4545  1.2072
24562SOL    HW274265   3.931   6.439   3.383  0.0701  1.6638 -1.8506
24563SOL     OW74266   3.411   2.156   6.591  0.0787  0.5422  0.2284
24563SOL    HW174267   3.434   2.239   6.634 -0.0672  0.5837  0.2254
24563SOL    HW274268   3.362   2.107   6.657 -2.5056  1.6835 -0.7071
24564SOL     OW74269   6.248   7.203   9.039  0.2797 -0.5518 -0.2287
24564SOL    HW174270   6.246   7.272   8.972  1.9017  0.2695  0.5002
24564SOL    HW274271   6.159   7.202   9.075  0.0483  0.7324 -0.7053
24565SOL     OW74272   4.824   4.275   5.944 -0.1406 -0.1742 -0.1610
24565SOL    HW174273   4.799   4.318   5.863 -1.6071  0.4748  0.5892
24565SOL    HW274274   4.759   4.305   6.008  0.8838 -0.7784  1.2153
24566SOL     OW74275   6.578   9.152   5.148 -0.4269 -0.8110  0.0499
24566SOL    HW174276   6.557   9.078   5.206 -0.3299 -0.4624  0.5383
24566SOL    HW274277   6.648   9.119   5.092 -1.3073 -1.5295 -0.6593
24567SOL     OW74278   3.353   3.530   4.092  0.1116  0.5243  0.0850
24567SOL    HW174279   3.340   3.597   4.025 -0.4965 -1.0378 -1.4575
24567SOL    HW274280   3.446   3.507   4.085  0.1327  0.6279  0.0258
24568SOL     OW74281   8.761   1.389   3.354 -0.3191  0.0335 -0.4324
24568SOL    HW174282   8.692   1.445   3.389  1.9763  1.1268  2.9084
24568SOL    HW274283   8.811   1.446   3.296  0.9673  1.1008  1.5856
24569SOL     OW74284   0.273   1.534   6.390 -0.2096  0.9536  0.3054
24569SOL    HW174285   0.284   1.586   6.310  0.5508 -0.0191 -0.2461
24569SOL    HW274286   0.313   1.588   6.459  1.8132  0.5757 -0.4834
24570SOL     OW74287   7.777   9.820   4.312 -0.1132  0.5250  0.4406
24570SOL    HW174288   7.684   9.837   4.295 -0.5108 -0.5273  1.4327
24570SOL    HW274289   7.823   9.879   4.252 -1.4145  0.8194 -0.3198
24571SOL     OW74290   3.909   4.269   4.920 -0.3023 -0.2305 -0.0516
24571SOL    HW174291   3.974   4.234   4.859 -0.0720 -0.9316  0.5762
24571SOL    HW274292   3.959   4.289   4.999 -0.5651  0.8343 -0.1490
24572SOL     OW74293   0.795   5.618   6.055  0.0661 -0.2860  0.7663
24572SOL    HW174294   0.821   5.557   5.985 -0.1956  0.0326  0.3926
24572SOL    HW274295   0.812   5.705   6.019 -1.2422 -0.0777  0.6296
24573SOL     OW74296   7.120   4.414   8.382 -0.8038  0.1581  0.3715
24573SOL    HW174297   7.134   4.379   8.294 -0.4924 -0.6962  0.7436
24573SOL    HW274298   7.104   4.507   8.369 -1.6764 -0.1148 -0.6718
24574SOL     OW74299   8.984   8.581   4.371  0.4351 -0.2984 -0.2644
24574SOL    HW174300   8.988   8.645   4.300 -1.7450  0.6471  0.3833
24574SOL    HW274301   8.924   8.514   4.340  3.0282 -2.4045 -1.1158
24575SOL     OW74302   5.694   9.395   9.716 -0.2152 -0.4019 -0.0469
24575SOL    HW174303   5.673   9.467   9.657  2.6541 -0.7467 -1.6932
24575SOL    HW274304   5.660   9.422   9.801 -2.2780  1.2672 -1.2971
24576SOL     OW74305   0.368   6.381   7.554  0.0417  0.3317  0.4334
24576SOL    HW174306   0.302   6.323   7.517 -1.1018  0.8709  1.5326
24576SOL    HW274307   0.362   6.367   7.649 -0.1763  2.0908  0.7240
24577SOL     OW74308   3.945   8.782   2.031 -0.4379  0.1366  0.3158
24577SOL    HW174309   3.890   8.767   2.109  0.6053 -0.4812  0.9536
24577SOL    HW274310   3.961   8.694   1.997 -2.6361  0.4824 -1.8923
24578SOL     OW74311   8.145   9.489   9.320 -0.0458  0.3955  0.4294
24578SOL    HW174312   8.087   9.432   9.270  1.0145 -0.1142 -0.2637
24578SOL    HW274313   8.148   9.570   9.270  1.0229 -0.1184 -0.3936
24579SOL     OW74314   1.143   3.569   1.493  0.1345 -0.1744  0.4294
24579SOL    HW174315   1.193   3.550   1.573  0.1804 -0.2525  0.3825
24579SOL    HW274316   1.144   3.664   1.487  1.3012 -0.2095 -0.2190
24580SOL     OW74317   5.991   4.775   6.367  0.2536 -0.3200  0.4067
24580SOL    HW174318   5.916   4.742   6.417  0.1715  0.6071  0.9141
24580SOL    HW274319   6.050   4.700   6.361 -1.0624 -1.3150 -0.7241
24581SOL     OW74320   9.917   3.622   7.147 -0.6084  0.5328  0.5509
24581SOL    HW174321   9.894   3.634   7.240 -0.4670 -0.3024  0.7030
24581SOL    HW274322   9.973   3.545   7.147  0.3225  1.1873 -0.1012
24582SOL     OW74323   8.087   5.700   9.423 -0.9316  0.3454  0.1809
24582SOL    HW174324   8.137   5.749   9.488 -2.2179  0.1938  1.3522
24582SOL    HW274325   8.053   5.625   9.472 -0.7709 -0.5431 -1.0444
24583SOL     OW74326   6.583   3.789   4.945 -0.3585  0.1727 -0.4032
24583SOL    HW174327   6.540   3.723   5.000 -0.2823  1.9727  1.9916
24583SOL    HW274328   6.664   3.810   4.991 -2.1726  4.7718  1.4166
24584SOL     OW74329   3.938   2.967   8.769  0.0184  0.6240 -0.1848
24584SOL    HW174330   4.029   2.948   8.746  0.1162 -1.0865  1.3402
24584SOL    HW274331   3.942   3.053   8.811  0.9443  0.5795 -0.1444
24585SOL     OW74332   5.360   3.230   1.200  0.3904  0.2990 -0.1963
24585SOL    HW174333   5.368   3.140   1.170 -0.9146 -0.2791  1.0805
24585SOL    HW274334   5.346   3.281   1.120 -0.0619 -0.7964 -0.8264
24586SOL     OW74335   7.770   3.990   4.640 -0.8167  0.7456 -0.0097
24586SOL    HW174336   7.810   4.067   4.600  1.5903 -0.6624 -0.5210
24586SOL    HW274337   7.695   3.971   4.584 -0.3744  1.6683 -0.9579
24587SOL     OW74338   0.357   6.805   8.742 -0.1187  0.4367  0.7220
24587SOL    HW174339   0.421   6.795   8.812  0.5480 -0.8623 -0.0305
24587SOL    HW274340   0.386   6.883   8.694  0.0153  0.7304  1.2773
24588SOL     OW74341   4.996   3.381   3.009  0.5914 -0.5003  0.0292
24588SOL    HW174342   4.915   3.431   3.005  0.6890 -0.3452 -0.0289
24588SOL    HW274343   5.046   3.410   2.933  0.4310 -1.0706 -0.3052
24589SOL     OW74344   8.332   9.101   1.010 -0.2561  0.7857  0.5189
24589SOL    HW174345   8.391   9.165   0.971  0.0597  0.1497 -0.0762
24589SOL    HW274346   8.332   9.028   0.948 -1.2601  0.5578  0.7715
24590SOL     OW74347   9.867   0.700   1.165 -0.1786 -0.2255  0.0437
24590SOL    HW174348   9.916   0.780   1.182 -0.9265  0.3261 -0.3554
24590SOL    HW274349   9.785   0.729   1.125 -1.0965 -1.0737  1.2005
24591SOL     OW74350   7.635   5.676   5.397  0.2695  0.5269  0.6909
24591SOL    HW174351   7.546   5.707   5.415  0.1884  0.7586 -0.0896
24591SOL    HW274352   7.624   5.585   5.370  0.4682 -0.1034  2.5455
24592SOL     OW74353   0.483   0.397   2.517  0.6166  0.6424  0.0312
24592SOL    HW174354   0.493   0.473   2.460  1.7359  0.4074 -0.1145
24592SOL    HW274355   0.570   0.383   2.555 -0.2254  1.1867  2.3429
24593SOL     OW74356   2.414   4.114   8.537 -0.4275  0.0468 -0.1968
24593SOL    HW174357   2.328   4.140   8.504 -0.1720 -0.7791 -1.5531
24593SOL    HW274358   2.446   4.192   8.583 -2.2196  0.1029  1.0238
24594SOL     OW74359   5.009   4.083   5.273 -0.3782  0.3628 -0.2494
24594SOL    HW174360   5.102   4.105   5.280 -0.1404 -0.0765 -1.5347
24594SOL    HW274361   4.962   4.158   5.309  0.4737  0.1649  1.3602
24595SOL     OW74362   1.106   3.436   5.755 -0.5460 -0.5318 -0.1706
24595SOL    HW174363   1.083   3.459   5.845 -1.7459  1.1458 -0.8711
24595SOL    HW274364   1.201   3.448   5.751 -0.5497 -0.1432  0.7311
24596SOL     OW74365   2.687   3.490   6.455 -0.2042  0.0473  0.6023
24596SOL    HW174366   2.768   3.537   6.475  0.7443 -0.5839 -1.4247
24596SOL    HW274367   2.660   3.526   6.370  0.6646 -3.0482 -1.1411
24597SOL     OW74368   3.717   5.203   8.290 -0.1642 -0.0211  0.0209
24597SOL    HW174369   3.715   5.202   8.385 -1.7544 -1.5259  0.0247
24597SOL    HW274370   3.651   5.266   8.265  0.0732  0.1848 -0.0918
24598SOL     OW74371   7.882   6.172   5.183  0.0391 -0.0251  0.2844
24598SOL    HW174372   7.969   6.159   5.221 -0.1820 -2.2824  0.1558
24598SOL    HW274373   7.822   6.126   5.243 -1.1706  1.9204  0.6498
24599SOL     OW74374   6.927   2.169   3.579 -0.3643 -0.2549  0.2573
24599SOL    HW174375   6.886   2.111   3.514 -0.4979  0.5420 -0.3776
24599SOL    HW274376   6.868   2.166   3.654 -1.4377  0.6146 -0.5189
24600SOL     OW74377   3.306   6.623   3.410  0.4387 -0.1131  0.2116
24600SOL    HW174378   3.317   6.676   3.331  1.0315 -0.8428 -0.2125
24600SOL    HW274379   3.396   6.604   3.439  0.3645  2.7057  2.8866
24601SOL     OW74380   7.803   3.464   6.643  0.3008  0.1938  0.0327
24601SOL    HW174381   7.717   3.424   6.658  0.6256 -0.2485  0.7818
24601SOL    HW274382   7.858   3.430   6.714  1.0834  0.5082 -0.4109
24602SOL     OW74383   9.669   8.195   4.228  0.3121 -0.5264 -0.4786
24602SOL    HW174384   9.676   8.178   4.322 -1.0450  0.8438 -0.0841
24602SOL    HW274385   9.674   8.108   4.188  4.5881 -0.9492  0.4757
24603SOL     OW74386   4.077   2.722   9.194 -0.1160  0.1551 -0.3193
24603SOL    HW174387   4.141   2.727   9.265  0.7027 -1.5499 -0.8985
24603SOL    HW274388   4.010   2.786   9.218  0.5561  0.2058  1.5771
24604SOL     OW74389   1.058   2.634   9.230 -0.3328  0.0389 -0.1530
24604SOL    HW174390   1.063   2.697   9.302  0.1072 -0.6282  0.4206
24604SOL    HW274391   1.132   2.575   9.245  0.1276  0.2433 -1.5086
24605SOL     OW74392   9.955   4.496   4.315  0.3598 -0.0521 -0.5905
24605SOL    HW174393  10.045   4.464   4.326  0.2561  0.0671  0.7169
24605SOL    HW274394   9.943   4.501   4.220  1.3815 -1.0703 -0.7961
24606SOL     OW74395  10.004   1.093   2.248  0.0754  0.6749  0.0152
24606SOL    HW174396   9.916   1.063   2.271  0.4572  0.7627  1.6817
24606SOL    HW274397   9.996   1.122   2.157 -2.1916  2.7811  0.7841
24607SOL     OW74398   9.010   6.828   3.873  0.0152 -0.1234  0.2994
24607SOL    HW174399   9.102   6.830   3.900  1.1184 -1.7056 -2.7853
24607SOL    HW274400   8.984   6.737   3.883 -0.6011 -0.0580 -0.5945
24608SOL     OW74401   2.516   1.008   9.988 -0.4636 -0.0162 -0.3937
24608SOL    HW174402   2.492   1.098   9.967  0.6442  0.6004  0.8228
24608SOL    HW274403   2.612   1.008   9.990 -0.4521 -0.7745  1.3193
24609SOL     OW74404   0.987   0.048   4.810 -0.3467 -0.7848  0.1288
24609SOL    HW174405   1.063   0.058   4.867 -0.0107  1.4747 -0.6209
24609SOL    HW274406   0.999  -0.037   4.768  1.4647 -0.7186  0.4504
24610SOL     OW74407   1.028   0.964   5.318  0.7470  0.2994 -0.6840
24610SOL    HW174408   1.092   0.918   5.263  1.7614 -1.1206  1.4859
24610SOL    HW274409   0.951   0.907   5.318 -0.2405  1.5538 -2.5611
24611SOL     OW74410   3.471   0.375   7.802  0.3055 -0.1538  0.4638
24611SOL    HW174411   3.469   0.319   7.880  1.4154  0.6839  1.1207
24611SOL    HW274412   3.389   0.425   7.807  1.0926  1.0713  2.0223
24612SOL     OW74413   7.364   2.145   1.133  0.3828  0.3609  0.0107
24612SOL    HW174414   7.322   2.060   1.126 -2.6912  1.8463 -1.3475
24612SOL    HW274415   7.386   2.170   1.043  0.5639  1.2918  0.2945
24613SOL     OW74416   5.167   8.478   3.933  0.0295  0.4493  0.1555
24613SOL    HW174417   5.125   8.397   3.960  0.9928  0.1151  0.7001
24613SOL    HW274418   5.145   8.487   3.840  1.3539 -1.3834 -0.4001
24614SOL     OW74419   6.402   4.371   9.595 -0.0642 -0.2739  0.3531
24614SOL    HW174420   6.316   4.379   9.635 -0.1091  0.1434  0.1682
24614SOL    HW274421   6.403   4.282   9.558 -0.3313 -0.3568  0.5423
24615SOL     OW74422   8.057   8.752   2.078 -0.2169  0.1319 -0.9641
24615SOL    HW174423   8.112   8.761   2.156 -0.7986  1.7590 -0.7025
24615SOL    HW274424   8.117   8.760   2.004 -0.1234  2.4905 -0.6897
24616SOL     OW74425   6.571   9.187   3.941  0.0727  0.4341 -0.2181
24616SOL    HW174426   6.478   9.200   3.921  0.2053 -0.7533 -1.7933
24616SOL    HW274427   6.571   9.134   4.020 -0.5973  0.2221 -0.3509
24617SOL     OW74428   4.811   3.124   9.598  0.0062 -0.1315  0.0661
24617SOL    HW174429   4.729   3.169   9.579  0.8243  0.8120 -1.4532
24617SOL    HW274430   4.862   3.186   9.650  0.9897  0.6095 -1.7148
24618SOL     OW74431   5.810   6.899   9.839  0.1064 -0.3413  0.1193
24618SOL    HW174432   5.854   6.945   9.767  2.3569 -0.8866  1.0780
24618SOL    HW274433   5.791   6.812   9.804  1.0393 -0.5493  0.0982
24619SOL     OW74434   7.717   4.220   0.081  0.2636  0.0300 -0.0874
24619SOL    HW174435   7.644   4.282   0.089  0.7358  0.6712 -0.6271
24619SOL    HW274436   7.690   4.144   0.133 -0.2850  0.7317  0.6724
24620SOL     OW74437   3.441   7.101   9.100  0.2013 -0.2630  0.2127
24620SOL    HW174438   3.440   7.118   9.194  0.3018 -2.1427  0.6024
24620SOL    HW274439   3.349   7.098   9.075  0.1440 -0.8352  0.4835
24621SOL     OW74440   3.746   1.160   1.973  0.2866 -0.2543 -0.2886
24621SOL    HW174441   3.753   1.157   2.069 -1.3039  0.6475 -0.0962
24621SOL    HW274442   3.660   1.200   1.958  0.2286 -1.0044 -2.1036
24622SOL     OW74443   6.334   2.823   0.887  0.7739  0.2100 -0.5591
24622SOL    HW174444   6.255   2.870   0.915 -1.0091 -2.8288 -0.0511
24622SOL    HW274445   6.344   2.846   0.795 -0.5271  0.8823 -0.5567
24623SOL     OW74446   1.735   6.156   4.823 -0.0447  0.0475  0.4561
24623SOL    HW174447   1.821   6.180   4.789  0.4974 -1.2467  0.8641
24623SOL    HW274448   1.696   6.239   4.850  0.0855  0.9654 -1.9236
24624SOL     OW74449   4.413   9.036   1.925 -0.3840 -0.3254 -0.4763
24624SOL    HW174450   4.372   8.957   1.959 -0.0675  0.0112  0.7191
24624SOL    HW274451   4.507   9.018   1.929 -0.1246  1.1884  2.7093
24625SOL     OW74452   2.214   2.843   0.494  0.7544 -0.2920 -0.5149
24625SOL    HW174453   2.277   2.912   0.474  1.8355 -1.0350  0.2573
24625SOL    HW274454   2.148   2.885   0.549  1.6398  0.0362  0.3179
24626SOL     OW74455   3.115   4.192   4.062  0.1558  0.2881  0.1295
24626SOL    HW174456   3.167   4.272   4.068 -0.0912  0.3421  2.6493
24626SOL    HW274457   3.025   4.222   4.075 -0.2415 -0.1348 -1.4788
24627SOL     OW74458   9.963   1.158   9.516 -0.1906 -0.2629  0.0128
24627SOL    HW174459   9.913   1.155   9.435  0.5999  0.3601 -0.5120
24627SOL    HW274460  10.051   1.131   9.491 -0.2322 -1.2970  0.9147
24628SOL     OW74461   2.581   6.261   7.797  0.0446  0.0143 -0.0130
24628SOL    HW174462   2.531   6.187   7.763  0.7932 -1.9495  2.8358
24628SOL    HW274463   2.666   6.256   7.752  0.3500 -1.3481  0.6857
24629SOL     OW74464   4.637   2.630   9.749  0.4996 -0.1347  0.1102
24629SOL    HW174465   4.638   2.698   9.817  2.3255  0.2651 -0.2603
24629SOL    HW274466   4.728   2.623   9.721 -0.0920 -0.8243 -1.7951
24630SOL     OW74467   9.479   2.367   0.678 -0.5440  0.0335  0.5153
24630SOL    HW174468   9.440   2.392   0.762  0.0257  1.0499  0.4835
24630SOL    HW274469   9.405   2.333   0.627 -0.9746 -0.1811  1.2640
24631SOL     OW74470   1.783   0.562   4.550  0.2339 -0.2437 -0.5149
24631SOL    HW174471   1.691   0.590   4.550  0.4481  0.4791  0.0339
24631SOL    HW274472   1.831   0.636   4.586  1.2996  0.2310 -2.7008
24632SOL     OW74473   3.714   2.399   2.907  0.3263 -0.2867 -0.7239
24632SOL    HW174474   3.670   2.418   2.824 -1.7191  0.8880  0.5560
24632SOL    HW274475   3.763   2.479   2.926  3.1945 -1.5780 -2.1319
24633SOL     OW74476   8.100   0.092   3.544 -0.2408 -0.4661  0.4373
24633SOL    HW174477   8.152   0.089   3.464  2.6290  0.2877  2.1663
24633SOL    HW274478   8.090  -0.000   3.570  2.2820 -0.5964  1.2279
24634SOL     OW74479   2.388   2.738   7.211  0.1197 -0.0895 -0.0961
24634SOL    HW174480   2.392   2.642   7.200  1.1937 -0.1228  0.5038
24634SOL    HW274481   2.390   2.771   7.121 -0.7559 -0.6340 -0.3331
24635SOL     OW74482   4.753   8.866   3.476  0.0401 -0.2508 -0.2948
24635SOL    HW174483   4.775   8.776   3.501  0.5917 -0.1304 -0.3260
24635SOL    HW274484   4.812   8.920   3.529 -0.2050  0.0904 -0.3661
24636SOL     OW74485   5.697   9.697   2.280 -0.0549  0.0310 -0.0609
24636SOL    HW174486   5.747   9.696   2.198  0.3782  1.4291  0.1671
24636SOL    HW274487   5.660   9.785   2.285  1.7806  0.8020  2.3010
24637SOL     OW74488   2.778   8.554   9.256 -0.0513 -0.8179  0.1737
24637SOL    HW174489   2.847   8.603   9.301 -1.3364  1.4825 -0.1534
24637SOL    HW274490   2.754   8.610   9.182 -2.7701 -1.0974  0.7332
24638SOL     OW74491   7.443   1.491   2.066 -0.3490  0.3766 -0.1258
24638SOL    HW174492   7.348   1.484   2.079 -0.2852  0.3503  0.3692
24638SOL    HW274493   7.480   1.473   2.153  0.1150  0.2522 -0.3465
24639SOL     OW74494   1.486   7.489   4.122  0.4640  0.5889  0.0771
24639SOL    HW174495   1.515   7.398   4.114  1.1632  0.8087  0.0781
24639SOL    HW274496   1.409   7.494   4.065 -0.7033 -0.4679  1.4777
24640SOL     OW74497   9.295   4.933   6.542 -0.8907  0.1093 -0.9089
24640SOL    HW174498   9.257   5.012   6.581 -2.6419 -1.5661  0.9988
24640SOL    HW274499   9.221   4.873   6.533  0.6866 -1.9761 -0.5746
24641SOL     OW74500   3.726   6.477   7.559 -0.0789 -0.3653  0.3278
24641SOL    HW174501   3.782   6.554   7.557  1.9989 -1.7946  0.6457
24641SOL    HW274502   3.787   6.403   7.565 -1.9067 -2.1266 -1.2809
24642SOL     OW74503   3.720   3.400   6.950  0.2118  0.4691 -0.2941
24642SOL    HW174504   3.710   3.307   6.931 -1.5410  0.4780  0.4008
24642SOL    HW274505   3.677   3.445   6.877 -1.8516  0.6214  0.9548
24643SOL     OW74506   9.729   5.382   8.678  0.3137 -0.0642  0.1191
24643SOL    HW174507   9.667   5.414   8.613  1.0146 -0.2067 -0.6354
24643SOL    HW274508   9.678   5.376   8.759 -0.6997 -0.3304 -0.5165
24644SOL     OW74509   7.297   5.219   0.233  0.2055 -0.4330  0.4996
24644SOL    HW174510   7.390   5.229   0.254  0.2904  0.3952 -0.1647
24644SOL    HW274511   7.296   5.197   0.140 -0.2891  1.2383  0.0689
24645SOL     OW74512   8.401   1.097   5.090  0.1817  0.2098  0.6387
24645SOL    HW174513   8.315   1.138   5.084  0.7235  1.2495 -0.2413
24645SOL    HW274514   8.390   1.013   5.044 -0.8326 -0.5503  2.1609
24646SOL     OW74515   0.741   7.788   2.995  0.7938 -0.0778  0.2947
24646SOL    HW174516   0.716   7.871   2.955  2.0032  0.1146 -0.1122
24646SOL    HW274517   0.690   7.784   3.076  1.4408  1.5458  0.8333
24647SOL     OW74518   5.355   8.243   7.216 -0.1735  0.0437 -0.0115
24647SOL    HW174519   5.360   8.211   7.306 -0.3246 -0.4428 -0.1773
24647SOL    HW274520   5.397   8.176   7.163  0.9912  0.8788 -0.1780
24648SOL     OW74521   3.036   4.211   1.236 -0.1469  0.3896 -0.3978
24648SOL    HW174522   2.959   4.220   1.293  0.7358 -0.5799  1.0236
24648SOL    HW274523   3.103   4.264   1.278  0.3523  0.1541 -0.8859
24649SOL     OW74524   6.101   5.148   9.710 -0.2065 -0.0386  0.0387
24649SOL    HW174525   6.169   5.216   9.708 -0.2802  0.0454 -1.6263
24649SOL    HW274526   6.022   5.194   9.735 -0.2468  0.5290 -1.0411
24650SOL     OW74527   7.082   6.332   0.781 -0.0884 -0.1645 -0.4013
24650SOL    HW174528   7.005   6.351   0.835  0.7037  0.9081  0.3927
24650SOL    HW274529   7.128   6.263   0.827 -0.1791 -0.2813 -0.4845
24651SOL     OW74530   7.317   8.491   2.685  0.6906 -0.5854  0.1520
24651SOL    HW174531   7.387   8.431   2.710  0.9045 -0.6009 -0.4688
24651SOL    HW274532   7.354   8.578   2.699  0.6658 -0.5920  0.2667
24652SOL     OW74533   4.477   8.131   4.398  0.4298  0.1755  0.0826
24652SOL    HW174534   4.551   8.086   4.439  0.5661 -0.1140 -0.4704
24652SOL    HW274535   4.501   8.223   4.399  0.3521  0.1937  0.8125
24653SOL     OW74536   0.393   0.272   8.093 -0.5049  0.5840  0.4154
24653SOL    HW174537   0.298   0.283   8.085 -0.6216  1.0030  1.9885
24653SOL    HW274538   0.414   0.312   8.177  0.9459 -0.3061  0.4993
24654SOL     OW74539   6.512   7.160   2.532 -0.1777 -0.4723  0.7282
24654SOL    HW174540   6.554   7.094   2.476 -0.9561  0.1695 -0.6880
24654SOL    HW274541   6.454   7.110   2.589 -0.4214 -1.0729 -0.0187
24655SOL     OW74542   7.048   6.189   4.053 -0.0570 -0.4176 -0.1699
24655SOL    HW174543   7.132   6.235   4.044 -0.2408 -0.2255 -0.8999
24655SOL    HW274544   7.049   6.124   3.983 -0.0383 -1.1719  0.5152
24656SOL     OW74545   4.873   9.257   5.149  0.4235 -0.4599 -0.0953
24656SOL    HW174546   4.815   9.309   5.204  0.2011 -0.9338  0.1254
24656SOL    HW274547   4.960   9.293   5.164  0.1718  0.3598 -0.5480
24657SOL     OW74548   1.191   3.845   8.982  0.9149 -0.1496  0.6637
24657SOL    HW174549   1.144   3.884   9.055  0.9865 -0.3527  0.8166
24657SOL    HW274550   1.168   3.752   8.985 -0.5912  0.1191 -0.6813
24658SOL     OW74551   5.593   3.613   0.209  0.0084 -0.7018  0.4809
24658SOL    HW174552   5.535   3.620   0.133  0.1636 -1.0957  0.3205
24658SOL    HW274553   5.617   3.703   0.230  0.9924 -0.6572 -0.7405
24659SOL     OW74554   4.605   2.625   4.622 -0.3326 -0.1255 -0.2155
24659SOL    HW174555   4.544   2.571   4.672 -1.7794  1.8248  0.2589
24659SOL    HW274556   4.570   2.714   4.630  3.1430  1.2960  0.9450
24660SOL     OW74557   0.421   2.851   1.479 -0.2067  0.3465  0.3191
24660SOL    HW174558   0.336   2.865   1.437 -0.6067 -1.1245  0.5752
24660SOL    HW274559   0.437   2.930   1.530 -1.0453  0.9708 -0.3676
24661SOL     OW74560   3.205   6.426   7.416  0.1620  0.2158  0.1250
24661SOL    HW174561   3.176   6.366   7.484  0.4480  0.3247  0.3501
24661SOL    HW274562   3.301   6.419   7.418  0.2385  1.2549  0.6929
24662SOL     OW74563   8.833   5.700   2.154  0.5342 -0.3021 -0.1266
24662SOL    HW174564   8.803   5.779   2.200  2.2171  0.4604 -0.2226
24662SOL    HW274565   8.864   5.643   2.224  0.6815 -0.2434 -0.1428
24663SOL     OW74566   0.794   6.780   9.158  0.1981 -0.5685 -0.1766
24663SOL    HW174567   0.740   6.828   9.221  1.4487 -0.0543  0.5258
24663SOL    HW274568   0.850   6.724   9.210  1.9057  0.5449 -0.7339
24664SOL     OW74569   3.124   8.979   5.211  0.0642 -0.3881  0.7582
24664SOL    HW174570   3.120   8.923   5.133  1.7070 -1.3800  1.3495
24664SOL    HW274571   3.046   8.955   5.261  0.5821 -1.9884  0.8630
24665SOL     OW74572   7.294   6.397   1.636  0.2712  0.5535 -0.2021
24665SOL    HW174573   7.268   6.386   1.728  1.3286  0.2452  0.0741
24665SOL    HW274574   7.218   6.439   1.595 -1.2103 -1.5400  0.2341
24666SOL     OW74575   1.692   0.427   2.422 -0.3336  0.0507  0.3998
24666SOL    HW174576   1.730   0.385   2.345 -1.6567 -0.6014  0.0760
24666SOL    HW274577   1.604   0.454   2.394 -0.0201  1.8175  1.0218
24667SOL     OW74578   3.745   2.669   5.839  0.0892 -0.3271 -0.1637
24667SOL    HW174579   3.789   2.747   5.805 -1.4080  0.1374 -1.1103
24667SOL    HW274580   3.673   2.654   5.779 -1.3267 -0.7868  1.5782
24668SOL     OW74581   3.761   2.335   8.409 -0.0080 -0.1775  0.5037
24668SOL    HW174582   3.677   2.373   8.385 -0.3922 -1.8218 -0.9322
24668SOL    HW274583   3.826   2.392   8.368 -0.4587  0.3258  0.4785
24669SOL     OW74584   2.555   2.311   5.840 -0.5655  0.3399 -0.4218
24669SOL    HW174585   2.513   2.226   5.824  1.9090 -1.0260 -0.1898
24669SOL    HW274586   2.537   2.329   5.933  0.6848 -1.0608  0.1355
24670SOL     OW74587   2.814   9.518   5.640 -0.0635 -0.5264  0.0201
24670SOL    HW174588   2.847   9.467   5.565 -0.0104 -0.7622  0.2026
24670SOL    HW274589   2.747   9.462   5.679  0.7975 -0.9780  0.9221
24671SOL     OW74590   7.272   1.396   1.327  0.3254  0.5840  0.7622
24671SOL    HW174591   7.362   1.398   1.358  0.2622  1.6930  0.8848
24671SOL    HW274592   7.280   1.374   1.234  0.6158 -0.8257  1.0886
24672SOL     OW74593   8.284   6.819   2.301 -0.2843  0.0426 -0.1350
24672SOL    HW174594   8.227   6.868   2.359  0.6357 -1.4178  2.1622
24672SOL    HW274595   8.225   6.776   2.239 -1.3875  1.0065  0.2142
24673SOL     OW74596   8.499   1.376   4.791  0.4372  0.0698  0.2695
24673SOL    HW174597   8.581   1.372   4.742 -0.5918 -0.8073 -1.4458
24673SOL    HW274598   8.446   1.304   4.758 -0.7637  0.1360  1.8823
24674SOL     OW74599   2.413   5.342   3.653  0.2339  0.5501  0.1253
24674SOL    HW174600   2.421   5.435   3.675 -0.1154  0.0414  2.7633
24674SOL    HW274601   2.375   5.342   3.566 -0.7722  2.9079  0.4615
24675SOL     OW74602   3.907   3.961   5.149  0.3734  0.1182  0.0560
24675SOL    HW174603   3.894   3.888   5.089  2.1539 -0.7817  0.7074
24675SOL    HW274604   4.000   3.983   5.140  0.2524  1.1726  1.1353
24676SOL     OW74605   8.444   4.249   9.885 -0.8405 -0.3434  0.1705
24676SOL    HW174606   8.365   4.246   9.831 -0.0465  2.1162 -1.3179
24676SOL    HW274607   8.447   4.339   9.918 -0.0507 -1.1434  2.4644
24677SOL     OW74608   4.514   6.852   2.252  0.1515 -0.7489  0.2563
24677SOL    HW174609   4.535   6.759   2.258 -1.4855 -1.2792 -1.3012
24677SOL    HW274610   4.418   6.855   2.257  0.1944  0.9098  0.6916
24678SOL     OW74611   5.101   2.682   3.059 -0.1862  0.1083  0.2904
24678SOL    HW174612   5.162   2.608   3.057 -1.4579 -1.0664  2.0212
24678SOL    HW274613   5.054   2.677   2.976 -0.0960 -0.8931  0.2857
24679SOL     OW74614   1.524   3.192   9.461  0.2374  0.1169 -0.4882
24679SOL    HW174615   1.559   3.221   9.545  0.4194 -1.1096 -0.1223
24679SOL    HW274616   1.525   3.271   9.406 -0.2846  1.0299  0.7693
24680SOL     OW74617   8.758   5.753   6.269  0.3494  0.0082  0.1519
24680SOL    HW174618   8.842   5.784   6.236  0.8414 -0.0772  1.2867
24680SOL    HW274619   8.764   5.762   6.364 -0.9970  0.1723  0.2443
24681SOL     OW74620   4.878   0.650   3.242  0.2915  0.5769  0.0175
24681SOL    HW174621   4.970   0.640   3.215  0.0995 -2.3198  0.1755
24681SOL    HW274622   4.880   0.640   3.337 -0.3276 -1.3321 -0.1335
24682SOL     OW74623   9.890   6.347   9.557 -0.3421  0.0034 -0.5022
24682SOL    HW174624   9.918   6.256   9.552 -1.0680 -0.2068 -0.9275
24682SOL    HW274625   9.871   6.361   9.650  0.5090 -0.0423 -0.3154
24683SOL     OW74626   8.374   1.738   5.443 -0.1127  0.7353 -0.3289
24683SOL    HW174627   8.411   1.667   5.496 -1.0577 -0.0071 -0.6310
24683SOL    HW274628   8.407   1.722   5.354 -1.6447 -0.3377 -0.7448
24684SOL     OW74629   7.978   5.363   3.721 -0.1450  0.2510 -0.0252
24684SOL    HW174630   7.960   5.365   3.815  1.9332  0.2369  0.4132
24684SOL    HW274631   7.971   5.270   3.698  1.6261 -0.1028  0.6592
24685SOL     OW74632   4.180   9.496   2.902 -0.3145  0.7414 -0.8053
24685SOL    HW174633   4.163   9.429   2.836  1.4217  1.2963 -1.8583
24685SOL    HW274634   4.271   9.521   2.889  0.0744  0.9390  1.7633
24686SOL     OW74635   2.157   9.003   4.932  0.0019 -0.4530 -0.1745
24686SOL    HW174636   2.211   9.072   4.971 -0.6975  0.6774 -1.0990
24686SOL    HW274637   2.177   9.007   4.838 -1.3299 -0.2963 -0.4802
24687SOL     OW74638   1.710   4.308   9.485 -0.2853 -0.1747  0.0549
24687SOL    HW174639   1.632   4.275   9.529 -0.0490  1.1015  1.4907
24687SOL    HW274640   1.677   4.342   9.402 -1.3030  0.5061  0.7134
24688SOL     OW74641   5.597   8.420   7.308  0.1753 -0.5515  0.5771
24688SOL    HW174642   5.534   8.383   7.369  1.8092 -1.3969  1.8138
24688SOL    HW274643   5.556   8.501   7.278 -1.4418 -1.0236  1.4065
24689SOL     OW74644   2.060   3.689   5.304 -0.2254  0.9355  0.0390
24689SOL    HW174645   1.993   3.629   5.337  0.0279  1.3271  1.2893
24689SOL    HW274646   2.112   3.635   5.244  0.2016 -0.2203  1.3831
24690SOL     OW74647   2.653   7.306   0.181 -0.3268  0.1868 -0.1259
24690SOL    HW174648   2.683   7.337   0.095 -0.4665  0.3287 -0.1247
24690SOL    HW274649   2.639   7.386   0.232 -1.2902  0.1584 -0.3242
24691SOL     OW74650   6.244   0.979   4.576 -0.2860  0.0319 -0.0339
24691SOL    HW174651   6.172   0.920   4.554  0.8272 -0.9574 -1.2521
24691SOL    HW274652   6.239   0.989   4.671 -1.7798 -0.3154 -0.0497
24692SOL     OW74653   9.744   9.434   9.815  0.1724  0.3946  0.5127
24692SOL    HW174654   9.776   9.445   9.904  0.9674 -1.8007  0.5561
24692SOL    HW274655   9.670   9.374   9.824 -0.1383  0.6537 -0.2475
24693SOL     OW74656   7.312   6.682   9.849  0.1842 -0.0925 -0.5683
24693SOL    HW174657   7.384   6.623   9.831  1.3656 -0.2017  3.4373
24693SOL    HW274658   7.347   6.743   9.915 -3.0899  0.3023  1.0223
24694SOL     OW74659   8.985   0.592   1.484 -0.0688  0.0646 -0.1217
24694SOL    HW174660   8.993   0.666   1.544  0.0603  1.4813 -1.8232
24694SOL    HW274661   8.899   0.554   1.505 -0.6024  1.3424  0.0957
24695SOL     OW74662   2.994   8.918   1.893  0.5100 -0.1670  0.3262
24695SOL    HW174663   2.984   8.877   1.808 -0.0852 -0.8277  0.7043
24695SOL    HW274664   3.027   9.006   1.874  2.4471 -1.0247 -0.4535
24696SOL     OW74665   3.779   6.975   1.305  0.2940 -0.5316  0.9486
24696SOL    HW174666   3.784   6.884   1.334 -0.3467 -1.1056 -0.6226
24696SOL    HW274667   3.686   6.989   1.284  0.8569 -0.6700 -2.1296
24697SOL     OW74668   7.004   4.180   3.975  0.4367 -0.2408  0.1340
24697SOL    HW174669   7.081   4.126   3.995  0.0658 -0.9480 -0.3147
24697SOL    HW274670   7.035   4.242   3.909  1.1516  0.8389  1.4351
24698SOL     OW74671   5.498   0.825   0.734 -0.6639 -0.2406 -0.0808
24698SOL    HW174672   5.418   0.781   0.759 -1.0386 -0.1297 -1.0482
24698SOL    HW274673   5.555   0.756   0.701 -1.1096 -0.0823 -1.2383
24699SOL     OW74674   4.580   7.897   3.871  0.1060  0.0047 -0.2111
24699SOL    HW174675   4.528   7.846   3.933 -1.4604  1.1445 -0.5051
24699SOL    HW274676   4.538   7.882   3.787  0.5905  0.5503 -0.5569
24700SOL     OW74677   8.960   8.984   1.789  0.1668 -0.0660  0.7292
24700SOL    HW174678   9.025   8.989   1.859  1.5088  0.8084 -0.5284
24700SOL    HW274679   8.953   8.890   1.769  2.0654 -0.0998  0.0047
24701SOL     OW74680   4.832   8.815   0.430 -0.3295 -0.2737 -0.3561
24701SOL    HW174681   4.821   8.776   0.517 -0.2763  1.3070  0.3980
24701SOL    HW274682   4.760   8.878   0.422  0.6048  0.7871 -0.7600
24702SOL     OW74683   6.261   5.792   8.557 -0.0802  0.5617  0.0528
24702SOL    HW174684   6.261   5.859   8.625  0.3510  0.0563  0.5661
24702SOL    HW274685   6.321   5.826   8.490  0.2774  0.6085  0.3944
24703SOL     OW74686   5.607   0.222   0.201  0.0216  0.2162 -0.1224
24703SOL    HW174687   5.696   0.186   0.204 -0.1542 -0.1766  1.4741
24703SOL    HW274688   5.619   0.312   0.172  0.9387  0.1316 -0.0541
24704SOL     OW74689   6.901   7.315   9.277  0.2227 -0.0492  0.5708
24704SOL    HW174690   6.847   7.275   9.345  1.6761  0.1395  1.8920
24704SOL    HW274691   6.841   7.370   9.227 -1.1324 -1.2211  0.8640
24705SOL     OW74692   4.188   8.899   2.042 -0.4160  0.6486 -0.9642
24705SOL    HW174693   4.250   8.827   2.055  1.3261  1.7098 -2.7206
24705SOL    HW274694   4.102   8.859   2.056  0.5057 -1.6250 -1.2547
24706SOL     OW74695   6.744   4.336   9.583  0.2350  0.0168  0.0505
24706SOL    HW174696   6.735   4.250   9.625  0.7612 -0.5324 -0.9067
24706SOL    HW274697   6.657   4.353   9.546  0.7087 -1.2364 -1.7785
24707SOL     OW74698   0.066   6.434   9.299  0.4995 -0.4282  0.1301
24707SOL    HW174699   0.081   6.458   9.391  2.0992 -1.1000  0.0768
24707SOL    HW274700   0.117   6.497   9.249 -0.5151  0.0487 -0.3192
24708SOL     OW74701   2.787   9.942   5.432  0.0208 -0.3139 -0.6311
24708SOL    HW174702   2.775   9.908   5.344 -3.4114  0.8643 -0.7481
24708SOL    HW274703   2.813  10.034   5.419 -4.2637  1.0994 -0.6974
24709SOL     OW74704   5.073   9.048   0.305  0.1380  0.2693 -0.5293
24709SOL    HW174705   5.008   9.055   0.236 -0.5075  0.7392  0.1074
24709SOL    HW274706   5.128   8.975   0.279  1.5151  1.9826 -2.8559
24710SOL     OW74707   4.449   0.299   0.474 -0.2961 -0.2417  0.1776
24710SOL    HW174708   4.456   0.351   0.394  1.3718  0.7803  0.9444
24710SOL    HW274709   4.525   0.241   0.472 -0.4968 -0.5365  0.7902
24711SOL     OW74710   7.446   5.154   1.885 -0.1445  0.3489 -0.3218
24711SOL    HW174711   7.431   5.222   1.819  0.6153 -0.1242 -0.9998
24711SOL    HW274712   7.517   5.189   1.939  1.2309 -0.4755 -1.5329
24712SOL     OW74713   7.942   5.986   2.664 -0.5489 -0.7233 -0.5521
24712SOL    HW174714   7.979   5.907   2.624  0.1523 -1.0626  0.7465
24712SOL    HW274715   7.917   5.959   2.752  3.7398  1.4500  1.6131
24713SOL     OW74716   4.323   0.432   5.432  0.0007 -0.0214  0.6936
24713SOL    HW174717   4.291   0.452   5.520  0.0306  0.6240  0.5644
24713SOL    HW274718   4.328   0.517   5.389 -0.1064 -0.3419  0.0365
24714SOL     OW74719   0.273   0.307   4.840  0.2067  0.2022  0.2106
24714SOL    HW174720   0.183   0.336   4.854 -0.2834 -0.1650 -1.8670
24714SOL    HW274721   0.315   0.378   4.792  0.4994 -0.3695 -0.3940
24715SOL     OW74722   8.279   6.317   1.683 -0.0656  0.3878  0.0531
24715SOL    HW174723   8.220   6.259   1.635  1.1661 -0.3033 -0.6874
24715SOL    HW274724   8.330   6.259   1.739 -0.7886  1.0838  1.4806
24716SOL     OW74725   2.192   3.800   0.012  0.1860 -0.0795 -0.1496
24716SOL    HW174726   2.221   3.883   0.049  0.6423 -0.5277  0.5323
24716SOL    HW274727   2.129   3.767   0.075 -0.2558 -0.0881 -0.5942
24717SOL     OW74728   6.834   3.509   5.077 -0.1016 -0.1235  0.3139
24717SOL    HW174729   6.845   3.510   5.172 -3.1144  1.4095  0.7636
24717SOL    HW274730   6.753   3.461   5.063  0.0334  0.1053 -1.4672
24718SOL     OW74731   1.533   4.234   8.403  0.0228 -0.4432 -0.5604
24718SOL    HW174732   1.520   4.149   8.445 -1.4887  0.1385  0.2287
24718SOL    HW274733   1.451   4.250   8.357  0.2288  0.6688 -0.5557
24719SOL     OW74734   2.931   5.741   7.029 -0.4454  0.0002 -0.1814
24719SOL    HW174735   2.973   5.727   6.944 -0.1106 -0.3840  0.0384
24719SOL    HW274736   2.838   5.724   7.014 -0.3042 -0.6817 -0.3410
24720SOL     OW74737   6.923   5.007   3.214 -0.1253  0.0823 -0.2013
24720SOL    HW174738   6.901   5.025   3.305  0.2035 -0.1824 -0.0685
24720SOL    HW274739   6.994   4.943   3.218  0.4472  0.6696 -0.6238
24721SOL     OW74740   3.795   4.160   9.421 -0.4393 -0.3240 -0.2160
24721SOL    HW174741   3.889   4.177   9.419 -0.7186  1.6161  0.4341
24721SOL    HW274742   3.761   4.201   9.342 -0.9802  1.0690  0.6895
24722SOL     OW74743   8.322   6.997   8.644  0.4144 -0.2786 -0.0105
24722SOL    HW174744   8.236   7.024   8.675 -0.6271  0.2002 -2.9319
24722SOL    HW274745   8.350   7.067   8.585  3.1946 -0.0702  1.3708
24723SOL     OW74746   4.849   9.463   0.155  0.3008 -0.0902  0.4694
24723SOL    HW174747   4.831   9.393   0.091 -0.0420  1.8805 -1.7418
24723SOL    HW274748   4.778   9.526   0.141  1.4077  1.4015  1.3166
24724SOL     OW74749   4.610   6.046   0.351  0.0276 -0.1860  0.5413
24724SOL    HW174750   4.548   5.974   0.340 -2.4823  1.6355  1.7425
24724SOL    HW274751   4.695   6.008   0.331 -1.2576 -3.2757  0.4388
24725SOL     OW74752   9.528   6.087   5.414  0.4952  0.2861 -0.1342
24725SOL    HW174753   9.535   6.177   5.446 -2.3823  0.0820  1.4099
24725SOL    HW274754   9.439   6.082   5.378  0.8964 -1.7332 -0.9272
24726SOL     OW74755   0.829   2.117   0.571 -0.2189  0.7724 -0.4718
24726SOL    HW174756   0.906   2.148   0.619 -0.5735 -0.7071  1.2030
24726SOL    HW274757   0.845   2.023   0.561 -0.8740  0.8022 -1.9856
24727SOL     OW74758   7.799  -0.009   8.007  0.6611  0.0648  0.7694
24727SOL    HW174759   7.842   0.054   8.065  0.9984 -1.0157  1.7332
24727SOL    HW274760   7.809   0.029   7.920  1.0007  1.2547  1.2927
24728SOL     OW74761   5.755   3.091   7.464  0.1973 -0.7655 -0.2894
24728SOL    HW174762   5.689   3.078   7.395 -0.1150 -1.1639  0.0811
24728SOL    HW274763   5.714   3.152   7.525 -0.2258 -1.7590  0.4475
24729SOL     OW74764   6.599   2.903   7.529 -0.4410 -0.5937 -0.1041
24729SOL    HW174765   6.567   2.905   7.619 -1.3849  2.1075 -0.4054
24729SOL    HW274766   6.569   2.820   7.494 -0.2277 -1.6184  1.9781
24730SOL     OW74767   2.429   4.971   1.860 -0.1241  0.7037  0.1431
24730SOL    HW174768   2.389   5.012   1.784  2.7398  1.0219 -1.3416
24730SOL    HW274769   2.394   4.882   1.862 -1.9519  1.3852 -0.1351
24731SOL     OW74770   4.127   0.642   3.094 -0.5677 -0.0462 -0.0303
24731SOL    HW174771   4.119   0.652   2.999  0.2464 -0.7265 -0.1846
24731SOL    HW274772   4.208   0.592   3.106  0.6564  2.0733  1.1358
24732SOL     OW74773   7.393   8.536   4.401 -0.4346 -0.1649 -0.1680
24732SOL    HW174774   7.346   8.489   4.332 -1.1896  0.1119  0.1551
24732SOL    HW274775   7.460   8.473   4.431  3.5501  1.3743 -4.6534
24733SOL     OW74776   7.464   6.633   7.041 -0.7745 -0.1748 -0.1796
24733SOL    HW174777   7.462   6.542   7.071 -1.4317  0.0058  0.3429
24733SOL    HW274778   7.470   6.685   7.122  0.2607  0.2304 -0.5045
24734SOL     OW74779   2.973   2.695   3.125 -0.6623  0.4569 -0.4211
24734SOL    HW174780   3.047   2.687   3.185 -1.5236 -0.7914  0.5179
24734SOL    HW274781   2.965   2.789   3.109 -0.4285  0.8330  1.4516
24735SOL     OW74782   5.164   7.608   0.237  0.0187 -0.1706  0.7513
24735SOL    HW174783   5.119   7.582   0.317 -0.3005 -0.7308  0.4046
24735SOL    HW274784   5.119   7.559   0.168 -1.2744  2.0663 -0.0989
24736SOL     OW74785   1.317   9.406   6.528  0.2030  0.3414 -0.6548
24736SOL    HW174786   1.228   9.386   6.555 -0.0130  1.3362 -0.5685
24736SOL    HW274787   1.319   9.502   6.520  1.7885  0.5528  1.3469
24737SOL     OW74788   6.994   2.849   2.561  0.3945  0.1210  0.6098
24737SOL    HW174789   6.935   2.897   2.619  0.2959 -0.3534  0.9063
24737SOL    HW274790   7.075   2.899   2.564  0.4163  0.0651  1.2217
24738SOL     OW74791   0.957   7.725   0.358 -0.3915  0.4147  0.2989
24738SOL    HW174792   0.912   7.681   0.285 -0.6405  0.4858  0.4064
24738SOL    HW274793   1.013   7.657   0.396  1.2525  0.8633 -1.1620
24739SOL     OW74794   1.548   7.853   1.879 -0.0159  0.1901  0.0458
24739SOL    HW174795   1.487   7.833   1.950 -2.3942 -1.1713 -2.2073
24739SOL    HW274796   1.520   7.939   1.846  0.2150  0.2176 -0.0838
24740SOL     OW74797   0.519   8.569   1.265 -0.4889 -0.4719  0.3363
24740SOL    HW174798   0.527   8.642   1.204  1.9122  0.1325  1.2814
24740SOL    HW274799   0.458   8.601   1.332 -0.5294  0.1243  0.0211
24741SOL     OW74800   3.728   5.853   8.300 -0.4823 -0.3729 -0.1661
24741SOL    HW174801   3.745   5.938   8.341  1.1118 -1.1875  0.9780
24741SOL    HW274802   3.729   5.790   8.372 -1.9654 -1.3610 -0.9411
24742SOL     OW74803   5.195   0.594   7.890 -0.0051  0.3330 -0.1831
24742SOL    HW174804   5.272   0.545   7.918 -0.9833 -0.2736  1.5432
24742SOL    HW274805   5.202   0.597   7.795  0.2112 -2.9799 -0.3687
24743SOL     OW74806   3.412   0.348   7.148 -0.1878 -0.1090 -0.6134
24743SOL    HW174807   3.389   0.256   7.163 -0.1735 -0.1268 -0.6987
24743SOL    HW274808   3.356   0.375   7.075  0.1435 -0.1888 -0.9039
24744SOL     OW74809   2.430   9.775   3.323  0.4722  0.4005 -0.0102
24744SOL    HW174810   2.428   9.680   3.310 -0.5733  0.5900 -1.4865
24744SOL    HW274811   2.503   9.790   3.383  0.4306 -1.3565  0.5316
24745SOL     OW74812   8.000   5.270   7.114  0.4990  0.3502  0.0194
24745SOL    HW174813   8.029   5.319   7.037  0.2255 -1.0955 -1.0309
24745SOL    HW274814   7.904   5.269   7.108  0.3081  2.2299  1.6775
24746SOL     OW74815   8.563   8.988   6.052 -0.1081 -0.3133  0.5702
24746SOL    HW174816   8.538   8.914   5.996 -0.5947 -0.4476  0.9486
24746SOL    HW274817   8.519   8.970   6.135 -0.1652  0.3634  0.6906
24747SOL     OW74818   1.588   9.982   8.994  0.0552  0.2818 -0.0968
24747SOL    HW174819   1.508   9.972   8.943 -0.7486  0.5089  1.0788
24747SOL    HW274820   1.578   9.920   9.066  1.9418 -1.2952 -1.0828
24748SOL     OW74821   8.239   3.520   8.414  0.1931 -0.2114  0.1650
24748SOL    HW174822   8.201   3.461   8.479  1.4064 -1.5547 -0.2706
24748SOL    HW274823   8.186   3.506   8.335  1.9151 -2.6501 -0.6681
24749SOL     OW74824   2.940   1.844   3.620  0.3608  0.3412 -0.2958
24749SOL    HW174825   2.897   1.929   3.625  0.8429  0.5318  0.7412
24749SOL    HW274826   2.884   1.786   3.671  1.2942  0.5824  1.0237
24750SOL     OW74827   3.353   0.324   9.290  0.2101 -0.1882 -0.3765
24750SOL    HW174828   3.308   0.241   9.277 -0.8207  0.4290 -0.9244
24750SOL    HW274829   3.282   0.387   9.305  1.0158  0.3905  1.2853
24751SOL     OW74830   7.902   3.892   6.314  0.1432  0.5668 -0.1212
24751SOL    HW174831   7.998   3.884   6.317  0.0598 -0.6866 -0.3154
24751SOL    HW274832   7.870   3.804   6.333 -0.8963 -0.2303 -4.5531
24752SOL     OW74833   6.976   5.066   4.413 -0.4196 -0.2541 -0.3205
24752SOL    HW174834   6.955   5.136   4.351  0.2603  0.9291  0.7347
24752SOL    HW274835   6.909   5.073   4.481  1.0111  0.9960  1.0356
24753SOL     OW74836   5.096   9.599   9.639 -0.5453 -0.1001  0.4360
24753SOL    HW174837   5.137   9.652   9.570  0.1018  0.8880  1.5425
24753SOL    HW274838   5.169   9.564   9.689 -1.0213 -0.4914  0.8676
24754SOL     OW74839   2.342   7.882   5.867 -0.2603 -0.1986 -0.5865
24754SOL    HW174840   2.318   7.845   5.782 -0.3604 -2.8451  0.4944
24754SOL    HW274841   2.259   7.904   5.908 -0.3007 -0.5024 -0.5074
24755SOL     OW74842   0.637   9.084   6.684 -0.2879 -0.6334 -0.2033
24755SOL    HW174843   0.585   9.129   6.618  1.2115  0.1376 -0.9102
24755SOL    HW274844   0.583   9.088   6.763 -0.9077  0.9669 -0.6630
24756SOL     OW74845   6.118   8.260   8.971  0.2963  0.2102 -0.2396
24756SOL    HW174846   6.178   8.243   9.043 -1.9822 -0.7821  1.5561
24756SOL    HW274847   6.107   8.355   8.970  2.7252  0.5581 -1.4273
24757SOL     OW74848   5.200   6.564   8.650  0.1909 -0.1690 -0.1254
24757SOL    HW174849   5.149   6.581   8.730  0.7867  1.8932 -0.1301
24757SOL    HW274850   5.291   6.576   8.676  0.3528  1.4469 -1.2596
24758SOL     OW74851   7.585   1.092   3.676  0.1693  0.4023  0.3815
24758SOL    HW174852   7.502   1.097   3.627  1.1225  1.9201 -1.2122
24758SOL    HW274853   7.652   1.085   3.608  1.3594 -1.0921  1.6560
24759SOL     OW74854   2.531   1.485   0.849  0.1533  0.3643 -0.3757
24759SOL    HW174855   2.511   1.510   0.758  1.0959 -0.1046 -0.7150
24759SOL    HW274856   2.582   1.405   0.842  1.1329  0.8860  0.5260
24760SOL     OW74857   4.731   2.170   4.528 -0.0929  0.2348  0.3024
24760SOL    HW174858   4.647   2.171   4.575 -0.4248 -0.2962 -0.2619
24760SOL    HW274859   4.750   2.077   4.515 -1.0057  0.3117 -2.3087
24761SOL     OW74860   6.507   1.068   9.375  0.5805 -0.5671 -0.2192
24761SOL    HW174861   6.549   1.124   9.310  1.2010 -0.6537  0.0968
24761SOL    HW274862   6.419   1.105   9.386  0.2200 -0.9510 -1.5957
24762SOL     OW74863   7.732   8.017   0.820  0.2736  0.4978  0.2291
24762SOL    HW174864   7.802   8.052   0.764  0.8904 -0.1511  0.5775
24762SOL    HW274865   7.724   7.925   0.795  1.1865 -0.0536  1.7689
24763SOL     OW74866   2.957   0.520   7.253  0.6749 -0.2463  0.1015
24763SOL    HW174867   2.938   0.539   7.345 -1.6038  1.1063 -0.5581
24763SOL    HW274868   2.955   0.425   7.247 -1.2421 -0.3086  1.1041
24764SOL     OW74869   1.769   7.682   1.839 -0.2625 -0.0577 -0.3658
24764SOL    HW174870   1.695   7.742   1.849 -0.5357 -0.0734 -2.0803
24764SOL    HW274871   1.778   7.670   1.745  3.1385  1.4523 -0.4029
24765SOL     OW74872   9.861   7.502   6.796 -0.1213 -0.1369 -0.2132
24765SOL    HW174873   9.771   7.469   6.799 -0.0012 -0.6274 -1.4674
24765SOL    HW274874   9.888   7.488   6.705  0.1964  2.7383 -0.6522
24766SOL     OW74875   7.872   3.115   1.817  0.4449  0.0452 -0.0700
24766SOL    HW174876   7.789   3.071   1.800 -0.6304  2.0849 -0.5172
24766SOL    HW274877   7.874   3.187   1.753  2.1655  0.5423  0.4905
24767SOL     OW74878   0.525   9.301   2.459 -0.4136  0.4805  0.2958
24767SOL    HW174879   0.609   9.348   2.459 -0.3458  0.4052 -1.0324
24767SOL    HW274880   0.518   9.265   2.371 -1.1342 -0.8275  0.8654
24768SOL     OW74881   5.820   5.708   0.562 -0.0104 -0.1865  0.1682
24768SOL    HW174882   5.814   5.742   0.651 -1.2644  1.3557 -0.4687
24768SOL    HW274883   5.823   5.613   0.574 -0.4089 -0.0318  1.8504
24769SOL     OW74884   6.514   2.681   1.705 -0.3319  0.6284 -0.1390
24769SOL    HW174885   6.516   2.593   1.743 -1.8188  0.5642 -0.1489
24769SOL    HW274886   6.585   2.727   1.749 -0.6329 -0.0760  1.1488
24770SOL     OW74887   2.188   0.118   2.687 -0.1432 -0.0874  0.2248
24770SOL    HW174888   2.263   0.157   2.643 -0.7619  0.6940 -0.1671
24770SOL    HW274889   2.123   0.104   2.618 -1.0885  1.0731  0.8299
24771SOL     OW74890   0.961   2.961   8.669  0.1949  0.2754 -0.0331
24771SOL    HW174891   0.917   2.882   8.639  1.5169 -0.0753 -1.1419
24771SOL    HW274892   0.969   3.016   8.591  0.6246  0.8435  0.4005
24772SOL     OW74893   5.949   6.609   1.030 -0.4613 -0.3276  0.0246
24772SOL    HW174894   6.027   6.612   1.086 -0.1548 -1.1310 -0.3431
24772SOL    HW274895   5.943   6.696   0.993  0.3188 -0.2752 -0.0062
24773SOL     OW74896   9.898   0.978   8.361  0.4772 -0.5939 -0.6256
24773SOL    HW174897   9.992   0.962   8.347  0.5052  0.7065 -2.2300
24773SOL    HW274898   9.877   1.049   8.301 -1.4480 -0.5204  0.0792
24774SOL     OW74899   4.103   4.549   8.250 -0.2900  0.0941  0.0606
24774SOL    HW174900   4.016   4.544   8.210 -0.5199  1.8321  0.2939
24774SOL    HW274901   4.146   4.622   8.205  1.7617 -1.8449 -1.3509
24775SOL     OW74902   2.003   2.755   1.508 -0.3623  0.2403 -0.6424
24775SOL    HW174903   1.961   2.669   1.518  0.1164 -0.0138 -0.7616
24775SOL    HW274904   1.964   2.809   1.576  0.3874 -0.4878  0.3957
24776SOL     OW74905   0.329   8.380   2.010 -0.5003  0.3082  0.3715
24776SOL    HW174906   0.262   8.382   1.942  0.8987 -1.2108 -1.1449
24776SOL    HW274907   0.372   8.465   2.003  0.0968 -0.0919 -1.1851
24777SOL     OW74908   0.698   5.427   2.483  0.0042  0.7913  0.4804
24777SOL    HW174909   0.633   5.383   2.538  1.6643  0.4885  2.3077
24777SOL    HW274910   0.750   5.478   2.544  0.1900  2.7365 -1.1965
24778SOL     OW74911   8.426   0.729   6.149 -0.2599  0.4068  0.6930
24778SOL    HW174912   8.342   0.748   6.106 -0.9694 -0.8507  1.4384
24778SOL    HW274913   8.401   0.684   6.229  1.1025  1.2746  1.6313
24779SOL     OW74914   2.452   1.281   9.953 -0.5284 -0.0317  0.0243
24779SOL    HW174915   2.431   1.316   9.867 -0.9645  0.8635  0.4787
24779SOL    HW274916   2.367   1.276   9.998 -0.5376 -1.9747 -0.1071
24780SOL     OW74917   3.916   5.527   0.130 -0.3840  0.6676  0.2012
24780SOL    HW174918   3.821   5.518   0.134 -0.3886  1.0520  1.2038
24780SOL    HW274919   3.931   5.608   0.081 -0.6107  1.1399  0.8941
24781SOL     OW74920   9.701   6.408   7.389  0.1426  0.3805 -0.3992
24781SOL    HW174921   9.763   6.356   7.338  0.1508 -0.3864  0.3686
24781SOL    HW274922   9.753   6.479   7.425  0.8568 -0.8979  1.1819
24782SOL     OW74923   4.597   8.609   6.904  0.0293 -0.1097 -0.0190
24782SOL    HW174924   4.528   8.543   6.904  0.3271 -0.4412  1.2166
24782SOL    HW274925   4.553   8.691   6.925  0.0440 -0.3785  1.1146
24783SOL     OW74926   0.064   8.072   7.458 -0.2710 -0.4229 -0.2728
24783SOL    HW174927   0.069   8.017   7.379 -3.6849 -1.5390  0.1247
24783SOL    HW274928   0.025   8.153   7.427  0.1144 -0.1383 -0.0165
24784SOL     OW74929   1.000   7.188   3.738 -0.2053 -0.4502  0.0669
24784SOL    HW174930   1.059   7.211   3.666  0.1950  0.4474  0.6676
24784SOL    HW274931   1.046   7.217   3.817  0.4190 -3.4057  0.9492
24785SOL     OW74932   1.909   8.491   2.590 -0.0375  0.2870 -0.0417
24785SOL    HW174933   1.848   8.450   2.528 -2.6190  2.6800  0.7170
24785SOL    HW274934   1.861   8.492   2.673  1.1948  1.9567  0.7014
24786SOL     OW74935   6.623   9.518   9.171  0.0292  0.6465 -0.0540
24786SOL    HW174936   6.619   9.565   9.254  1.2807 -0.8303  0.9109
24786SOL    HW274937   6.567   9.568   9.112  0.1931  2.5054  1.2802
24787SOL     OW74938   9.327   1.834   8.756 -0.1965  0.0919 -0.1678
24787SOL    HW174939   9.377   1.758   8.726 -0.3355 -0.1887  0.2839
24787SOL    HW274940   9.236   1.806   8.750 -0.2496  0.2368 -0.0458
24788SOL     OW74941   2.026   3.486   0.339  0.4638  0.1747 -0.5013
24788SOL    HW174942   2.019   3.555   0.405  0.1080 -0.4635  0.1392
24788SOL    HW274943   1.983   3.410   0.378 -1.2089  0.2352 -2.1267
24789SOL     OW74944   6.406   1.044   3.310 -0.0702  0.4048  0.1589
24789SOL    HW174945   6.356   0.985   3.366  0.2476  0.0332  0.0581
24789SOL    HW274946   6.349   1.059   3.234 -1.7092  3.1221  1.7628
24790SOL     OW74947   1.367   9.758   7.319 -0.0958  0.6967 -0.0388
24790SOL    HW174948   1.404   9.764   7.230 -0.7060  1.2863 -0.2616
24790SOL    HW274949   1.440   9.729   7.373 -0.2506 -1.8115 -1.0761
24791SOL     OW74950   8.917   9.185   9.222 -0.0011 -0.1054  0.4056
24791SOL    HW174951   8.850   9.119   9.203 -0.0683  0.4819 -1.6484
24791SOL    HW274952   8.991   9.161   9.167  0.3668  0.9325  0.4281
24792SOL     OW74953   6.591   9.782   7.642 -0.2519  0.3596  0.3175
24792SOL    HW174954   6.654   9.747   7.578  0.9856  0.4065  1.4480
24792SOL    HW274955   6.506   9.774   7.600  0.1549 -2.4575 -0.1688
24793SOL     OW74956   8.865   5.216   3.231  0.1043  0.5876  0.0467
24793SOL    HW174957   8.837   5.280   3.165  1.5867 -0.7060 -1.9725
24793SOL    HW274958   8.785   5.166   3.251 -0.1442  0.1625 -1.8201
24794SOL     OW74959   2.662   8.255   1.551  0.0476  0.2514  0.0377
24794SOL    HW174960   2.589   8.317   1.543 -1.7821 -2.0011 -2.0549
24794SOL    HW274961   2.627   8.183   1.603  0.9103 -0.6849 -0.6420
24795SOL     OW74962   6.097   7.889   8.141 -0.1196 -0.6865  0.3864
24795SOL    HW174963   6.098   7.971   8.189 -0.2944 -1.2140  1.3138
24795SOL    HW274964   6.076   7.914   8.051  1.7760  0.4857  0.2267
24796SOL     OW74965   3.260   3.661   9.109 -0.2412 -0.1323  0.0180
24796SOL    HW174966   3.181   3.700   9.071  0.3119 -0.2835 -1.3542
24796SOL    HW274967   3.302   3.733   9.156  0.7991  1.0491 -2.5291
24797SOL     OW74968   3.978   3.316   0.499 -0.4924 -0.0240 -0.4262
24797SOL    HW174969   4.038   3.324   0.426 -0.2405 -2.2522 -0.5278
24797SOL    HW274970   4.028   3.346   0.575 -0.2757  0.9078 -0.9204
24798SOL     OW74971   9.535   0.271   1.118  0.1477  0.3314  0.5785
24798SOL    HW174972   9.558   0.308   1.203  0.4945 -0.7940  0.9965
24798SOL    HW274973   9.529   0.177   1.134  0.1146  0.1140 -0.6185
24799SOL     OW74974   8.495   1.397   8.559  0.1984 -0.5183  0.0402
24799SOL    HW174975   8.487   1.303   8.543  0.3518 -0.5859  0.3657
24799SOL    HW274976   8.536   1.431   8.479 -0.5608 -0.6102 -0.3969
24800SOL     OW74977   8.833   3.468   5.513 -0.3557  0.9523 -0.1431
24800SOL    HW174978   8.751   3.481   5.562  0.5553  0.5295  1.5702
24800SOL    HW274979   8.831   3.376   5.486 -0.2788  0.8411  0.2258
24801SOL     OW74980   8.154   6.229   8.758 -0.5552  0.7554  0.0233
24801SOL    HW174981   8.100   6.195   8.686 -0.2603  1.3452 -0.4914
24801SOL    HW274982   8.204   6.300   8.718  1.1874 -0.2731  0.2950
24802SOL     OW74983   8.929   4.944   5.684  0.1900 -0.2271 -0.5239
24802SOL    HW174984   8.860   4.931   5.619  0.6282 -0.6505 -0.9089
24802SOL    HW274985   8.909   5.030   5.722 -0.1111  0.0027 -1.1691
24803SOL     OW74986   2.383   9.254   3.872  1.3741 -0.3444  0.5959
24803SOL    HW174987   2.406   9.339   3.835  0.4576  0.2624  1.3891
24803SOL    HW274988   2.426   9.191   3.815  0.7192  0.5858 -0.9806
24804SOL     OW74989   8.559   1.703   3.171 -0.3188 -0.1147  0.5716
24804SOL    HW174990   8.500   1.747   3.110 -1.0641 -2.2129 -0.3346
24804SOL    HW274991   8.646   1.731   3.145 -0.6823 -0.3468 -0.9722
24805SOL     OW74992   3.186   7.381   9.721  0.4236  0.1551  0.0010
24805SOL    HW174993   3.185   7.298   9.674  0.3423 -0.0510  0.3572
24805SOL    HW274994   3.222   7.359   9.807 -0.5618  0.2903  0.4553
24806SOL     OW74995   1.773   9.107   0.061  0.3003 -0.3442 -0.2828
24806SOL    HW174996   1.846   9.051   0.090  1.9661  1.9385  0.2470
24806SOL    HW274997   1.763   9.086  -0.032  2.0182 -0.3508 -0.5007
24807SOL     OW74998   4.535   7.969   1.950 -0.3125 -0.3032 -0.0661
24807SOL    HW174999   4.522   8.062   1.971 -0.2698  0.0533 -1.5060
24807SOL    HW275000   4.446   7.934   1.940 -0.3234 -0.2838 -0.0309
24808SOL     OW75001   0.814   6.341   8.110 -0.5757 -0.1097  0.5431
24808SOL    HW175002   0.767   6.425   8.119  1.7950  1.2025  1.6259
24808SOL    HW275003   0.830   6.333   8.016 -0.7392  0.7140  0.4308
24809SOL     OW75004   3.864   4.659   6.094 -0.1173 -0.3089  0.1371
24809SOL    HW175005   3.862   4.564   6.078  1.0367 -0.3073 -0.1075
24809SOL    HW275006   3.940   4.689   6.045 -0.6248  0.7929  0.0088
24810SOL     OW75007   1.884   4.278   4.861  0.3038  0.0385 -0.1474
24810SOL    HW175008   1.955   4.266   4.798  0.2018  1.1485 -0.4906
24810SOL    HW275009   1.929   4.299   4.944  0.4431 -1.5534  0.2222
24811SOL     OW75010   7.488   9.477   5.505  0.1090 -0.3653 -0.3472
24811SOL    HW175011   7.508   9.481   5.412  0.0225  0.4316 -0.3430
24811SOL    HW275012   7.560   9.426   5.543 -0.6306 -1.9782 -1.0340
24812SOL     OW75013   2.352   1.878   4.481  0.3302  0.5575  0.1383
24812SOL    HW175014   2.442   1.889   4.513  0.4421  0.9302 -0.2873
24812SOL    HW275015   2.301   1.939   4.534  0.3154  0.2870  0.4356
24813SOL     OW75016   8.618   2.684   2.283  0.6436 -0.3848 -0.5975
24813SOL    HW175017   8.624   2.594   2.315  0.6792 -0.4286 -0.7253
24813SOL    HW275018   8.608   2.737   2.362  0.6038 -0.5026 -0.5229
24814SOL     OW75019   5.108   8.750   3.881  0.2096 -0.2334 -0.2951
24814SOL    HW175020   5.124   8.665   3.921 -0.5002  0.4345  1.5024
24814SOL    HW275021   5.196   8.785   3.861  0.6919 -0.0506  1.9183
24815SOL     OW75022   0.868   4.948   0.918 -0.1262 -0.7168  0.8733
24815SOL    HW175023   0.951   4.930   0.875 -0.6937 -0.4877 -0.3689
24815SOL    HW275024   0.865   5.043   0.927 -0.0096 -0.7618  1.4501
24816SOL     OW75025   6.791   5.851   9.413  0.4976  0.4990 -0.0864
24816SOL    HW175026   6.711   5.843   9.360  0.2405 -0.6408  0.4459
24816SOL    HW275027   6.803   5.946   9.423  0.3486  0.7430 -1.8625
24817SOL     OW75028   7.607   4.225   0.431  0.0657  0.5194  0.2259
24817SOL    HW175029   7.538   4.246   0.368  0.1717 -0.1481 -0.1124
24817SOL    HW275030   7.561   4.185   0.505  0.1834 -0.8135 -0.4063
24818SOL     OW75031   9.103   5.804   2.085  0.2810 -0.4381 -0.3178
24818SOL    HW175032   9.104   5.792   1.990  3.6595  0.5725 -0.5512
24818SOL    HW275033   9.021   5.765   2.114 -1.4497  0.2732 -3.7585
24819SOL     OW75034   1.268   9.428   8.412 -0.0946  0.5116  0.5097
24819SOL    HW175035   1.211   9.373   8.466 -0.8521 -0.2394 -1.0133
24819SOL    HW275036   1.214   9.503   8.389  0.3736  1.0536  1.1419
24820SOL     OW75037   0.723   4.707   7.511 -0.1440 -0.7446  0.2084
24820SOL    HW175038   0.815   4.722   7.491  0.1345 -1.1102  1.1702
24820SOL    HW275039   0.721   4.687   7.605 -1.3277  0.3919  0.4627
24821SOL     OW75040   0.624   9.464   6.439 -0.4553 -0.2101  0.1361
24821SOL    HW175041   0.632   9.469   6.344 -1.1726 -0.3349  0.0709
24821SOL    HW275042   0.534   9.438   6.455 -0.4598  0.2331  0.8653
24822SOL     OW75043   4.808   4.035   0.574  0.1489 -0.0764 -0.0569
24822SOL    HW175044   4.817   3.944   0.544  2.4203 -0.8455  2.5275
24822SOL    HW275045   4.751   4.029   0.650  1.0868  0.4775  0.7109
24823SOL     OW75046   5.599   1.291   4.134 -0.3816  0.0994  0.0545
24823SOL    HW175047   5.566   1.347   4.064  0.5148  1.0425  0.3643
24823SOL    HW275048   5.652   1.349   4.189 -1.8427 -0.3767  2.0925
24824SOL     OW75049   2.447   6.662   5.041  0.0999 -0.1072 -0.1453
24824SOL    HW175050   2.471   6.677   4.950 -1.3021  0.8394 -0.3946
24824SOL    HW275051   2.448   6.566   5.050  1.2173 -0.1816 -0.8551
24825SOL     OW75052   9.290   6.524   6.685 -0.3828  0.2554 -0.0084
24825SOL    HW175053   9.335   6.597   6.728 -2.0255  1.1335  0.3145
24825SOL    HW275054   9.248   6.564   6.608 -0.1179 -0.6597 -0.6487
24826SOL     OW75055   2.509   5.500   4.793  0.2689 -0.4316 -0.1826
24826SOL    HW175056   2.502   5.589   4.759  3.1125 -0.3139 -0.7552
24826SOL    HW275057   2.445   5.450   4.744  0.5266  0.7904 -1.8429
24827SOL     OW75058   7.352   6.388   5.508  0.1994 -0.0307 -0.4319
24827SOL    HW175059   7.417   6.457   5.522 -1.5150  1.7111 -0.5665
24827SOL    HW275060   7.349   6.341   5.591  0.4525  0.9212  0.1360
24828SOL     OW75061   2.166   7.042   2.788 -0.0943  0.1830 -0.5457
24828SOL    HW175062   2.128   7.130   2.791  0.8839  0.6028  0.5473
24828SOL    HW275063   2.233   7.047   2.720 -0.0873  0.2693 -0.5325
24829SOL     OW75064   8.619   3.709   8.187  0.3030 -0.2541  0.5381
24829SOL    HW175065   8.577   3.741   8.107  0.2235  0.2103  0.7621
24829SOL    HW275066   8.549   3.708   8.252  0.1397 -1.5770  0.3534
24830SOL     OW75067   7.612   0.619   2.094 -0.1703 -0.0504 -0.4607
24830SOL    HW175068   7.682   0.653   2.150 -1.6884  0.3922  1.2763
24830SOL    HW275069   7.585   0.694   2.041 -0.2392  0.1571 -0.1356
24831SOL     OW75070   3.093   1.965   2.450 -0.3478 -0.2193 -0.1425
24831SOL    HW175071   3.106   1.888   2.394 -0.5984 -2.1845  2.3178
24831SOL    HW275072   3.004   1.956   2.484 -0.1121  0.7238  0.7932
24832SOL     OW75073   6.179   6.992   9.502 -0.4994  0.3116 -0.1684
24832SOL    HW175074   6.143   6.912   9.540  1.8733 -1.3220 -1.1730
24832SOL    HW275075   6.195   7.049   9.577  0.1490 -1.1658  0.8597
24833SOL     OW75076   3.866   7.704   5.108 -0.3545 -0.4152 -0.6434
24833SOL    HW175077   3.938   7.698   5.170  1.5332 -0.6703 -2.7309
24833SOL    HW275078   3.877   7.789   5.065  0.1963 -1.4354 -2.6447
24834SOL     OW75079   6.823   1.878   0.355 -0.3110 -0.3810 -0.3658
24834SOL    HW175080   6.736   1.871   0.395 -0.3890 -1.0912 -0.6574
24834SOL    HW275081   6.806   1.918   0.270 -0.1415  1.1561  0.2796
24835SOL     OW75082   9.175   0.254   3.953  0.0383 -0.2782  0.3466
24835SOL    HW175083   9.085   0.252   3.986  0.0010 -1.3201  0.2093
24835SOL    HW275084   9.229   0.251   4.032 -0.0208  0.9424  0.4623
24836SOL     OW75085   5.045   4.437   0.624  0.5021 -0.1635 -0.0184
24836SOL    HW175086   5.079   4.448   0.535 -1.0297  1.5906 -0.4684
24836SOL    HW275087   5.098   4.496   0.677  0.6978 -0.3826  0.0315
24837SOL     OW75088   6.444   7.529   2.139  0.2713 -1.2377 -0.7220
24837SOL    HW175089   6.436   7.498   2.229  1.3062 -0.4634 -0.3413
24837SOL    HW275090   6.536   7.554   2.130 -0.7237  3.5616 -0.3379
24838SOL     OW75091   3.274   7.030   0.799 -0.2511  0.0793 -0.6256
24838SOL    HW175092   3.361   7.001   0.828  0.3529 -0.4703 -2.7927
24838SOL    HW275093   3.285   7.048   0.705 -2.5770 -0.4160 -1.0512
24839SOL     OW75094   2.500   6.941   4.498  0.5379  0.3492  0.3134
24839SOL    HW175095   2.565   6.939   4.428  0.7159 -0.3703  0.4912
24839SOL    HW275096   2.543   6.992   4.568  0.6715  0.3912  0.2028
24840SOL     OW75097   9.746   5.198   9.926 -0.0669 -0.1061 -0.6171
24840SOL    HW175098   9.816   5.186   9.862  1.1680  0.9704  0.4505
24840SOL    HW275099   9.691   5.267   9.890  0.3037  0.1058 -0.7875
24841SOL     OW75100   9.677   0.845   5.085  0.4676  0.3455  0.6785
24841SOL    HW175101   9.628   0.870   5.164 -1.5267  0.1696 -0.4247
24841SOL    HW275102   9.685   0.750   5.092 -0.7277  0.1878  0.1589
24842SOL     OW75103   4.208   8.641   2.743  0.9947 -0.0348  0.7041
24842SOL    HW175104   4.279   8.577   2.750  0.6956 -0.5631 -0.8351
24842SOL    HW275105   4.134   8.591   2.710  1.0505  1.2552 -1.5918
24843SOL     OW75106   7.048   5.682   0.087  0.4309  0.0019 -0.2385
24843SOL    HW175107   7.071   5.757   0.142  1.4301  0.0500 -0.6973
24843SOL    HW275108   7.080   5.705  -0.000 -1.2542 -0.0198 -0.8969
24844SOL     OW75109   9.786   0.509   3.163 -0.9546  0.5767  0.7685
24844SOL    HW175110   9.735   0.588   3.145  0.5363  1.5966  0.7890
24844SOL    HW275111   9.877   0.538   3.156 -0.3577 -1.2961  0.1451
24845SOL     OW75112   0.254   6.721   6.920  0.3139  0.4161 -0.1011
24845SOL    HW175113   0.313   6.750   6.990 -1.7301  2.6292  0.8675
24845SOL    HW275114   0.254   6.626   6.927 -0.7393  0.5392  3.8612
24846SOL     OW75115   5.381   2.801   4.965 -0.0941 -0.1242  0.0169
24846SOL    HW175116   5.395   2.890   4.998 -1.0916 -0.0696  0.3142
24846SOL    HW275117   5.289   2.782   4.985 -0.1239 -0.8996 -0.8256
24847SOL     OW75118   5.342   8.949   1.662  0.1344  0.2083 -0.2738
24847SOL    HW175119   5.256   8.985   1.684  0.5885  2.1826 -1.5233
24847SOL    HW275120   5.328   8.854   1.662 -1.6303  0.4125  1.1090
24848SOL     OW75121   0.508   6.061   4.884 -0.5477  0.4806  0.2328
24848SOL    HW175122   0.533   5.993   4.822  0.6642  0.3092  0.8786
24848SOL    HW275123   0.464   6.127   4.831 -3.3364 -1.5381 -0.1670
24849SOL     OW75124   1.725   1.238   5.128  0.3057  0.5254 -0.7452
24849SOL    HW175125   1.688   1.294   5.196 -1.8619 -0.3314 -1.1516
24849SOL    HW275126   1.678   1.155   5.137 -0.9163  0.7228 -3.9479
24850SOL     OW75127   8.886   4.831   5.967  0.4987 -0.0067 -0.3402
24850SOL    HW175128   8.926   4.878   5.893  1.3792 -0.8736 -0.4235
24850SOL    HW275129   8.908   4.739   5.953 -1.2375 -0.4859 -0.1929
24851SOL     OW75130   0.875   7.982   0.111 -0.4905 -0.0351 -0.0141
24851SOL    HW175131   0.883   8.066   0.157  1.0883 -1.1057  1.8295
24851SOL    HW275132   0.789   7.949   0.136 -0.2478  0.0843  1.0269
24852SOL     OW75133   6.585   2.135   6.407 -0.0852  0.6230 -0.3795
24852SOL    HW175134   6.497   2.105   6.384  0.4903 -1.5848  0.1078
24852SOL    HW275135   6.588   2.130   6.503 -0.3026  3.4290 -0.1439
24853SOL     OW75136   3.965   4.683   8.522 -0.6076 -0.1829  0.1351
24853SOL    HW175137   4.043   4.634   8.495 -0.2648 -0.0131  0.7960
24853SOL    HW275138   3.906   4.678   8.447  0.3221  0.2964 -0.6464
24854SOL     OW75139   7.790   4.609   8.756  0.0089  0.5670 -0.2410
24854SOL    HW175140   7.745   4.525   8.765 -1.2607  1.3728  1.5951
24854SOL    HW275141   7.735   4.670   8.804  1.0978  2.3998 -1.2250
24855SOL     OW75142   4.722   9.687   2.352  0.2962 -0.4265  0.1002
24855SOL    HW175143   4.695   9.707   2.441 -1.0913  2.0143 -0.7458
24855SOL    HW275144   4.695   9.596   2.338 -3.2592  0.3283  0.9520
24856SOL     OW75145   7.998   2.260   4.534 -0.3266 -0.0059  0.0637
24856SOL    HW175146   8.074   2.318   4.538  0.2069 -0.6657 -0.2580
24856SOL    HW275147   7.958   2.268   4.620  0.9902 -0.7963  0.7859
24857SOL     OW75148   8.898   5.216   9.655 -0.8510  0.1793 -0.1766
24857SOL    HW175149   8.935   5.212   9.567  1.1856  0.9372  0.5864
24857SOL    HW275150   8.845   5.136   9.662  1.1704 -1.3436 -1.1344
24858SOL     OW75151   6.312   5.564   8.743 -0.0079  0.0134  0.0395
24858SOL    HW175152   6.310   5.637   8.681 -1.6478  0.1929  0.2509
24858SOL    HW275153   6.313   5.606   8.829 -0.2057 -0.2046  0.1492
24859SOL     OW75154   1.219   2.489   3.286 -0.1581  0.3889  0.5830
24859SOL    HW175155   1.310   2.462   3.277 -0.1988  0.2973  0.4330
24859SOL    HW275156   1.194   2.521   3.199  0.1184  1.6598  0.9471
24860SOL     OW75157   6.504   8.872   9.022  0.1402 -0.0502 -0.3782
24860SOL    HW175158   6.523   8.906   9.109 -0.7278 -1.6458  0.4970
24860SOL    HW275159   6.589   8.871   8.977  0.6773  0.3809  0.6025
24861SOL     OW75160   2.104   6.639   5.037  0.0852  0.1108 -0.2716
24861SOL    HW175161   2.182   6.688   5.065  0.0377 -0.0621  0.1671
24861SOL    HW275162   2.104   6.561   5.092  1.4634 -1.5977 -2.5474
24862SOL     OW75163   6.034   5.198   3.163 -0.2352 -0.2464 -0.4957
24862SOL    HW175164   6.087   5.261   3.114 -0.9998 -0.0937 -1.1455
24862SOL    HW275165   6.074   5.196   3.250  0.9439 -0.2782 -1.0187
24863SOL     OW75166   4.981   6.476   6.289  0.8410 -0.6044  0.1674
24863SOL    HW175167   4.912   6.521   6.240  1.4877 -1.2491 -1.4019
24863SOL    HW275168   5.051   6.541   6.296  1.6778 -1.2059 -1.8833
24864SOL     OW75169   0.033   5.071   3.002  0.0071 -0.8151 -0.2526
24864SOL    HW175170   0.014   4.985   3.039  2.4449 -1.0137  0.7358
24864SOL    HW275171   0.084   5.053   2.923  0.7190 -0.3056  0.0751
24865SOL     OW75172   3.619   5.789   1.387 -0.3314 -0.2696  0.4484
24865SOL    HW175173   3.582   5.876   1.402 -0.0661  0.1264 -1.0311
24865SOL    HW275174   3.640   5.757   1.475  2.1713  2.3104  0.9434
24866SOL     OW75175   2.669   3.341   4.895 -0.2871  0.5200  0.1836
24866SOL    HW175176   2.581   3.359   4.929 -0.4864  0.7913 -0.4447
24866SOL    HW275177   2.657   3.339   4.800  0.7393  2.5353 -0.0418
24867SOL     OW75178   6.993   1.425   3.095  0.2317  0.8141  0.2941
24867SOL    HW175179   6.942   1.467   3.164  0.4474  0.3413  0.7498
24867SOL    HW275180   6.933   1.422   3.020  0.1986  1.8857  0.2523
24868SOL     OW75181   7.813   1.339   1.363 -0.5021 -0.1664 -0.1575
24868SOL    HW175182   7.885   1.289   1.325 -0.3805 -0.5944  0.6097
24868SOL    HW275183   7.856   1.405   1.418 -0.6737  0.4398 -0.7418
24869SOL     OW75184   8.469   9.968   7.646  0.3107 -0.1263  0.5266
24869SOL    HW175185   8.476   9.931   7.558 -0.5461 -0.7693  0.7168
24869SOL    HW275186   8.531  10.041   7.646  0.7221 -0.4571 -0.4309
24870SOL     OW75187   1.094   9.052   0.684  0.6182  0.1064 -0.0593
24870SOL    HW175188   1.092   9.063   0.589  0.0654  0.4733 -0.0061
24870SOL    HW275189   1.121   8.961   0.697 -2.0381 -0.8469 -0.6176
24871SOL     OW75190   1.823   6.609   5.715  0.0614 -0.1586  0.2358
24871SOL    HW175191   1.880   6.658   5.655  0.0250 -1.9420 -1.3708
24871SOL    HW275192   1.818   6.664   5.793  1.7666  1.3397 -0.6095
24872SOL     OW75193   9.368   6.492   0.440 -0.4522 -0.2681  0.2315
24872SOL    HW175194   9.295   6.513   0.499 -0.1092  0.5412  0.3936
24872SOL    HW275195   9.363   6.559   0.371  0.4381  0.1273  0.5313
24873SOL     OW75196   3.071   3.376   6.335 -0.0868  0.3088  0.0184
24873SOL    HW175197   3.082   3.359   6.242 -0.8743 -1.1277  0.1739
24873SOL    HW275198   3.051   3.470   6.339 -3.7138 -0.2298 -1.6210
24874SOL     OW75199   6.970   8.421   9.396  0.0426 -0.5424  0.0763
24874SOL    HW175200   7.044   8.369   9.428 -0.7567 -0.6449  1.9184
24874SOL    HW275201   6.903   8.356   9.374  0.1458 -0.4070 -0.6783
24875SOL     OW75202   1.075   2.483   5.492  0.0927 -0.1741  0.5380
24875SOL    HW175203   1.021   2.414   5.454  1.1194 -0.9545  0.4462
24875SOL    HW275204   1.012   2.543   5.532 -0.8416 -0.9571  0.2958
24876SOL     OW75205   3.052   5.870   6.156 -0.1568  0.2721  0.2493
24876SOL    HW175206   2.989   5.798   6.157  0.6930 -0.4937  1.5448
24876SOL    HW275207   3.134   5.831   6.184  0.0235  1.9814  2.4532
24877SOL     OW75208   3.453   8.732   5.664  0.3247 -0.2635 -0.1012
24877SOL    HW175209   3.394   8.764   5.732 -0.9068 -1.5673 -0.5235
24877SOL    HW275210   3.396   8.708   5.592  1.5843  0.6760 -1.4647
24878SOL     OW75211   8.057   6.914   3.727 -0.2223 -0.3927  0.8124
24878SOL    HW175212   7.984   6.877   3.676 -0.1951  1.0310 -0.3262
24878SOL    HW275213   8.135   6.892   3.676  0.0292 -0.8237  1.3737
24879SOL     OW75214   1.996   8.087   1.113 -0.1257  0.2515 -0.0098
24879SOL    HW175215   1.951   8.036   1.046  0.9331  1.1889 -1.4973
24879SOL    HW275216   1.929   8.105   1.179 -1.3741 -0.1294 -1.1333
24880SOL     OW75217   5.644   7.921   1.738 -0.1774  0.0556  0.1347
24880SOL    HW175218   5.680   7.977   1.807 -1.9339  0.4165  0.8162
24880SOL    HW275219   5.715   7.912   1.675  0.1320  3.2182 -0.1183
24881SOL     OW75220   4.093   8.302   4.405 -0.6496  0.4067 -0.1481
24881SOL    HW175221   4.151   8.354   4.461  1.3698  1.2997 -2.8719
24881SOL    HW275222   4.133   8.215   4.404  0.4466  0.8876 -1.6118
24882SOL     OW75223   0.687   8.403   6.641  0.0232  0.7175  0.1359
24882SOL    HW175224   0.724   8.404   6.553 -1.6887  0.7725 -0.6243
24882SOL    HW275225   0.756   8.367   6.696  1.0928  0.5847 -1.2422
24883SOL     OW75226   5.532   8.655   6.925 -0.5933 -0.3378  0.2673
24883SOL    HW175227   5.598   8.590   6.949 -0.1373  0.5119  1.4349
24883SOL    HW275228   5.527   8.651   6.830  1.4699 -0.1361  0.1032
24884SOL     OW75229   5.710   2.703   8.579  0.1674 -0.5191  0.3580
24884SOL    HW175230   5.672   2.738   8.659 -0.5420 -0.1501 -0.1326
24884SOL    HW275231   5.802   2.728   8.583  0.2066 -0.7740  1.2001
24885SOL     OW75232   0.250   0.755   7.380  0.3385 -0.1903 -0.6828
24885SOL    HW175233   0.248   0.668   7.420  1.0935 -0.8307 -1.9543
24885SOL    HW275234   0.202   0.744   7.298  0.6217  0.5353 -0.9512
24886SOL     OW75235   4.310   1.031   5.393  0.1441  0.0288  0.6675
24886SOL    HW175236   4.326   0.949   5.441 -0.5959  0.3023  1.3931
24886SOL    HW275237   4.386   1.039   5.335 -0.8715 -2.3625 -1.1409
24887SOL     OW75238   1.000   3.243   2.913 -0.4224 -0.1298  0.8788
24887SOL    HW175239   1.061   3.281   2.976  0.0149  0.2410  0.2419
24887SOL    HW275240   1.050   3.238   2.831 -1.0548 -0.3875  0.5007
24888SOL     OW75241   6.178   7.005   7.912 -0.1204 -0.2873 -0.3996
24888SOL    HW175242   6.113   6.945   7.948  1.1303 -1.6820 -0.3524
24888SOL    HW275243   6.139   7.092   7.920 -0.6127 -0.6946  2.7972
24889SOL     OW75244   9.472   8.329   4.056  0.4436 -0.1024  0.4200
24889SOL    HW175245   9.548   8.350   4.111  0.7527  1.4930 -0.5548
24889SOL    HW275246   9.397   8.341   4.114  0.7301  2.0957  0.4157
24890SOL     OW75247   6.799   7.312   5.552 -0.4326 -0.2525  0.0701
24890SOL    HW175248   6.872   7.357   5.510  0.4974 -0.8276  1.0377
24890SOL    HW275249   6.724   7.333   5.497  0.2008  1.4186 -0.2162
24891SOL     OW75250   2.356   7.498   6.679 -0.3684 -0.0383  0.1007
24891SOL    HW175251   2.433   7.443   6.664  1.3637  1.9584  1.2086
24891SOL    HW275252   2.301   7.447   6.738 -0.4536 -1.9093 -1.4790
24892SOL     OW75253   4.183   0.567   8.734 -0.3469  0.5370 -0.4572
24892SOL    HW175254   4.266   0.526   8.756 -1.5260 -0.9676  1.5183
24892SOL    HW275255   4.118   0.498   8.747 -2.0616  2.0978 -0.3470
24893SOL     OW75256   5.243   7.028   3.528 -0.1203  0.1725  0.2371
24893SOL    HW175257   5.256   6.934   3.518 -0.5495  0.2137 -0.8448
24893SOL    HW275258   5.230   7.060   3.439  1.9340  1.5711  0.3944
24894SOL     OW75259   1.856   9.647   7.094 -0.5892 -0.1605 -0.0577
24894SOL    HW175260   1.857   9.743   7.095 -1.8160 -0.0787 -1.8840
24894SOL    HW275261   1.927   9.623   7.034 -0.5920 -0.3782  0.0242
24895SOL     OW75262   8.081   2.328   6.234  0.2692  0.1141 -0.3396
24895SOL    HW175263   7.988   2.344   6.248  0.1223 -1.7471  1.1837
24895SOL    HW275264   8.089   2.316   6.139 -1.5669 -2.3969 -0.2785
24896SOL     OW75265   3.779   6.037   4.324  0.2685 -0.6027  0.0984
24896SOL    HW175266   3.761   6.003   4.412  0.9768 -2.7886 -0.5428
24896SOL    HW275267   3.746   5.970   4.265  0.9129  0.2558 -1.2823
24897SOL     OW75268   5.602   1.879   2.927  0.3181 -0.0461 -0.2599
24897SOL    HW175269   5.513   1.863   2.895  0.0749  1.1916 -0.2526
24897SOL    HW275270   5.602   1.840   3.015 -0.0258 -0.5824 -0.4893
24898SOL     OW75271   8.088   9.717   2.284 -0.0223  0.2531  0.2711
24898SOL    HW175272   8.004   9.746   2.321 -0.1679 -0.7207  0.7547
24898SOL    HW275273   8.117   9.789   2.229 -0.9695  0.7814  0.4479
24899SOL     OW75274   8.388   8.803   5.193 -0.1253  0.2637  0.0906
24899SOL    HW175275   8.437   8.747   5.253 -0.3048 -1.2602 -1.1131
24899SOL    HW275276   8.299   8.804   5.228  0.2115  1.0777  0.9615
24900SOL     OW75277   2.825   8.369   7.803 -0.2365 -0.2723  0.3640
24900SOL    HW175278   2.819   8.282   7.842  0.1092 -0.0848  0.8472
24900SOL    HW275279   2.743   8.413   7.829 -0.6201 -0.6079 -0.2717
24901SOL     OW75280   4.486  -0.023   0.321 -0.4246 -0.4015  0.0863
24901SOL    HW175281   4.416   0.033   0.286 -1.3520 -0.4568  1.7510
24901SOL    HW275282   4.566   0.028   0.306 -0.9691  0.2868 -0.6046
24902SOL     OW75283   1.940   6.830   8.431  0.4551  0.4966 -0.2359
24902SOL    HW175284   1.971   6.798   8.347  0.3977 -0.8389  0.2362
24902SOL    HW275285   1.964   6.762   8.494 -1.3891  0.4729  0.5085
24903SOL     OW75286   2.523   1.615   7.801  0.0864  0.5504 -0.4323
24903SOL    HW175287   2.523   1.582   7.711  0.0691 -0.0174 -0.2261
24903SOL    HW275288   2.483   1.545   7.853  1.9998 -0.0418  0.3400
24904SOL     OW75289   3.830   1.242   9.749 -0.6885 -0.7891 -0.1529
24904SOL    HW175290   3.866   1.329   9.762 -0.4471 -1.0108  0.7257
24904SOL    HW275291   3.847   1.222   9.656  1.1061 -0.7230  0.1355
24905SOL     OW75292   0.557   2.028   2.776  0.2454  0.2219  0.0159
24905SOL    HW175293   0.628   1.972   2.745  0.6598 -0.9417  2.8094
24905SOL    HW275294   0.591   2.069   2.855 -1.3406  1.6425  0.0209
24906SOL     OW75295   4.685   7.384   9.861  0.0490  0.1363 -0.1320
24906SOL    HW175296   4.593   7.395   9.885 -0.1222 -0.7219 -0.3539
24906SOL    HW275297   4.727   7.354   9.941 -0.0102 -0.1723 -0.2137
24907SOL     OW75298   6.831   7.839   7.379  0.2403  0.5920  0.5951
24907SOL    HW175299   6.911   7.835   7.326 -0.6854  3.4879 -1.2494
24907SOL    HW275300   6.859   7.808   7.466  3.0955  0.5709 -0.2090
24908SOL     OW75301   6.428   7.893   1.036 -0.9403  0.3548  0.1864
24908SOL    HW175302   6.517   7.918   1.010 -0.6238  2.3154  2.7594
24908SOL    HW275303   6.371   7.949   0.983 -0.4680  1.4996  0.8439
24909SOL     OW75304   6.140   4.154   3.648  0.1564  1.1204 -0.3711
24909SOL    HW175305   6.083   4.092   3.693  1.3113 -0.2638 -0.7192
24909SOL    HW275306   6.105   4.160   3.559  0.0416  0.9448 -0.3375
24910SOL     OW75307   8.221   3.966   6.286  0.2665 -0.1909  0.2318
24910SOL    HW175308   8.300   4.018   6.273  1.1432 -1.6758 -0.6135
24910SOL    HW275309   8.156   4.008   6.230  0.5454  0.8045  0.6252
24911SOL     OW75310   9.111   0.149   6.222 -0.1547  0.4108  0.0691
24911SOL    HW175311   9.195   0.190   6.244 -2.1322  4.2143  1.5328
24911SOL    HW275312   9.081   0.198   6.145 -0.1408 -2.4820 -1.9073
24912SOL     OW75313   4.673   6.309   7.633  0.1727 -0.2272  0.0389
24912SOL    HW175314   4.754   6.277   7.594 -0.3344 -1.5722  0.0263
24912SOL    HW275315   4.698   6.389   7.679  1.4649 -0.5433 -0.0800
24913SOL     OW75316   9.485   4.970   4.713  0.1220  0.1602 -0.2163
24913SOL    HW175317   9.577   4.993   4.702  0.2470  0.6531  1.5291
24913SOL    HW275318   9.486   4.878   4.739  0.0078 -0.2402 -1.5768
24914SOL     OW75319   4.841   5.133   8.042  0.4762  0.4009  0.5480
24914SOL    HW175320   4.907   5.182   8.090  1.2722 -1.0641  1.0061
24914SOL    HW275321   4.795   5.083   8.108  0.1960 -0.0540  0.0187
24915SOL     OW75322   2.397   8.417   3.173  0.5391 -0.0888 -0.3746
24915SOL    HW175323   2.437   8.388   3.091  1.5863 -2.7349  0.9570
24915SOL    HW275324   2.461   8.476   3.212  2.4925 -2.7856  0.8248
24916SOL     OW75325   1.046   4.098   6.312 -0.3120  0.0587 -0.2470
24916SOL    HW175326   1.133   4.068   6.339 -0.0503  1.1265  0.1680
24916SOL    HW275327   1.002   4.121   6.394 -0.5348  0.6824 -0.5333
24917SOL     OW75328   8.373   9.547   5.273 -0.1455 -0.1655  0.1172
24917SOL    HW175329   8.345   9.465   5.313  0.2660 -1.1122 -1.4324
24917SOL    HW275330   8.457   9.567   5.315 -2.2159  1.9440  3.7615
24918SOL     OW75331   9.228   6.405   1.367 -0.0304  0.4048 -0.3725
24918SOL    HW175332   9.299   6.452   1.411 -0.2341 -0.5906  1.0841
24918SOL    HW275333   9.242   6.313   1.390 -0.5415 -0.0755 -1.8804
24919SOL     OW75334   8.036   4.486   5.277  0.6020 -0.2794 -0.3529
24919SOL    HW175335   7.942   4.487   5.297  0.8197 -1.0304  0.8320
24919SOL    HW275336   8.077   4.462   5.360  1.9487  1.4341 -0.4793
24920SOL     OW75337   3.252   8.103   4.067 -0.2948 -0.4261  0.1748
24920SOL    HW175338   3.288   8.182   4.107  0.9624 -1.0506  0.3227
24920SOL    HW275339   3.291   8.030   4.115 -2.1989 -1.1674  0.6956
24921SOL     OW75340   1.126   2.515   2.792 -0.1409 -0.1397 -0.0410
24921SOL    HW175341   1.038   2.492   2.763 -0.0907  0.3156 -0.5699
24921SOL    HW275342   1.158   2.577   2.726  1.1087 -1.3607 -0.6389
24922SOL     OW75343   1.415   0.728   1.156  0.3052 -0.0188  0.0076
24922SOL    HW175344   1.356   0.750   1.085  0.4400 -1.6692 -0.6554
24922SOL    HW275345   1.366   0.665   1.209  1.3636 -1.3002 -0.4715
24923SOL     OW75346   8.486   8.653   2.587  0.0953 -0.6742 -0.5811
24923SOL    HW175347   8.400   8.645   2.628  1.1457  1.2677  2.4184
24923SOL    HW275348   8.476   8.616   2.500 -3.6126 -0.9882 -0.1574
24924SOL     OW75349   1.726   3.009   3.950 -0.6700  0.3662 -0.3099
24924SOL    HW175350   1.676   2.930   3.969  0.4220 -0.0933  0.7498
24924SOL    HW275351   1.666   3.081   3.970 -1.3425 -0.1756 -0.3549
24925SOL     OW75352   7.654   9.068   3.637 -0.1756 -0.1751 -0.4426
24925SOL    HW175353   7.630   9.120   3.714 -2.1828  1.9667 -2.3343
24925SOL    HW275354   7.607   8.985   3.648  2.4624 -1.4926  2.2682
24926SOL     OW75355   8.052   5.092   9.422 -0.7506  0.1444  0.1831
24926SOL    HW175356   8.011   5.052   9.498 -0.7977 -1.4054 -0.6172
24926SOL    HW275357   7.988   5.082   9.352 -0.7695  1.6775 -0.0569
24927SOL     OW75358   9.379   7.753   8.855 -0.2099 -0.7046 -0.2447
24927SOL    HW175359   9.307   7.697   8.825  0.4141 -1.1666 -0.9182
24927SOL    HW275360   9.443   7.749   8.784 -0.4497  1.4509 -0.6527
24928SOL     OW75361   1.258   7.993   8.510  0.7813 -0.4589  0.7815
24928SOL    HW175362   1.219   8.077   8.486  0.1576 -0.8808  0.3024
24928SOL    HW275363   1.185   7.941   8.542  0.7108 -1.6795 -1.2510
24929SOL     OW75364   5.384   6.392   7.069 -0.1766  0.3791  0.0254
24929SOL    HW175365   5.410   6.484   7.063  1.8732 -0.1950 -0.9548
24929SOL    HW275366   5.372   6.377   7.162  0.5016  1.3892  0.2994
24930SOL     OW75367   0.701   0.670   4.768  0.2974  0.0855 -0.3961
24930SOL    HW175368   0.698   0.637   4.678 -1.6565 -1.5849  0.1936
24930SOL    HW275369   0.793   0.668   4.792  0.5997 -1.9513 -1.5408
24931SOL     OW75370   0.708   0.836   7.349  0.2104 -0.1151  0.8794
24931SOL    HW175371   0.631   0.829   7.292  0.7849 -0.6335  0.1346
24931SOL    HW275372   0.782   0.829   7.289  0.8368  0.1933  1.6069
24932SOL     OW75373   4.490   2.534   9.501 -0.1034  0.3027  0.3050
24932SOL    HW175374   4.569   2.584   9.519  0.4163 -0.2098 -0.4978
24932SOL    HW275375   4.436   2.592   9.447  0.5502 -0.0144 -0.7276
24933SOL     OW75376   8.531   1.951   7.205 -0.1619 -0.0698 -0.2949
24933SOL    HW175377   8.529   1.990   7.293 -1.9945 -1.3033  0.2786
24933SOL    HW275378   8.448   1.904   7.198 -1.2375  1.9350 -3.6022
24934SOL     OW75379   8.415   1.422   1.129 -0.3942 -0.6112 -0.0203
24934SOL    HW175380   8.501   1.460   1.149 -0.6451 -0.9112  1.8274
24934SOL    HW275381   8.353   1.494   1.141 -0.5061 -0.6422 -0.3875
24935SOL     OW75382   7.599   5.215   3.723 -0.6696 -0.9474  0.2204
24935SOL    HW175383   7.588   5.310   3.726 -0.6136 -0.9172 -0.4878
24935SOL    HW275384   7.531   5.184   3.663  0.5329 -1.1558 -1.0853
24936SOL     OW75385   8.250   7.776   3.488  0.0895  0.4952  0.6251
24936SOL    HW175386   8.315   7.763   3.557 -0.0196  0.7953  0.7908
24936SOL    HW275387   8.272   7.861   3.450  1.5382 -0.6531 -1.2608
24937SOL     OW75388   1.266   3.989   5.334 -0.1927  0.4840  0.0353
24937SOL    HW175389   1.237   4.057   5.394 -0.9076 -0.5607  0.8959
24937SOL    HW275390   1.201   3.920   5.341  0.1309 -0.0001 -1.3651
24938SOL     OW75391   3.409   3.149   3.000 -0.0475  0.3387 -0.4630
24938SOL    HW175392   3.470   3.100   3.055 -0.9235  0.7123  0.9057
24938SOL    HW275393   3.462   3.181   2.927  0.4730 -3.0713 -1.7684
24939SOL     OW75394   8.627   9.088   5.362 -0.2061 -0.5464 -0.3977
24939SOL    HW175395   8.549   9.037   5.339 -0.5761  0.4205 -1.3726
24939SOL    HW275396   8.690   9.067   5.293 -0.1671 -0.1116 -0.4942
24940SOL     OW75397   8.163   7.883   7.541  0.1555 -0.7148  0.3322
24940SOL    HW175398   8.085   7.850   7.497 -0.9033  0.1818  1.4586
24940SOL    HW275399   8.161   7.841   7.627  1.6650 -1.7114 -0.0892
24941SOL     OW75400   2.482   7.138   1.568  0.3723  0.5474 -0.1948
24941SOL    HW175401   2.413   7.199   1.541 -0.8276 -0.1194  1.2460
24941SOL    HW275402   2.459   7.113   1.657  1.1760 -1.5258 -0.5120
24942SOL     OW75403   3.050   1.815   3.313  0.4966 -0.0171 -0.0337
24942SOL    HW175404   2.963   1.790   3.282 -0.5112  0.6100  2.1011
24942SOL    HW275405   3.049   1.795   3.406  2.9012 -0.6046 -0.0633
24943SOL     OW75406   0.328   2.517   0.763 -0.6328  0.3607 -0.1152
24943SOL    HW175407   0.397   2.583   0.773 -1.5939  1.1792  1.5461
24943SOL    HW275408   0.368   2.436   0.795 -0.3990  0.8045  0.7408
24944SOL     OW75409   3.536   6.839   4.025  0.1959 -0.5051  0.0498
24944SOL    HW175410   3.460   6.891   4.000 -0.7869 -2.5612 -1.5469
24944SOL    HW275411   3.506   6.786   4.099  0.5666 -0.2826  0.3667
24945SOL     OW75412   7.263   8.992   1.228  0.0601 -0.2883  0.6545
24945SOL    HW175413   7.336   8.969   1.171 -0.3441 -0.5147  0.2284
24945SOL    HW275414   7.305   9.026   1.308  0.6258 -0.3270  0.3763
24946SOL     OW75415   7.629   5.692   1.889  0.4256  0.4320 -0.4018
24946SOL    HW175416   7.659   5.751   1.958  1.0272  0.6419 -0.8389
24946SOL    HW275417   7.591   5.618   1.936  0.9777  0.4985  0.1569
24947SOL     OW75418   4.198   6.075   7.901  0.0060 -0.3171  0.3166
24947SOL    HW175419   4.208   6.108   7.990  1.4189  1.0480 -0.3059
24947SOL    HW275420   4.275   6.019   7.888  0.2900  0.2202 -0.3506
24948SOL     OW75421   3.433   8.313   3.677 -0.4365 -0.5512 -0.0558
24948SOL    HW175422   3.509   8.271   3.718  0.0365  0.9712  0.7175
24948SOL    HW275423   3.460   8.330   3.587 -0.4308 -1.3465 -0.2175
24949SOL     OW75424   6.006   5.539   2.149 -0.1908 -0.6133 -0.6127
24949SOL    HW175425   6.082   5.497   2.109  0.2606 -1.4066  1.0063
24949SOL    HW275426   6.020   5.633   2.132  0.0996 -0.8976 -2.0587
24950SOL     OW75427   5.226   0.206   1.748  0.1990  0.1856  0.5145
24950SOL    HW175428   5.292   0.219   1.680 -0.7253  0.5851 -0.3347
24950SOL    HW275429   5.211   0.294   1.783  0.0085  0.1162  0.6048
24951SOL     OW75430   0.468   8.994   0.097 -0.3137  0.0466 -0.1476
24951SOL    HW175431   0.555   8.960   0.074 -1.2154 -1.2798 -1.7809
24951SOL    HW275432   0.417   8.986   0.017 -1.8438  1.2083  0.6709
24952SOL     OW75433   7.757   1.874   9.319 -0.2632  0.4620 -0.1669
24952SOL    HW175434   7.705   1.891   9.398  0.2895  0.2838  0.2410
24952SOL    HW275435   7.792   1.960   9.295  1.8623  0.1354  1.4268
24953SOL     OW75436   9.820   7.110   8.707  0.8841 -0.1740  0.0283
24953SOL    HW175437   9.870   7.127   8.787 -0.3442  0.2543  0.7355
24953SOL    HW275438   9.848   7.178   8.646 -0.4778  1.5503  1.2117
24954SOL     OW75439   1.660   9.069   9.322  0.8739  0.1561 -0.2793
24954SOL    HW175440   1.608   9.058   9.401  0.8434  1.0077 -0.1729
24954SOL    HW275441   1.693   8.981   9.303  2.0535  0.1559  1.4908
24955SOL     OW75442   8.670   9.886   2.447  0.2643  0.2617 -0.1799
24955SOL    HW175443   8.753   9.933   2.457  0.0174  0.4129  1.5754
24955SOL    HW275444   8.615   9.945   2.396  0.9449  0.5532 -0.5911
24956SOL     OW75445   0.120   9.491   7.756  0.7696 -0.0892  0.2463
24956SOL    HW175446   0.073   9.524   7.679 -0.2250  0.0573  0.9018
24956SOL    HW275447   0.180   9.563   7.779  1.5273 -0.3762 -0.7389
24957SOL     OW75448   0.644   8.673   8.604 -0.0295 -0.6387 -0.1353
24957SOL    HW175449   0.721   8.730   8.608  1.0291 -1.9274 -1.0478
24957SOL    HW275450   0.591   8.709   8.532 -0.1759  0.1099  0.3377
24958SOL     OW75451   0.950   2.661   0.567  0.4926  0.5137  0.4372
24958SOL    HW175452   0.884   2.608   0.611  0.5683  1.2534  1.4925
24958SOL    HW275453   1.033   2.619   0.589  0.5114  0.7304  0.7831
24959SOL     OW75454   4.882   2.274   7.059  0.4864  0.5137  0.0785
24959SOL    HW175455   4.877   2.343   7.125  2.1048  0.9692 -0.2285
24959SOL    HW275456   4.944   2.211   7.095  0.2257  0.0215 -0.3338
24960SOL     OW75457   2.284   6.771   7.718 -0.0493 -0.6396  0.1005
24960SOL    HW175458   2.228   6.732   7.651 -0.3944 -0.6493  0.3935
24960SOL    HW275459   2.368   6.726   7.709  0.0625 -0.3068 -0.6507
24961SOL     OW75460   2.494   5.793   6.421  0.1511 -0.1588  0.1577
24961SOL    HW175461   2.442   5.713   6.417  0.6782 -0.4658 -1.1321
24961SOL    HW275462   2.576   5.766   6.463  0.1176 -0.1680  0.2174
24962SOL     OW75463   1.522   4.696   9.714  0.2401  0.1069  0.1247
24962SOL    HW175464   1.437   4.674   9.677 -0.3636 -0.1340  1.5876
24962SOL    HW275465   1.571   4.736   9.642 -1.1991  0.4757 -0.6700
24963SOL     OW75466   5.638   8.261   1.703  0.3443  0.1371  0.0836
24963SOL    HW175467   5.674   8.197   1.765 -0.6152 -1.0667 -0.5458
24963SOL    HW275468   5.574   8.311   1.754 -0.6140 -1.0039  0.0410
24964SOL     OW75469   4.664   8.987   3.213 -0.5609  0.0537 -0.8321
24964SOL    HW175470   4.692   8.946   3.295  1.7933 -0.0082 -1.5659
24964SOL    HW275471   4.636   9.075   3.239 -1.0537 -0.3782  0.1727
24965SOL     OW75472   0.527   5.076   1.029 -0.0240 -0.0206 -0.1942
24965SOL    HW175473   0.482   5.158   1.048  0.0476 -0.1870  0.7304
24965SOL    HW275474   0.613   5.086   1.071  0.5562  0.0200 -1.3536
24966SOL     OW75475   7.199   1.570   7.119  0.0932 -0.6973  0.0896
24966SOL    HW175476   7.242   1.607   7.196 -0.9441  0.3069  0.2293
24966SOL    HW275477   7.107   1.562   7.145 -0.2971 -0.2224 -1.0739
24967SOL     OW75478   6.770   8.911   8.908  0.1288 -0.1287  0.0659
24967SOL    HW175479   6.813   8.995   8.889 -1.0409  0.4203 -0.2395
24967SOL    HW275480   6.833   8.865   8.964  1.8161 -0.0355 -1.6616
24968SOL     OW75481   8.606   6.416   0.044  0.3351  0.2631 -0.3969
24968SOL    HW175482   8.561   6.392   0.125  0.7217 -0.3686 -0.3612
24968SOL    HW275483   8.544   6.392  -0.025  0.0564  0.6843 -0.2944
24969SOL     OW75484   2.759   9.129   7.201  0.3579  0.2986  0.3806
24969SOL    HW175485   2.812   9.052   7.221  0.8420  0.5613  0.1480
24969SOL    HW275486   2.768   9.184   7.278 -0.5802 -0.1913  0.8484
24970SOL     OW75487   8.090   0.340   1.780 -0.1691  0.1146 -0.3027
24970SOL    HW175488   8.019   0.396   1.811  1.2079  1.1943  1.0784
24970SOL    HW275489   8.052   0.252   1.775 -1.5638  0.6439  0.4751
24971SOL     OW75490   0.861   3.394   3.492  0.2856 -0.4219 -0.0241
24971SOL    HW175491   0.767   3.404   3.506  0.2598 -1.1342  0.3290
24971SOL    HW275492   0.897   3.372   3.578  0.4174 -2.7075 -0.6098
24972SOL     OW75493   8.006   6.673   4.023  0.3067  0.3154  0.3385
24972SOL    HW175494   8.082   6.709   3.977 -0.0419 -1.0129 -1.3607
24972SOL    HW275495   7.931   6.720   3.985  0.0630 -0.3858 -0.0615
24973SOL     OW75496   3.150   1.892   3.758 -0.6367  0.4183  0.4234
24973SOL    HW175497   3.069   1.887   3.707 -0.6721 -0.5428  0.5579
24973SOL    HW275498   3.129   1.850   3.841 -0.1954  0.8048  0.7385
24974SOL     OW75499   2.815   8.232   3.900  0.2476 -0.2559  0.1135
24974SOL    HW175500   2.838   8.283   3.977  1.9071 -0.1704 -0.4063
24974SOL    HW275501   2.760   8.290   3.847  1.2913  0.6522 -0.0019
24975SOL     OW75502   8.586   6.402   6.325 -0.3426 -0.4091  0.0463
24975SOL    HW175503   8.517   6.336   6.327 -0.9211 -0.0505 -3.3123
24975SOL    HW275504   8.657   6.362   6.276  0.9550  0.0985  1.4249
24976SOL     OW75505   5.205   6.984   4.995  0.2201 -0.2279  0.4207
24976SOL    HW175506   5.281   6.932   5.022  1.0480  0.4731 -0.4960
24976SOL    HW275507   5.234   7.075   5.005 -0.1611  0.0412 -0.8159
24977SOL     OW75508   0.561   6.144   7.710 -0.0138 -0.5176  0.2642
24977SOL    HW175509   0.539   6.055   7.680  1.0396 -1.1089  1.1927
24977SOL    HW275510   0.642   6.133   7.759  0.8382  1.1852 -0.7146
24978SOL     OW75511   7.661   3.599   5.813 -0.1189  0.0648  0.1316
24978SOL    HW175512   7.661   3.694   5.820 -2.0996  0.2057 -0.9905
24978SOL    HW275513   7.752   3.576   5.792  0.4099  1.6834  0.5385
24979SOL     OW75514   2.232   8.135   4.472  0.6283  0.2732  0.4201
24979SOL    HW175515   2.181   8.214   4.486  0.2613  0.1415 -0.1593
24979SOL    HW275516   2.315   8.166   4.436 -0.2650  0.2915 -1.7933
24980SOL     OW75517   2.980   6.649   3.661  0.0679 -0.3809 -0.2547
24980SOL    HW175518   2.978   6.715   3.592  1.0161  1.7548  1.6334
24980SOL    HW275519   3.059   6.599   3.643  1.1159  1.0999  0.0580
24981SOL     OW75520   8.640   4.243   7.847  0.1123 -0.3878 -0.0577
24981SOL    HW175521   8.613   4.184   7.918 -1.2917  0.1824 -0.0837
24981SOL    HW275522   8.558   4.274   7.809  0.7524  2.0065  0.3019
24982SOL     OW75523   3.109   3.905   6.118 -1.0981  0.4444  0.4616
24982SOL    HW175524   3.095   3.812   6.096 -0.4092  0.4362  0.0632
24982SOL    HW275525   3.200   3.922   6.097 -0.5413  0.5979  2.7554
24983SOL     OW75526   3.444   9.775   6.658  0.4236  0.2660 -0.0318
24983SOL    HW175527   3.532   9.757   6.692  0.0367  0.5901  1.2062
24983SOL    HW275528   3.455   9.853   6.603  0.6427  1.3582  1.4934
24984SOL     OW75529   1.037   1.611   3.630  0.3023  0.1234  0.1053
24984SOL    HW175530   1.082   1.582   3.710 -1.2755 -0.4288  0.8289
24984SOL    HW275531   0.983   1.536   3.604  1.7949 -0.2451 -2.3278
24985SOL     OW75532   0.632   1.217   6.362 -0.2805  0.1901  0.3426
24985SOL    HW175533   0.596   1.164   6.290 -0.6428  0.1642  0.5385
24985SOL    HW275534   0.615   1.307   6.336  0.0690  0.2003  0.1471
24986SOL     OW75535   7.404   3.824   1.075 -1.2255  0.0732  0.2453
24986SOL    HW175536   7.472   3.814   1.143 -3.8618 -1.9289  2.8609
24986SOL    HW275537   7.441   3.888   1.014  1.8203  1.2469  2.9798
24987SOL     OW75538   5.969   3.240   1.373  0.2356 -0.2253  0.1333
24987SOL    HW175539   5.925   3.240   1.288  0.5872  0.6460 -0.0561
24987SOL    HW275540   5.960   3.150   1.405  0.1698 -0.5774 -0.8559
24988SOL     OW75541   4.949   5.985   0.587  0.0786 -0.2535  0.1006
24988SOL    HW175542   4.997   6.063   0.560 -0.6064 -0.2106 -1.0329
24988SOL    HW275543   4.900   5.959   0.510 -0.0022 -1.5907  0.5816
24989SOL     OW75544   3.412   7.649   9.435 -0.2441 -0.1345 -0.3666
24989SOL    HW175545   3.502   7.679   9.427 -1.2089  3.1079 -0.4641
24989SOL    HW275546   3.415   7.582   9.503  1.9600  1.2310  0.9906
24990SOL     OW75547   4.910   1.985   3.942 -0.2044 -0.0532 -0.2399
24990SOL    HW175548   4.863   2.064   3.970 -0.6636 -0.1513 -0.7257
24990SOL    HW275549   4.924   1.996   3.849  1.3852  0.2938  0.0134
24991SOL     OW75550   9.193   6.975   1.274  0.1351  0.2298 -0.1644
24991SOL    HW175551   9.255   6.946   1.341 -1.7047 -1.2617  0.9861
24991SOL    HW275552   9.182   6.899   1.217 -0.8201  0.3886 -0.2041
24992SOL     OW75553   2.691   2.578   1.209 -0.4745 -0.0801  0.3853
24992SOL    HW175554   2.644   2.511   1.259 -1.2977 -0.0499 -0.3396
24992SOL    HW275555   2.655   2.573   1.121  0.0317  0.7692  0.1157
24993SOL     OW75556   8.872   4.807   7.691  0.1435 -0.4602  0.3516
24993SOL    HW175557   8.876   4.719   7.652  0.3522  0.2457 -1.3386
24993SOL    HW275558   8.935   4.858   7.640 -2.8518  1.6566 -1.5356
24994SOL     OW75559   5.760   6.097   3.112  0.6457 -0.1562  0.3237
24994SOL    HW175560   5.793   6.063   3.029  1.1682 -3.5658  1.7516
24994SOL    HW275561   5.667   6.110   3.097  1.0499  1.3124 -1.3137
24995SOL     OW75562   9.237   6.066   3.155 -0.1605 -0.0121 -0.3396
24995SOL    HW175563   9.248   6.060   3.250  0.5624 -0.6288 -0.4534
24995SOL    HW275564   9.184   5.990   3.132  0.7951 -0.6080 -0.5905
24996SOL     OW75565   8.003   9.605   8.964  0.0266 -1.0154  0.6919
24996SOL    HW175566   7.947   9.673   8.927  0.6499 -0.5322  0.6257
24996SOL    HW275567   8.059   9.651   9.026  0.0300 -1.5738  1.1135
24997SOL     OW75568   2.881   5.919   8.255 -0.3209 -0.1553 -0.4349
24997SOL    HW175569   2.874   5.858   8.328  0.6468 -0.1787 -0.3554
24997SOL    HW275570   2.864   6.005   8.293 -1.4469 -0.3296 -0.5018
24998SOL     OW75571   4.850   4.566   0.245  0.4914 -0.5889 -0.2960
24998SOL    HW175572   4.794   4.489   0.244  0.9661 -0.9876  1.1595
24998SOL    HW275573   4.794   4.636   0.279  0.4718 -0.6575 -0.1843
24999SOL     OW75574   2.415   7.597   8.033  0.8840  0.3065  0.1226
24999SOL    HW175575   2.444   7.511   8.063  2.6768  0.8650  0.1142
24999SOL    HW275576   2.413   7.651   8.112  0.0057  0.3309  0.0923
25000SOL     OW75577   3.602   9.039   0.067 -0.3062 -0.5565 -0.3025
25000SOL    HW175578   3.604   9.123   0.022  0.3285 -1.3668 -1.8591
25000SOL    HW275579   3.563   9.059   0.153  0.9979  1.5472 -0.1100
25001SOL     OW75580   6.186   2.737   0.185 -0.3921  0.2290 -0.0756
25001SOL    HW175581   6.164   2.647   0.208 -3.0589  0.6706 -0.5404
25001SOL    HW275582   6.242   2.729   0.107 -1.2972 -1.0256 -0.6356
25002SOL     OW75583   6.592   6.040   2.156 -0.1590  0.0324  0.1079
25002SOL    HW175584   6.502   6.041   2.123  0.4625 -0.3830 -1.7743
25002SOL    HW275585   6.646   6.044   2.077  1.5143  2.3195  1.2714
25003SOL     OW75586   1.395   8.203   7.470 -0.1878 -0.4728  0.0799
25003SOL    HW175587   1.310   8.167   7.493 -0.4367  0.6836  1.0813
25003SOL    HW275588   1.457   8.154   7.524 -0.6280  1.2206  2.2658
25004SOL     OW75589   1.355   3.651   7.678 -0.2780 -0.0857 -0.1820
25004SOL    HW175590   1.400   3.573   7.711 -0.4467 -0.1185 -0.0266
25004SOL    HW275591   1.323   3.626   7.592 -0.4281 -0.2248 -0.0866
25005SOL     OW75592   0.268   2.658   9.336  0.0953 -0.1018  0.8372
25005SOL    HW175593   0.246   2.607   9.415 -2.1949  0.3319  0.5592
25005SOL    HW275594   0.309   2.594   9.277  2.5898 -0.2655  2.5890
25006SOL     OW75595   5.426   3.974   7.293 -0.0924  0.0022 -0.0908
25006SOL    HW175596   5.511   3.966   7.250  0.2096  1.6956  0.1116
25006SOL    HW275597   5.412   3.889   7.336  1.2645 -0.4596 -0.5261
25007SOL     OW75598   3.281   4.575   9.887  0.3221 -0.0356  0.5044
25007SOL    HW175599   3.243   4.623   9.814 -0.1786 -1.1830 -0.0109
25007SOL    HW275600   3.325   4.642   9.939  0.3181  0.8666 -0.6062
25008SOL     OW75601   0.055   1.512   7.620 -0.8125 -0.4297 -0.3882
25008SOL    HW175602   0.045   1.548   7.532 -0.8915  2.2386  0.5978
25008SOL    HW275603  -0.030   1.475   7.641 -1.5703  1.1069 -0.6011
25009SOL     OW75604   9.310   6.883   6.314  0.3155  0.2288  0.2704
25009SOL    HW175605   9.318   6.789   6.329  1.6846  0.2954  0.1022
25009SOL    HW275606   9.217   6.902   6.328 -0.2576 -1.3827 -1.1127
25010SOL     OW75607   6.445   4.244   2.116 -0.2637  0.6212 -0.1546
25010SOL    HW175608   6.525   4.237   2.065 -1.3590  2.8776 -2.4264
25010SOL    HW275609   6.390   4.173   2.085  0.4564 -0.3655  0.7477
25011SOL     OW75610   7.338   7.887   9.833  0.5463  0.4269 -0.1564
25011SOL    HW175611   7.266   7.827   9.851  0.3939  0.1855 -1.4431
25011SOL    HW275612   7.415   7.845   9.870  0.0261  0.7734  1.4056
25012SOL     OW75613   8.404   3.340   8.940 -0.8245  0.2093  0.2665
25012SOL    HW175614   8.332   3.394   8.973 -0.2557  0.2823  1.4462
25012SOL    HW275615   8.473   3.350   9.006 -0.0865 -0.6127 -0.3649
25013SOL     OW75616   9.140   9.742   2.315  0.4095  0.3561  0.0345
25013SOL    HW175617   9.104   9.733   2.227  0.5063 -0.2553  0.0535
25013SOL    HW275618   9.200   9.668   2.324  0.4560  0.4577  0.5874
25014SOL     OW75619   7.771   3.208   5.886  0.6900 -0.3298  0.6750
25014SOL    HW175620   7.737   3.252   5.963 -1.9849 -1.7951  0.4311
25014SOL    HW275621   7.740   3.260   5.812  2.1850  0.3677  0.4972
25015SOL     OW75622   3.384   2.929   7.356 -0.2060  0.4280 -0.3843
25015SOL    HW175623   3.378   2.844   7.313 -1.8602  0.6519 -0.6931
25015SOL    HW275624   3.342   2.990   7.295  1.8296  1.6939 -0.6174
25016SOL     OW75625   7.821   6.930   7.863 -0.7423 -0.5038 -0.0348
25016SOL    HW175626   7.917   6.930   7.864 -0.7427 -0.5477  0.0725
25016SOL    HW275627   7.797   6.958   7.775 -0.6228 -1.3090 -0.3385
25017SOL     OW75628   1.112   6.162   5.277 -0.5802  0.9158  0.4679
25017SOL    HW175629   1.187   6.111   5.246 -1.0262  0.8120 -0.4903
25017SOL    HW275630   1.150   6.229   5.333  0.0279 -0.4242  1.7255
25018SOL     OW75631   3.080   0.622   9.342 -0.0358 -0.1121  0.1776
25018SOL    HW175632   3.028   0.691   9.302  0.6052  0.7189  0.7252
25018SOL    HW275633   3.028   0.542   9.332 -0.7545  0.4399 -0.5300
25019SOL     OW75634   2.816   4.728   8.529 -0.5417 -0.1944  0.3229
25019SOL    HW175635   2.771   4.813   8.526  0.1088  0.1381 -0.2972
25019SOL    HW275636   2.903   4.745   8.493 -0.5257 -1.1981 -0.1589
25020SOL     OW75637   5.925   8.980   2.332 -0.2396 -0.6730 -0.3060
25020SOL    HW175638   5.951   8.897   2.291  2.4037 -0.0068 -0.1516
25020SOL    HW275639   6.001   9.005   2.384 -2.6221 -0.4038  3.4021
25021SOL     OW75640   9.241   3.409   4.039  0.4885  0.5380 -0.6583
25021SOL    HW175641   9.186   3.336   4.067 -0.7066  1.1557 -1.2797
25021SOL    HW275642   9.181   3.467   3.991  1.5003  1.6834 -0.6065
25022SOL     OW75643   9.351   6.195   4.653  0.1769  0.2793 -0.2523
25022SOL    HW175644   9.403   6.150   4.720  1.6269 -0.1252 -1.5611
25022SOL    HW275645   9.416   6.242   4.600 -0.5983 -1.0718 -2.5907
25023SOL     OW75646   9.152   9.371   9.465 -0.4061  0.0962  0.2651
25023SOL    HW175647   9.192   9.451   9.498 -1.3370  0.9735 -0.6418
25023SOL    HW275648   9.088   9.401   9.400  0.5648 -1.4768 -1.5268
25024SOL     OW75649   4.201   3.788   5.994  0.2303 -0.4445 -0.2339
25024SOL    HW175650   4.217   3.698   6.021  0.1081 -0.8684 -1.5018
25024SOL    HW275651   4.288   3.828   5.992  0.5612 -1.1519 -1.6831
25025SOL     OW75652   1.249   1.315   1.737  0.2680  0.0667  0.0483
25025SOL    HW175653   1.320   1.257   1.709  0.0395 -0.5596  0.7233
25025SOL    HW275654   1.243   1.301   1.831  1.0968  2.2006  0.4762
25026SOL     OW75655   8.889   4.429   2.388 -0.2943 -0.3103 -0.0432
25026SOL    HW175656   8.854   4.341   2.372 -1.6439  0.2970 -0.6588
25026SOL    HW275657   8.903   4.465   2.301 -0.1084  0.2177  0.2019
25027SOL     OW75658   9.281   7.923   3.972  0.3430  0.5701  0.3412
25027SOL    HW175659   9.258   7.926   3.880  0.6861  2.9354  0.2568
25027SOL    HW275660   9.346   7.854   3.979 -0.5865 -0.4736 -0.9351
25028SOL     OW75661   1.862   4.572   0.927  0.0509  0.6751  0.0638
25028SOL    HW175662   1.895   4.588   0.839  0.4691  3.6812  0.6399
25028SOL    HW275663   1.883   4.480   0.945  1.4394  0.4459 -2.3204
25029SOL     OW75664   7.555   2.074   7.500 -0.7652 -0.4332  0.2990
25029SOL    HW175665   7.546   2.002   7.437  0.5105 -1.5344  1.3140
25029SOL    HW275666   7.621   2.132   7.461 -0.7091 -0.5844  0.1668
25030SOL     OW75667   5.587   0.386   5.173 -0.3919  0.0188 -0.0292
25030SOL    HW175668   5.617   0.472   5.144  0.5042  0.5306  2.2299
25030SOL    HW275669   5.492   0.388   5.160 -0.5560  1.8638  1.1885
25031SOL     OW75670   8.005   8.577   4.317  0.8255 -0.0673  0.2651
25031SOL    HW175671   7.982   8.546   4.230  2.6413  0.1671 -0.3297
25031SOL    HW275672   7.929   8.627   4.346 -0.2712 -1.1452 -0.6690
25032SOL     OW75673   4.047   9.119   6.237 -0.4595  0.5370 -0.1559
25032SOL    HW175674   4.133   9.078   6.225 -0.4278  0.7811 -0.8394
25032SOL    HW275675   4.063   9.212   6.217 -0.7002  0.7353  0.5659
25033SOL     OW75676   1.751   0.821   8.297  0.1679 -0.1130  0.1370
25033SOL    HW175677   1.816   0.751   8.298  0.5089  0.1537 -1.0022
25033SOL    HW275678   1.802   0.901   8.278 -0.3733  0.2267  0.0802
25034SOL     OW75679   5.930   4.562   1.297 -0.1844 -0.2083 -0.1518
25034SOL    HW175680   5.855   4.509   1.325 -0.3935 -1.1870 -2.2926
25034SOL    HW275681   5.891   4.631   1.244  0.1998  1.4063  1.5762
25035SOL     OW75682   0.980   7.397   4.944  0.4392 -0.5265 -0.6608
25035SOL    HW175683   1.024   7.369   4.864  0.3640  2.0255 -1.6792
25035SOL    HW275684   1.002   7.489   4.952 -1.6517 -0.0983  0.8687
25036SOL     OW75685   7.490   5.867   6.769  0.3639 -0.5641  0.5306
25036SOL    HW175686   7.563   5.805   6.766  0.7362 -0.1783  1.3017
25036SOL    HW275687   7.470   5.885   6.677 -1.8603 -4.2057  0.1139
25037SOL     OW75688   6.880   9.090   5.997  0.3859  0.1225  0.6433
25037SOL    HW175689   6.809   9.152   6.011  0.5160  0.4018  0.0828
25037SOL    HW275690   6.854   9.012   6.045 -1.5010 -0.6831 -1.5133
25038SOL     OW75691   6.831   2.119   0.738  0.3976  0.2498 -0.4914
25038SOL    HW175692   6.897   2.063   0.779 -0.3088  0.2970  0.7979
25038SOL    HW275693   6.844   2.205   0.778 -1.8569 -0.2530  1.6510
25039SOL     OW75694   8.831   8.046   1.822  0.3162 -0.4982  0.0203
25039SOL    HW175695   8.898   8.110   1.845  0.5929 -1.0162  0.7026
25039SOL    HW275696   8.778   8.090   1.756 -0.8305  1.2865  1.9985
25040SOL     OW75697   2.099   1.337   0.842 -0.0128 -0.5541  0.8460
25040SOL    HW175698   2.033   1.341   0.911 -1.8606 -0.7161 -0.8352
25040SOL    HW275699   2.053   1.302   0.766  1.6415  0.7216 -0.8385
25041SOL     OW75700   1.358   7.274   9.635 -0.1139 -0.3126  0.3982
25041SOL    HW175701   1.394   7.299   9.720 -0.6548 -0.0068  0.5470
25041SOL    HW275702   1.354   7.357   9.586  1.9736 -0.7534 -0.6377
25042SOL     OW75703   6.500   1.306   3.671  0.1354  0.0669 -0.3725
25042SOL    HW175704   6.488   1.397   3.643 -0.8020  0.4721  1.1840
25042SOL    HW275705   6.594   1.289   3.658  0.3442  1.2836 -0.6111
25043SOL     OW75706   6.606   7.721   7.775  0.2229 -0.5727  0.3368
25043SOL    HW175707   6.565   7.796   7.733 -1.1779 -2.1501 -1.3005
25043SOL    HW275708   6.688   7.708   7.727  1.1473  0.6739  1.5186
25044SOL     OW75709   7.074   5.841   9.723 -0.2990  0.6908 -0.3924
25044SOL    HW175710   7.087   5.750   9.751 -1.3012  0.1460 -1.6147
25044SOL    HW275711   7.125   5.892   9.785 -3.0124 -0.3387  3.0379
25045SOL     OW75712   9.757   6.948   0.411 -0.5032 -0.4390 -1.0000
25045SOL    HW175713   9.694   6.876   0.406 -0.6002 -0.3220 -1.4193
25045SOL    HW275714   9.784   6.963   0.321  0.7220 -1.0170 -0.7533
25046SOL     OW75715   8.086   2.144   6.861 -0.3240 -0.3178  0.8550
25046SOL    HW175716   8.085   2.190   6.777  2.7035  1.9808  1.9115
25046SOL    HW275717   8.050   2.206   6.923 -1.4144 -1.5620  1.5309
25047SOL     OW75718   4.454   9.198   2.386 -0.1724 -0.1647  0.2401
25047SOL    HW175719   4.434   9.159   2.471 -0.8786 -2.2455 -0.8289
25047SOL    HW275720   4.376   9.184   2.333  0.5236  0.4173 -0.9911
25048SOL     OW75721   4.709   2.912   4.324  0.2298  0.1552 -0.1991
25048SOL    HW175722   4.707   2.896   4.418  0.2605  1.5217  0.0495
25048SOL    HW275723   4.802   2.914   4.301  0.2441  0.7584 -0.0880
25049SOL     OW75724   9.644   6.380   0.131  0.3321  0.2303  0.1763
25049SOL    HW175725   9.553   6.358   0.150  0.1961  0.0182 -0.6712
25049SOL    HW275726   9.658   6.466   0.171  1.1010 -1.5896  4.2785
25050SOL     OW75727   0.833   8.094   8.496 -0.4658 -0.0927 -0.2831
25050SOL    HW175728   0.754   8.148   8.486 -0.2994 -0.2176 -3.0510
25050SOL    HW275729   0.870   8.090   8.408  2.2413 -0.6865  0.8061
25051SOL     OW75730   8.488   6.696   7.404 -0.1414  0.1884 -0.0564
25051SOL    HW175731   8.560   6.673   7.346 -1.1596  0.4826 -1.4971
25051SOL    HW275732   8.442   6.613   7.419 -0.1054  0.1764 -0.0158
25052SOL     OW75733   3.616   3.019   8.919  0.0039 -0.7950 -0.5531
25052SOL    HW175734   3.706   3.022   8.951  0.2096  0.5210 -1.1784
25052SOL    HW275735   3.603   3.103   8.875 -0.9934 -1.6454 -1.9678
25053SOL     OW75736  -0.002   1.600   2.436 -0.5462 -0.1892  0.2632
25053SOL    HW175737   0.060   1.528   2.428  0.5062  0.8942 -1.8321
25053SOL    HW275738   0.034   1.656   2.505 -0.3056 -0.6116  0.4815
25054SOL     OW75739   6.420   6.664   8.055 -0.3710  0.1958 -0.3818
25054SOL    HW175740   6.390   6.720   8.127 -1.8745 -1.2018  0.1371
25054SOL    HW275741   6.496   6.711   8.018  0.2687  1.1005  1.9069
25055SOL     OW75742   4.940   7.700   3.385  0.5043 -0.3967 -0.8016
25055SOL    HW175743   5.025   7.718   3.427  0.8585 -2.0887 -0.7062
25055SOL    HW275744   4.944   7.606   3.363 -2.1701 -1.0766  1.1484
25056SOL     OW75745   6.185   8.258   0.816 -0.5097  0.1293  0.2833
25056SOL    HW175746   6.155   8.198   0.747  1.0100  0.7113 -0.9174
25056SOL    HW275747   6.104   8.290   0.855 -1.4479  0.2327 -1.6113
25057SOL     OW75748   0.065   0.057   3.701 -0.3664  0.1806 -0.2883
25057SOL    HW175749   0.154   0.054   3.735 -0.2521  1.1017 -0.4925
25057SOL    HW275750   0.076   0.067   3.606 -0.6783 -2.2869 -0.6752
25058SOL     OW75751   2.222   7.888   7.055 -0.2349  0.4371  0.4110
25058SOL    HW175752   2.309   7.857   7.081  0.8942  2.1832 -1.0451
25058SOL    HW275753   2.222   7.884   6.960 -1.9185  0.1241  0.3899
25059SOL     OW75754   0.497   0.408   9.708  0.4186  0.4898 -0.1611
25059SOL    HW175755   0.466   0.318   9.704 -0.9241  0.8066  1.6047
25059SOL    HW275756   0.584   0.406   9.668  0.4143 -1.5773 -0.1575
25060SOL     OW75757   2.699   5.150   7.085 -0.7475  0.0097 -0.3087
25060SOL    HW175758   2.727   5.194   7.005  1.6433 -1.9949 -0.6814
25060SOL    HW275759   2.744   5.066   7.084 -2.4759 -1.0642  2.0232
25061SOL     OW75760   9.427   3.159   8.962 -0.5367 -0.1831  0.1882
25061SOL    HW175761   9.408   3.184   8.871 -1.2781  0.4272  0.5024
25061SOL    HW275762   9.367   3.087   8.979 -0.1792 -0.5027  0.0953
25062SOL     OW75763   3.468   1.344   4.290  0.1056  0.3595 -0.2132
25062SOL    HW175764   3.472   1.295   4.372  0.3733  1.1458  0.2581
25062SOL    HW275765   3.376   1.368   4.281 -0.1759 -0.8698 -0.8506
25063SOL     OW75766   7.770   9.056   7.728 -0.3473 -0.1898 -0.5011
25063SOL    HW175767   7.696   9.089   7.677 -0.8167 -0.7380 -0.2030
25063SOL    HW275768   7.817   8.998   7.668 -1.9681 -2.3358  0.1554
25064SOL     OW75769   4.427   8.889   4.355  0.3639  0.0716  0.6093
25064SOL    HW175770   4.478   8.813   4.383  1.1238  0.2803 -0.1504
25064SOL    HW275771   4.352   8.851   4.309  0.0642 -0.2318  1.3393
25065SOL     OW75772   4.952   0.056   6.267  0.2459  0.3929  0.5116
25065SOL    HW175773   5.033   0.025   6.307  0.0650  0.1545  0.6956
25065SOL    HW275774   4.978   0.085   6.180  0.5426  0.3899  0.5974
25066SOL     OW75775   3.529   5.141   3.164 -0.4550  0.0766 -0.3499
25066SOL    HW175776   3.509   5.234   3.147 -0.1005 -0.3681 -4.0221
25066SOL    HW275777   3.506   5.097   3.082 -4.5566 -3.8754  2.4829
25067SOL     OW75778   8.610   8.245   9.430 -0.0005  0.0153 -0.6110
25067SOL    HW175779   8.687   8.302   9.434 -0.1173  0.1868 -0.7510
25067SOL    HW275780   8.583   8.249   9.338  0.5358 -0.9907 -0.8278
25068SOL     OW75781   4.971   6.441   0.502 -0.1967  0.1559 -0.2621
25068SOL    HW175782   4.882   6.410   0.519 -0.2609  0.2479 -0.4269
25068SOL    HW275783   4.979   6.521   0.554 -0.9693  1.3703 -1.9303
25069SOL     OW75784   2.309   6.762   9.261 -0.4931 -0.0084  0.2580
25069SOL    HW175785   2.246   6.691   9.248  0.6844 -0.7414 -2.1038
25069SOL    HW275786   2.257   6.842   9.251 -1.2383 -0.5864 -0.7135
25070SOL     OW75787   9.326   9.631   3.665 -0.7315  0.3012  0.2299
25070SOL    HW175788   9.319   9.571   3.591  0.5394 -0.4459  0.6777
25070SOL    HW275789   9.275   9.708   3.638  0.5196  0.4838 -1.8798
25071SOL     OW75790   5.426   9.769   5.156  0.0598  0.2492  0.4319
25071SOL    HW175791   5.503   9.754   5.101 -0.1448  0.0556  0.1966
25071SOL    HW275792   5.451   9.843   5.212  0.6591 -0.2476  0.8302
25072SOL     OW75793   7.485   8.302   2.771  0.0149 -0.2040  0.4655
25072SOL    HW175794   7.546   8.313   2.844  0.5577 -0.7218  0.0913
25072SOL    HW275795   7.515   8.224   2.725 -0.1146  0.3101 -0.5218
25073SOL     OW75796   4.101   4.226   7.075  0.4950 -0.0855 -0.3405
25073SOL    HW175797   4.113   4.199   7.166 -0.2721 -0.6323 -0.3947
25073SOL    HW275798   4.071   4.316   7.079  0.0463 -0.2492 -0.0335
25074SOL     OW75799   6.805   8.210   9.305 -0.0439 -0.0778  0.4868
25074SOL    HW175800   6.758   8.142   9.353  2.1009 -2.1688 -0.1671
25074SOL    HW275801   6.749   8.230   9.230 -1.1144 -0.4554  1.1631
25075SOL     OW75802   4.799   7.013   7.492 -0.1078  0.0109 -0.1863
25075SOL    HW175803   4.758   6.945   7.438  0.2442 -0.2606 -0.1227
25075SOL    HW275804   4.784   7.094   7.445 -2.8252  0.2977  1.0242
25076SOL     OW75805   6.078   0.341   8.294  0.5024 -0.3091  0.1568
25076SOL    HW175806   6.091   0.252   8.261  1.0996 -0.7499  1.5148
25076SOL    HW275807   6.150   0.392   8.258  1.1077 -0.7675  0.7098
25077SOL     OW75808   9.869   9.992   3.920  1.0661  0.0625  0.2021
25077SOL    HW175809   9.888   9.907   3.961 -1.3188 -0.3833  0.5261
25077SOL    HW275810   9.942  10.007   3.860  1.0395 -2.7413 -0.6669
25078SOL     OW75811   1.358   1.663   9.813 -0.1012 -0.2767 -0.4878
25078SOL    HW175812   1.263   1.653   9.820 -0.2595  0.6347 -1.0734
25078SOL    HW275813   1.377   1.648   9.720 -0.0452  1.9801 -0.9077
25079SOL     OW75814   6.208   8.192   6.621  0.6032  0.4769  0.4714
25079SOL    HW175815   6.226   8.218   6.531 -0.0350 -1.3203 -0.2226
25079SOL    HW275816   6.172   8.270   6.662 -0.1649  1.0133 -1.1541
25080SOL     OW75817   3.071   0.595   1.053  1.1528 -0.6294 -0.2448
25080SOL    HW175818   3.002   0.528   1.058 -0.4002  0.8953 -0.0642
25080SOL    HW275819   3.072   0.634   1.140  0.0024  1.4245 -1.0715
25081SOL     OW75820   7.826   6.091   0.373 -0.0560 -0.3914 -0.0053
25081SOL    HW175821   7.876   6.114   0.451 -0.4170 -1.6571  0.6364
25081SOL    HW275822   7.869   6.011   0.341 -0.9969 -0.9030 -0.0440
25082SOL     OW75823   7.425   4.501   8.379 -0.7077  0.3694  0.6493
25082SOL    HW175824   7.408   4.595   8.376  0.5399  0.6076  0.8355
25082SOL    HW275825   7.338   4.461   8.378 -1.2373  1.4872 -0.6637
25083SOL     OW75826   9.324   5.442   5.053 -0.2214 -0.3176  0.7509
25083SOL    HW175827   9.401   5.390   5.031 -1.3453 -1.7374 -0.0367
25083SOL    HW275828   9.359   5.528   5.077  1.5022 -0.4525 -1.0230
25084SOL     OW75829   9.844   4.827   3.050 -0.0271 -0.0047 -0.0471
25084SOL    HW175830   9.849   4.780   3.133  0.3718  0.0776 -0.0258
25084SOL    HW275831   9.751   4.850   3.042  0.3589  2.6033  1.8298
25085SOL     OW75832   8.534   0.256   2.816  0.1103  0.1252 -0.4985
25085SOL    HW175833   8.618   0.277   2.858 -0.8041  0.2453  1.3948
25085SOL    HW275834   8.557   0.232   2.726  2.2860 -0.9168  0.2661
25086SOL     OW75835   9.934   2.136   1.888 -0.2589  0.5669 -0.1387
25086SOL    HW175836   9.982   2.185   1.954 -0.8932 -1.0809  1.6262
25086SOL    HW275837   9.852   2.184   1.878 -1.1712 -0.3889  2.0832
25087SOL     OW75838   0.259   5.890   5.222  0.0363  0.1418 -0.3864
25087SOL    HW175839   0.260   5.940   5.304  0.6700  0.9331 -0.8752
25087SOL    HW275840   0.351   5.876   5.201 -0.0105 -3.5600  1.1247
25088SOL     OW75841   1.767   9.489   7.514 -0.1619  0.2000 -0.5412
25088SOL    HW175842   1.756   9.461   7.605 -0.1147  0.3069 -0.5033
25088SOL    HW275843   1.720   9.572   7.509 -1.0937 -0.3300 -0.8841
25089SOL     OW75844   0.826   2.038   2.663  0.2671 -0.4017  0.0744
25089SOL    HW175845   0.827   2.133   2.665  3.4219 -0.3109 -1.2898
25089SOL    HW275846   0.866   2.011   2.746  0.7457 -0.5009 -0.1880
25090SOL     OW75847   2.278   6.997   5.328 -0.1709 -0.1385 -0.1799
25090SOL    HW175848   2.268   7.007   5.423  0.8641  1.3548 -0.1955
25090SOL    HW275849   2.198   7.037   5.293 -0.0460  0.3195  0.0408
25091SOL     OW75850   0.227   4.054   1.121  0.1751  0.5019 -0.0271
25091SOL    HW175851   0.197   4.027   1.034 -0.9274 -0.4960  0.6259
25091SOL    HW275852   0.155   4.107   1.156  0.5016  0.6932  0.3707
25092SOL     OW75853   2.415   3.316   1.392  0.0919  0.2579  0.2817
25092SOL    HW175854   2.414   3.278   1.304  1.4902  0.0770  0.3249
25092SOL    HW275855   2.326   3.300   1.425 -1.0009  1.7853 -1.6637
25093SOL     OW75856   5.660   2.495   2.054 -0.2466 -0.0136 -0.2486
25093SOL    HW175857   5.753   2.476   2.066 -0.3471  0.1184  0.8815
25093SOL    HW275858   5.644   2.573   2.107 -1.0185 -0.0886 -0.3541
25094SOL     OW75859   0.793   8.443   8.188 -0.2824 -0.3089  0.1024
25094SOL    HW175860   0.753   8.375   8.134  0.6348 -0.1593 -0.8051
25094SOL    HW275861   0.768   8.422   8.278 -0.6115 -1.4194 -0.2419
25095SOL     OW75862   1.037   5.783   6.183 -0.0154  0.0681  0.0501
25095SOL    HW175863   1.000   5.752   6.100 -0.7933  2.6189 -0.6323
25095SOL    HW275864   0.961   5.788   6.241  0.4828 -1.4235  0.8769
25096SOL     OW75865   8.300   1.183   7.834  0.4210  0.0238  0.1380
25096SOL    HW175866   8.252   1.242   7.777 -1.0677 -1.0906  0.1635
25096SOL    HW275867   8.358   1.134   7.775 -0.7790 -0.8033 -0.3878
25097SOL     OW75868   6.404   9.841   3.772 -0.1923 -0.0283 -0.2974
25097SOL    HW175869   6.490   9.841   3.729 -0.8978  1.0577 -1.7865
25097SOL    HW275870   6.342   9.819   3.703 -0.9660 -3.3358  1.2895
25098SOL     OW75871   4.797   7.930   3.388 -0.2765  0.5053 -0.1244
25098SOL    HW175872   4.856   7.855   3.395  0.5691  1.2263  0.6048
25098SOL    HW275873   4.722   7.906   3.443  0.3862  0.5534  0.8200
25099SOL     OW75874   9.187   7.786   9.141 -0.0878 -0.0803  0.0829
25099SOL    HW175875   9.186   7.843   9.064 -0.1093 -1.6922 -1.1493
25099SOL    HW275876   9.097   7.792   9.175 -1.0359 -1.7583 -1.9025
25100SOL     OW75877   6.906   6.665   6.757 -0.2215  0.4588 -0.0031
25100SOL    HW175878   6.903   6.684   6.664  0.6711 -0.3077 -0.1966
25100SOL    HW275879   6.936   6.574   6.763 -0.5283  0.4082  1.0186
25101SOL     OW75880   6.196   4.459   3.259  0.3081 -0.2810 -0.5595
25101SOL    HW175881   6.230   4.546   3.279  1.2081 -0.5524 -0.8874
25101SOL    HW275882   6.222   4.405   3.334  0.1728 -0.3833 -0.5852
25102SOL     OW75883   3.334   9.649   9.707  0.1721  0.2209 -0.4187
25102SOL    HW175884   3.370   9.737   9.713 -0.3037  0.3513  0.5954
25102SOL    HW275885   3.243   9.661   9.680  0.4539 -0.0402 -1.5475
25103SOL     OW75886   8.297   0.389   8.875 -0.2436 -0.6808  0.2854
25103SOL    HW175887   8.381   0.435   8.882 -1.1875  0.9183  1.9058
25103SOL    HW275888   8.235   0.446   8.920 -1.5132 -3.5748  2.4897
25104SOL     OW75889   0.109   9.395   6.334 -0.2896  0.7259 -0.6022
25104SOL    HW175890   0.085   9.472   6.283 -2.0917  0.2775 -0.4954
25104SOL    HW275891   0.071   9.321   6.286 -1.0677  0.1981  0.7672
25105SOL     OW75892   0.573   0.511   0.099 -0.1469 -0.2425  0.1757
25105SOL    HW175893   0.598   0.553   0.181  0.9568 -2.1730  0.8719
25105SOL    HW275894   0.645   0.529   0.039  0.0979 -0.7289  0.3236
25106SOL     OW75895   0.842   9.814   9.784  0.1922  0.4083  0.1702
25106SOL    HW175896   0.934   9.826   9.807  0.1300 -0.5729  1.0569
25106SOL    HW275897   0.794   9.852   9.858 -0.1910  2.5353 -1.1026
25107SOL     OW75898   2.428   9.524   4.884 -0.0018 -0.1213  0.1969
25107SOL    HW175899   2.472   9.542   4.967 -1.2690 -1.1602  1.1645
25107SOL    HW275900   2.441   9.430   4.870  0.1568  0.0322 -0.7717
25108SOL     OW75901   0.704   6.696   5.406  0.3781  0.1341  0.8132
25108SOL    HW175902   0.713   6.693   5.501 -0.1516  0.4488  0.8747
25108SOL    HW275903   0.642   6.625   5.386  0.7876 -0.1837  0.6652
25109SOL     OW75904   0.816   6.210   2.095 -0.2871  0.3323  0.0767
25109SOL    HW175905   0.902   6.235   2.128 -0.0019  0.4728 -0.7652
25109SOL    HW275906   0.816   6.114   2.098 -0.5475  0.3538  1.1814
25110SOL     OW75907   8.881   7.236   1.086 -0.0162 -0.0761  1.1740
25110SOL    HW175908   8.888   7.258   1.179 -1.3842  1.2156  1.0033
25110SOL    HW275909   8.810   7.172   1.082 -0.3172  0.2706  0.9599
25111SOL     OW75910   3.959   6.554   2.032 -0.0604  0.2039 -0.0334
25111SOL    HW175911   3.972   6.516   2.119  0.3913  0.4028 -0.0079
25111SOL    HW275912   3.904   6.630   2.047  0.4074  0.5115  0.1478
25112SOL     OW75913   9.902   5.346   8.972  0.1897  0.3194 -0.2821
25112SOL    HW175914   9.969   5.408   8.999 -0.8754  0.9163  1.0605
25112SOL    HW275915   9.819   5.394   8.979 -0.5629 -0.9321 -0.2157
25113SOL     OW75916   5.987   7.462   4.613  1.1800  0.2716  0.6794
25113SOL    HW175917   5.940   7.411   4.547  0.9824 -0.0253  1.0458
25113SOL    HW275918   5.957   7.552   4.599  1.7974  0.3553 -0.1999
25114SOL     OW75919   9.243   7.368   5.898 -0.1801  0.3161  0.2419
25114SOL    HW175920   9.284   7.286   5.871 -0.0791  0.2277  0.6513
25114SOL    HW275921   9.181   7.343   5.966  1.1762  0.7612  1.7208
25115SOL     OW75922   0.350   9.453   1.616  0.0674  0.0456  0.2612
25115SOL    HW175923   0.261   9.488   1.619 -0.2291 -0.5667 -0.7577
25115SOL    HW275924   0.406   9.530   1.613 -0.5330  0.4652 -1.0516
25116SOL     OW75925   7.269   8.464   0.046 -0.4651 -0.3943 -0.5758
25116SOL    HW175926   7.257   8.496   0.135 -0.2601  1.1429 -1.0644
25116SOL    HW275927   7.180   8.462   0.009 -0.2979  2.5239 -1.4323
25117SOL     OW75928   4.703   0.473   1.228 -0.2337 -0.3063 -0.7071
25117SOL    HW175929   4.617   0.483   1.187  0.2977  0.6390 -1.6314
25117SOL    HW275930   4.746   0.557   1.216  0.6562 -0.6070  0.1757
25118SOL     OW75931   5.446   1.341   7.306  0.7812 -0.3691  0.1358
25118SOL    HW175932   5.381   1.412   7.307  0.2940 -0.7349 -1.8946
25118SOL    HW275933   5.524   1.380   7.267  1.8542  0.0417  2.4818
25119SOL     OW75934   1.048   8.542   3.652 -0.1980  0.0265  0.6461
25119SOL    HW175935   1.065   8.635   3.639  0.8625 -0.1631  0.5561
25119SOL    HW275936   1.056   8.528   3.746  0.3304 -0.0868  0.5903
25120SOL     OW75937   1.383   6.883   6.729 -0.4427  0.0302  0.0379
25120SOL    HW175938   1.386   6.978   6.729 -1.5202  0.1188  1.8876
25120SOL    HW275939   1.473   6.855   6.713  0.0295  1.3667  0.2764
25121SOL     OW75940   9.866   1.576   4.139  0.0442  0.1864 -0.4371
25121SOL    HW175941   9.933   1.514   4.112  0.5037  0.0654  0.9146
25121SOL    HW275942   9.894   1.606   4.226 -0.6801  1.5430 -0.6419
25122SOL     OW75943   7.311   6.162   1.491  0.2979 -0.3183 -0.7231
25122SOL    HW175944   7.326   6.100   1.561  2.0621 -1.0300 -1.6637
25122SOL    HW275945   7.301   6.247   1.535  1.7792 -0.6803  0.3911
25123SOL     OW75946   3.081   7.055   5.981  0.2330  0.2541  0.4117
25123SOL    HW175947   3.093   6.971   5.937 -0.8777  0.6327 -0.6638
25123SOL    HW275948   3.051   7.032   6.069  1.8415 -0.4980  0.8032
25124SOL     OW75949   7.517   9.006   8.845  0.4416  0.4237 -0.4126
25124SOL    HW175950   7.467   9.028   8.924 -0.4420 -0.8411 -0.5867
25124SOL    HW275951   7.608   9.011   8.873  0.1458 -1.7329  1.2517
25125SOL     OW75952   6.110   0.084   8.540  0.2905 -0.0497 -0.2096
25125SOL    HW175953   6.070   0.171   8.541  0.4678  0.0282  0.4183
25125SOL    HW275954   6.064   0.035   8.608  1.2867  0.0602  0.5663
25126SOL     OW75955   1.294   8.885   2.304  0.1205 -0.2312  0.4029
25126SOL    HW175956   1.377   8.931   2.299  0.4189 -0.8641 -2.5675
25126SOL    HW275957   1.231   8.945   2.264 -1.0646  0.4430  3.0475
25127SOL     OW75958   3.133   5.407   2.988  0.6594 -0.1046  0.2067
25127SOL    HW175959   3.131   5.443   2.899 -2.7045  2.4512  1.1180
25127SOL    HW275960   3.207   5.451   3.030  1.2015 -0.0078 -0.8234
25128SOL     OW75961   6.900   5.138   5.855  0.0085 -0.1909 -0.3232
25128SOL    HW175962   6.811   5.137   5.889  0.0288  3.4999  0.3049
25128SOL    HW275963   6.890   5.136   5.760 -0.7957  0.5813 -0.2670
25129SOL     OW75964   2.868   8.163   6.448  0.0529 -0.2105 -0.3750
25129SOL    HW175965   2.902   8.170   6.358 -1.5903 -1.1013 -1.1064
25129SOL    HW275966   2.935   8.204   6.502  0.3961  1.7509 -2.1634
25130SOL     OW75967   7.057   0.567   3.490  0.1643 -0.1110 -0.2156
25130SOL    HW175968   7.017   0.575   3.403  0.1902  0.3242 -0.1855
25130SOL    HW275969   7.123   0.636   3.493  0.0947 -0.0618  0.1878
25131SOL     OW75970   2.232   6.199   0.509  0.3748 -0.1219 -0.1544
25131SOL    HW175971   2.302   6.245   0.556 -0.4729 -0.2931  1.3127
25131SOL    HW275972   2.159   6.195   0.571 -1.3627  1.0264 -1.9941
25132SOL     OW75973   7.925   6.322   4.410  0.2679  0.4082  0.1189
25132SOL    HW175974   7.925   6.378   4.332 -0.9027 -0.6077 -0.6552
25132SOL    HW275975   8.016   6.320   4.439  0.9171  0.0300 -1.8097
25133SOL     OW75976   0.423   1.210   2.197 -0.5586  0.1957 -0.1906
25133SOL    HW175977   0.372   1.247   2.268 -0.7032  1.5692 -0.9831
25133SOL    HW275978   0.500   1.173   2.240  0.0764  2.2848  0.5784
25134SOL     OW75979   1.581   7.041   3.336 -0.3705  0.7548  0.0623
25134SOL    HW175980   1.590   6.971   3.272  1.7769 -0.0269  1.1094
25134SOL    HW275981   1.555   7.118   3.285 -0.8677 -0.3346 -1.3855
25135SOL     OW75982   9.166   8.204   7.779 -0.7717  0.4303 -0.4682
25135SOL    HW175983   9.204   8.202   7.867 -0.9218  0.4966 -0.4025
25135SOL    HW275984   9.076   8.235   7.791 -0.5018  1.3583 -0.7524
25136SOL     OW75985   8.932   6.198   4.265 -0.4160  0.1871  0.2369
25136SOL    HW175986   8.901   6.136   4.199 -0.1071  0.1692  0.1074
25136SOL    HW275987   8.882   6.278   4.249 -1.1075 -0.1497  0.6600
25137SOL     OW75988   0.853   1.390   6.864 -0.0296 -0.2725 -0.1741
25137SOL    HW175989   0.765   1.418   6.841  0.6088  1.9945 -0.0603
25137SOL    HW275990   0.867   1.310   6.812 -1.9517 -0.4285 -0.5288
25138SOL     OW75991  -0.010   6.305   9.072  0.3487 -0.0430  0.0054
25138SOL    HW175992   0.073   6.340   9.039  0.7964 -1.0501  0.0054
25138SOL    HW275993  -0.020   6.347   9.158  1.1072 -0.2473  0.2106
25139SOL     OW75994   5.632   2.352   1.506 -0.4020 -0.1814 -0.2840
25139SOL    HW175995   5.579   2.398   1.440  0.4903 -0.8012 -1.4748
25139SOL    HW275996   5.587   2.369   1.589 -1.8033  0.2697 -1.0999
25140SOL     OW75997   4.498   5.938   7.851 -0.3512  0.2288 -0.2056
25140SOL    HW175998   4.531   6.026   7.874  0.8141 -0.1211 -0.4511
25140SOL    HW275999   4.572   5.880   7.869 -1.2612 -0.7794  0.3879
25141SOL     OW76000   5.464   8.352   5.124 -0.1206 -0.1310  0.2540
25141SOL    HW176001   5.477   8.316   5.212 -1.5828  1.6329  1.2673
25141SOL    HW276002   5.391   8.303   5.088  1.3523 -1.8082 -0.6014
25142SOL     OW76003   4.855   8.888   3.891 -0.3356 -0.2089  0.3530
25142SOL    HW176004   4.836   8.807   3.844  0.4201 -1.1145  1.5583
25142SOL    HW276005   4.948   8.881   3.914 -0.3741  0.7904  0.8822
25143SOL     OW76006   4.874   3.574   6.631  0.1909  0.0974  0.2630
25143SOL    HW176007   4.959   3.611   6.657 -0.2377  1.2010  0.1255
25143SOL    HW276008   4.821   3.578   6.710 -0.1970  0.7779 -0.0298
25144SOL     OW76009   2.012   9.762   4.335  0.0682  0.0054  0.0605
25144SOL    HW176010   1.996   9.674   4.370  0.5319 -0.4028 -0.7428
25144SOL    HW276011   1.969   9.762   4.250 -2.1964  1.4223  1.1051
25145SOL     OW76012   8.742   1.705   8.114 -0.2261  0.4876  0.4757
25145SOL    HW176013   8.728   1.734   8.024  1.7249  0.9688  0.2872
25145SOL    HW276014   8.704   1.617   8.118 -1.7986  1.1023 -0.3280
25146SOL     OW76015   0.803   9.184   4.643 -0.2378 -0.1606  0.5582
25146SOL    HW176016   0.754   9.134   4.708 -0.8488 -0.6076 -0.2260
25146SOL    HW276017   0.745   9.255   4.618 -0.2963 -0.4013 -0.0092
25147SOL     OW76018   3.577   4.730   6.021  0.0490  0.2689  0.3405
25147SOL    HW176019   3.667   4.697   6.021  0.1867  0.6278  0.8827
25147SOL    HW276020   3.580   4.809   6.075 -0.6205  0.2137  0.4693
25148SOL     OW76021   1.196   4.182   5.506  0.3506 -0.1407  0.2212
25148SOL    HW176022   1.129   4.249   5.495 -0.2473 -0.4827  1.5284
25148SOL    HW276023   1.208   4.176   5.601  0.8505 -1.4213  0.0945
25149SOL     OW76024   9.826   6.433   4.004  1.0953  0.8073 -0.2265
25149SOL    HW176025   9.917   6.417   4.027  1.6398  0.1749 -2.5436
25149SOL    HW276026   9.822   6.419   3.909 -1.2110  1.7737 -0.3551
25150SOL     OW76027   3.985   5.807   8.157  0.6504  0.0381  0.5999
25150SOL    HW176028   4.036   5.782   8.234  0.2564  2.4940  1.7618
25150SOL    HW276029   3.898   5.827   8.192 -0.6031 -2.0886 -1.0435
25151SOL     OW76030   7.589   3.856   0.085  0.3718  0.1292  0.5027
25151SOL    HW176031   7.630   3.854  -0.002 -1.5429 -0.5286 -0.4355
25151SOL    HW276032   7.615   3.941   0.121  0.1633  1.0093 -1.2781
25152SOL     OW76033   9.422   7.854   0.737 -0.3017 -0.0541  0.3690
25152SOL    HW176034   9.377   7.775   0.768 -0.0476 -0.6477 -0.7162
25152SOL    HW276035   9.357   7.924   0.746 -0.7543 -0.5099  0.7226
25153SOL     OW76036   2.086   5.044   3.145 -0.3597  0.4824  0.2816
25153SOL    HW176037   2.123   4.967   3.190  1.6082  1.6918  0.8543
25153SOL    HW276038   2.163   5.093   3.115 -1.5609  2.2337 -0.0430
25154SOL     OW76039   2.135   0.414   6.896 -0.1845 -0.0474 -0.0111
25154SOL    HW176040   2.192   0.385   6.826 -0.3521  0.3887 -0.3348
25154SOL    HW276041   2.055   0.443   6.852 -0.1652  0.5348  0.3207
25155SOL     OW76042   9.823   9.268   4.907  0.2036 -0.1721 -0.1564
25155SOL    HW176043   9.831   9.212   4.831 -2.0482 -1.9735  0.8289
25155SOL    HW276044   9.913   9.283   4.935  0.9451 -2.3832 -1.1310
25156SOL     OW76045   0.778   5.728   6.963  0.3474 -0.1878 -0.2355
25156SOL    HW176046   0.854   5.724   6.905  1.3573 -1.7770  1.1324
25156SOL    HW276047   0.706   5.693   6.910  0.8657 -0.0515 -1.0541
25157SOL     OW76048   2.069   9.644   9.388  0.2170  0.1649 -0.1716
25157SOL    HW176049   2.010   9.719   9.378  0.3072  0.0019 -2.8966
25157SOL    HW276050   2.030   9.576   9.332  0.8685 -1.3744  1.1711
25158SOL     OW76051   5.224   7.982   4.524  0.3254  0.1210  0.0665
25158SOL    HW176052   5.211   8.019   4.436 -0.7303  1.1351  0.6302
25158SOL    HW276053   5.264   8.053   4.574 -1.3245  0.4074  1.0426
25159SOL     OW76054   3.449   9.695   4.018 -0.1716 -0.5024 -0.5876
25159SOL    HW176055   3.417   9.750   3.946  2.1572  1.9120  0.0489
25159SOL    HW276056   3.401   9.725   4.095 -1.5634 -2.0390 -0.7965
25160SOL     OW76057   8.451   4.060   9.198 -0.7517  0.3793 -0.3039
25160SOL    HW176058   8.506   4.128   9.237 -0.2311 -0.2647  0.1114
25160SOL    HW276059   8.471   4.064   9.104  1.6170 -1.1824  0.0407
25161SOL     OW76060   4.993   7.026   7.687 -0.0316  0.5739 -0.3675
25161SOL    HW176061   4.906   6.997   7.661  0.0714 -0.1623  0.0726
25161SOL    HW276062   5.049   7.004   7.613 -0.0525  0.1512 -0.2597
25162SOL     OW76063   5.287   1.288   2.020 -0.2361 -0.5286 -0.1283
25162SOL    HW176064   5.345   1.314   2.092 -0.9790 -0.2098  0.3700
25162SOL    HW276065   5.263   1.370   1.977  0.5694 -0.7556 -1.0444
25163SOL     OW76066   7.873   9.959   6.809 -0.6037  0.6744  0.3351
25163SOL    HW176067   7.866   9.930   6.718 -2.1398  1.4769  0.1628
25163SOL    HW276068   7.948   9.911   6.844  0.0967  0.4339 -1.3811
25164SOL     OW76069   2.193   2.922   8.439 -1.1473 -0.1330 -0.3598
25164SOL    HW176070   2.172   2.888   8.351 -0.4567 -1.8576  0.0962
25164SOL    HW276071   2.259   2.861   8.472  0.6979  2.1039  0.2762
25165SOL     OW76072   9.241   1.173   2.314 -0.1084  0.9103  0.4062
25165SOL    HW176073   9.184   1.249   2.306 -1.1149  0.2746  1.2260
25165SOL    HW276074   9.304   1.197   2.381  0.3520  1.4753 -0.2244
25166SOL     OW76075   8.804   8.396   4.192  0.1126  0.4270  0.1069
25166SOL    HW176076   8.840   8.367   4.107 -1.1587 -0.8430 -0.0329
25166SOL    HW276077   8.860   8.353   4.257  0.1681  0.1762 -0.1025
25167SOL     OW76078   0.499   0.154   4.701  0.0949  0.6534  0.3471
25167SOL    HW176079   0.414   0.182   4.733  0.3860  1.0767  0.7544
25167SOL    HW276080   0.562   0.194   4.760  0.5458 -0.3465  0.5689
25168SOL     OW76081   8.481   5.287   8.774 -0.0077  0.1477  0.1159
25168SOL    HW176082   8.500   5.193   8.770 -0.2434  0.0025  1.7805
25168SOL    HW276083   8.567   5.329   8.777  0.1371  0.1086 -1.8501
25169SOL     OW76084   7.571   8.082   3.944 -0.3317 -0.5792  0.5156
25169SOL    HW176085   7.553   8.176   3.950  2.0539  0.0062 -0.2889
25169SOL    HW276086   7.590   8.056   4.034 -1.7018 -0.4952  0.8561
25170SOL     OW76087   3.155   3.781   7.221 -0.5006  0.5011  0.4119
25170SOL    HW176088   3.222   3.845   7.195  2.7428 -2.7351  0.0920
25170SOL    HW276089   3.200   3.722   7.281 -3.0225 -2.0019  0.0557
25171SOL     OW76090   5.564   5.983   7.546 -0.0789 -0.2881  0.5684
25171SOL    HW176091   5.564   5.896   7.586 -1.3682 -0.3999  0.3850
25171SOL    HW276092   5.480   5.988   7.500  0.5551  0.5460 -0.5626
25172SOL     OW76093   5.277   0.084   7.700  0.2334  0.0073 -0.0727
25172SOL    HW176094   5.362   0.096   7.658  0.4347  0.5877  0.4814
25172SOL    HW276095   5.265  -0.010   7.703  0.1260 -0.0577 -1.5860
25173SOL     OW76096   2.636   4.240   7.525  0.0999  0.5353 -0.4634
25173SOL    HW176097   2.640   4.165   7.585 -1.2394  1.0902  0.3670
25173SOL    HW276098   2.703   4.300   7.556 -0.8047  0.9642  0.7211
25174SOL     OW76099   3.830   3.584   5.792  0.5795  0.4340  0.1953
25174SOL    HW176100   3.841   3.490   5.780  1.5506  0.7458 -1.7671
25174SOL    HW276101   3.744   3.604   5.756  1.0629  0.5030 -0.9755
25175SOL     OW76102   5.309   6.360   0.725 -0.2618  0.0297  0.4419
25175SOL    HW176103   5.289   6.393   0.638 -0.9160  1.4805  1.1134
25175SOL    HW276104   5.229   6.376   0.776 -0.5645 -2.4078  0.8998
25176SOL     OW76105   8.867   3.237   9.838  0.2203 -0.4279 -0.1911
25176SOL    HW176106   8.947   3.222   9.889  0.0790 -2.0923 -0.4032
25176SOL    HW276107   8.894   3.298   9.770  1.9109 -2.4080 -1.4482
25177SOL     OW76108   0.035   3.438   4.121  0.1842  0.2729  0.1934
25177SOL    HW176109   0.038   3.358   4.068 -1.6442  0.9861 -1.0849
25177SOL    HW276110  -0.014   3.413   4.199 -1.6184  0.4202 -0.8369
25178SOL     OW76111   3.952   7.573   9.420  0.0381  0.5115  0.2006
25178SOL    HW176112   3.952   7.564   9.324 -1.5097 -0.1004  0.2438
25178SOL    HW276113   3.911   7.659   9.435 -0.5309  0.2192  0.3349
25179SOL     OW76114   9.572   1.976   0.641 -0.1927 -0.3298 -0.0200
25179SOL    HW176115   9.649   2.032   0.656  0.6303 -1.1870 -0.8850
25179SOL    HW276116   9.568   1.920   0.718 -0.4158  0.2221  0.3795
25180SOL     OW76117   3.481   0.453   5.173 -0.1959 -0.0316 -0.1050
25180SOL    HW176118   3.522   0.409   5.249  0.9946 -1.8388 -1.6849
25180SOL    HW276119   3.401   0.492   5.208  0.3022 -0.8247  2.0848
25181SOL     OW76120   6.064   2.706   3.304 -0.2122  0.0859 -0.2154
25181SOL    HW176121   6.033   2.688   3.216 -1.3049 -0.2606  0.2299
25181SOL    HW276122   6.146   2.753   3.291  0.7732 -1.8212 -1.4252
25182SOL     OW76123   7.508   0.732   6.069  0.2004 -0.0919 -0.2427
25182SOL    HW176124   7.517   0.637   6.059 -0.8346 -0.3705  1.1647
25182SOL    HW276125   7.596   0.762   6.092 -0.1203 -1.3036  3.1489
25183SOL     OW76126   4.191   3.014   3.606 -0.2954  1.0234  0.0655
25183SOL    HW176127   4.264   3.020   3.667 -0.2747 -1.9855  0.4869
25183SOL    HW276128   4.166   2.922   3.608 -1.4211  1.1358 -3.2014
25184SOL     OW76129   7.199   1.138   5.614  0.2931  0.1862 -0.1167
25184SOL    HW176130   7.155   1.126   5.530 -2.4678  2.8722  0.7381
25184SOL    HW276131   7.280   1.183   5.593 -0.7256  1.5329 -1.3432
25185SOL     OW76132   7.500   6.505   2.724 -0.1873 -0.2387  0.0754
25185SOL    HW176133   7.438   6.434   2.705 -0.1710 -0.2505  0.0662
25185SOL    HW276134   7.577   6.460   2.760 -0.5722 -0.1388  1.0512
25186SOL     OW76135   6.709   4.527   4.743  0.6415 -0.1345 -0.4561
25186SOL    HW176136   6.643   4.502   4.678 -1.1230  3.2381 -0.1900
25186SOL    HW276137   6.790   4.532   4.694 -0.3310  0.6834 -2.0657
25187SOL     OW76138   3.702   8.615   3.693  0.1205  0.4821  0.4036
25187SOL    HW176139   3.633   8.680   3.676 -0.0311  0.6756  1.6400
25187SOL    HW276140   3.780   8.667   3.712  0.2811  0.2816  0.2967
25188SOL     OW76141   2.904   1.248   3.680 -0.0201  1.1638  0.3507
25188SOL    HW176142   2.935   1.249   3.589 -1.9588  0.8952 -0.3649
25188SOL    HW276143   2.974   1.205   3.729  0.4190 -0.1111 -1.2922
25189SOL     OW76144   7.691   2.582   1.525 -0.1043  0.7259 -0.1786
25189SOL    HW176145   7.768   2.548   1.481  1.3544  2.1294  1.1511
25189SOL    HW276146   7.701   2.556   1.616 -1.0012  1.2567  0.0930
25190SOL     OW76147   6.066   7.848   0.672 -0.0646 -0.0902 -0.1889
25190SOL    HW176148   6.126   7.778   0.645 -0.2197  0.6127 -2.6445
25190SOL    HW276149   5.980   7.816   0.645 -0.2520  0.6132 -0.4303
25191SOL     OW76150   1.618   8.575   7.648  0.2651  0.1188 -0.3987
25191SOL    HW176151   1.598   8.658   7.606 -1.7325 -0.4225 -0.6151
25191SOL    HW276152   1.617   8.594   7.742 -0.2227  0.3412 -0.4459
25192SOL     OW76153   5.830   0.969   2.125 -0.0083  0.9333  0.5175
25192SOL    HW176154   5.817   1.019   2.044 -0.3353 -1.9923 -1.3824
25192SOL    HW276155   5.749   0.919   2.135  1.1152 -0.8606  1.0609
25193SOL     OW76156   1.359   8.618   0.570 -0.3901  0.1502  0.2412
25193SOL    HW176157   1.435   8.577   0.530  0.1165  0.4721  0.8635
25193SOL    HW276158   1.345   8.698   0.519 -1.4069 -0.7679 -1.0050
25194SOL     OW76159   2.627   2.233   2.038  0.6144 -0.4333  0.3651
25194SOL    HW176160   2.717   2.264   2.026  0.8072 -0.6802  1.1147
25194SOL    HW276161   2.579   2.267   1.962  1.1982  0.2377  0.2933
25195SOL     OW76162   6.280   4.825   6.483 -0.3512 -0.6402  0.1969
25195SOL    HW176163   6.298   4.815   6.390  1.4866  0.8248  0.3379
25195SOL    HW276164   6.184   4.825   6.489 -0.5330  0.4754 -1.8415
25196SOL     OW76165   7.785   8.884   6.503  0.2625  0.3815  0.3234
25196SOL    HW176166   7.750   8.972   6.516  0.6470  0.5319  0.3505
25196SOL    HW276167   7.875   8.898   6.474  0.1986  0.0044 -0.0721
25197SOL     OW76168   4.165   3.379   4.523 -0.1067  0.0485  0.3694
25197SOL    HW176169   4.222   3.304   4.507 -0.4330  0.1751 -1.5558
25197SOL    HW276170   4.223   3.447   4.556  0.6827 -0.1637 -0.5341
25198SOL     OW76171   2.054   3.064   9.151  0.2059 -0.3229 -0.4252
25198SOL    HW176172   2.004   2.996   9.197 -1.2866  1.0832  0.1437
25198SOL    HW276173   2.022   3.061   9.061 -0.4475  0.1466 -0.2119
25199SOL     OW76174   6.363   6.505   7.105 -0.0806  0.5453 -0.8564
25199SOL    HW176175   6.422   6.508   7.030  2.3343 -0.2325  0.9150
25199SOL    HW276176   6.398   6.569   7.166 -2.3706  1.6289 -0.5477
25200SOL     OW76177   8.740   3.442   3.729  0.8245 -0.2244  0.4383
25200SOL    HW176178   8.672   3.500   3.694  0.7481  0.5516  1.8165
25200SOL    HW276179   8.819   3.464   3.679  0.5564  0.3681  0.2774
25201SOL     OW76180   9.192   9.237   0.734 -0.0615  0.6828  0.6870
25201SOL    HW176181   9.217   9.156   0.690 -1.9409  0.2290  0.3439
25201SOL    HW276182   9.270   9.292   0.732  1.2019 -1.0367  0.7553
25202SOL     OW76183   1.652   1.060   1.913 -0.4757  0.4272 -0.1156
25202SOL    HW176184   1.701   1.139   1.935 -0.3269  1.0067 -2.3079
25202SOL    HW276185   1.718   0.996   1.886 -0.7605  0.4349 -0.8551
25203SOL     OW76186   1.064   6.336   4.056 -0.2702 -0.1977  0.3272
25203SOL    HW176187   1.101   6.422   4.079  0.1688 -0.4114  0.4409
25203SOL    HW276188   1.114   6.274   4.109  0.5265 -0.6671 -0.9138
25204SOL     OW76189   0.040   1.495   3.748  0.2157 -0.4399  0.2542
25204SOL    HW176190   0.068   1.472   3.836  0.8375 -0.3873  0.0740
25204SOL    HW276191   0.102   1.451   3.690  0.4748  0.3937 -0.1308
25205SOL     OW76192   2.051   7.931   4.989 -0.2604  0.0614 -0.4929
25205SOL    HW176193   2.146   7.944   4.981 -0.0360 -1.6062 -1.0972
25205SOL    HW276194   2.016   7.957   4.904 -0.1748 -0.4258 -0.6844
25206SOL     OW76195   1.556   2.295   2.939  0.2032  0.1332  0.5293
25206SOL    HW176196   1.515   2.262   3.019  1.1939  1.0644  1.4628
25206SOL    HW276197   1.598   2.377   2.965 -1.0919  1.4959 -1.4151
25207SOL     OW76198   6.616   3.075   0.532 -0.4624  0.0543 -0.2307
25207SOL    HW176199   6.643   3.053   0.443 -1.4550 -1.7638 -0.1380
25207SOL    HW276200   6.698   3.096   0.577  0.4451 -1.8445 -0.8608
25208SOL     OW76201   7.624   1.317   6.760 -0.7418 -0.0771 -0.0216
25208SOL    HW176202   7.563   1.295   6.690 -1.0813  1.3816 -0.2255
25208SOL    HW276203   7.588   1.397   6.799  0.6720  0.4539  0.2690
25209SOL     OW76204   9.289   8.807   6.234  0.2017 -0.2436  0.5151
25209SOL    HW176205   9.344   8.732   6.216 -0.4599 -0.5715 -0.1584
25209SOL    HW276206   9.259   8.837   6.149  0.0175  0.4540  0.8138
25210SOL     OW76207   4.453   8.659   2.337 -0.0695 -0.3057  0.0728
25210SOL    HW176208   4.497   8.580   2.370  3.7503  1.6845  0.2508
25210SOL    HW276209   4.410   8.696   2.415  0.7254 -0.6118  0.6705
25211SOL     OW76210   2.821   3.350   0.347  0.0284  0.1375 -0.2978
25211SOL    HW176211   2.838   3.437   0.381 -0.6082 -0.1270  0.7500
25211SOL    HW276212   2.827   3.359   0.252  0.2075  1.2600 -0.1864
25212SOL     OW76213   5.078   3.719   8.922 -0.3551  0.1435  0.1328
25212SOL    HW176214   4.985   3.724   8.904 -0.6079  1.3958  1.5341
25212SOL    HW276215   5.083   3.682   9.010  0.5011 -0.4060 -0.1378
25213SOL     OW76216   0.510   0.325   7.820 -0.1059  0.1443  0.1584
25213SOL    HW176217   0.475   0.312   7.908 -1.1892  0.7105 -0.1590
25213SOL    HW276218   0.603   0.344   7.832 -0.3268  0.6039  1.2155
25214SOL     OW76219   0.958   6.756   3.905  0.1730  0.5802 -0.2806
25214SOL    HW176220   0.871   6.794   3.909 -0.5971 -1.1982  1.8937
25214SOL    HW276221   0.997   6.776   3.991  0.1975 -2.2647  0.4694
25215SOL     OW76222   1.284   4.639   9.587  0.1673 -0.3080  0.2273
25215SOL    HW176223   1.235   4.558   9.591  0.0705 -0.3560 -1.2747
25215SOL    HW276224   1.239   4.698   9.648 -1.7268 -0.3709 -1.0334
25216SOL     OW76225   8.084   8.889   6.491 -0.1399  0.0761 -0.0152
25216SOL    HW176226   8.109   8.981   6.479  0.1551 -0.1741 -1.6138
25216SOL    HW276227   8.167   8.842   6.499 -0.2816 -0.0794  0.5302
25217SOL     OW76228   1.487   1.341   6.409  0.3056 -0.4557  0.2961
25217SOL    HW176229   1.413   1.290   6.375  0.5836  0.1371 -1.2723
25217SOL    HW276230   1.564   1.289   6.388  0.5238  0.1775 -0.5187
25218SOL     OW76231   1.570   4.698   2.442  0.3587 -0.0227 -0.1427
25218SOL    HW176232   1.589   4.789   2.422  0.3578 -0.1602 -0.8024
25218SOL    HW276233   1.525   4.665   2.364 -1.1497 -0.1384  0.7284
25219SOL     OW76234   0.231   6.637   9.219 -0.5368  0.0161  0.3630
25219SOL    HW176235   0.300   6.677   9.273 -1.3585  0.6522  0.9751
25219SOL    HW276236   0.192   6.712   9.173  0.1844 -0.5165 -1.1970
25220SOL     OW76237   9.366   3.561   0.318  0.0130  0.4287 -0.1119
25220SOL    HW176238   9.391   3.622   0.249  0.6599  0.9427  0.5631
25220SOL    HW276239   9.277   3.586   0.342 -0.7449 -0.5978 -1.6467
25221SOL     OW76240   9.000   1.444   8.237 -0.0940  0.1278 -0.2586
25221SOL    HW176241   8.909   1.414   8.229  0.3088 -0.8996 -1.1731
25221SOL    HW276242   8.993   1.526   8.286 -1.7303  1.1012 -1.9734
25222SOL     OW76243   3.781   6.333   4.855 -0.2933 -0.3802 -0.1892
25222SOL    HW176244   3.777   6.257   4.797 -2.5103 -1.2415  0.9705
25222SOL    HW276245   3.726   6.309   4.929 -0.2195  1.9857  0.7070
25223SOL     OW76246   3.271   8.999   0.379 -0.2892  0.3543 -0.8620
25223SOL    HW176247   3.346   9.057   0.363  0.6480 -0.5860 -0.0237
25223SOL    HW276248   3.310   8.913   0.392 -1.5185 -0.1279 -0.2209
25224SOL     OW76249   1.757   5.697   7.784  0.8938  0.7608 -0.5004
25224SOL    HW176250   1.710   5.690   7.867 -0.0617  0.8167 -1.0236
25224SOL    HW276251   1.825   5.629   7.789 -0.4129 -0.6060 -0.4717
25225SOL     OW76252   5.141   7.506   4.240  0.7482 -0.1371 -0.0883
25225SOL    HW176253   5.201   7.559   4.186  1.9918  1.3365  2.5467
25225SOL    HW276254   5.199   7.457   4.298 -0.5494 -1.8161 -0.1562
25226SOL     OW76255   0.941   9.805   2.570  0.4917  0.0352 -0.1776
25226SOL    HW176256   0.991   9.770   2.497 -1.7015 -0.4183 -1.5709
25226SOL    HW276257   0.963   9.898   2.573  1.7678 -0.2437 -0.3829
25227SOL     OW76258   9.482   0.499   4.582  0.0084 -0.4865  1.1023
25227SOL    HW176259   9.487   0.561   4.655  0.5309  0.2793  0.4317
25227SOL    HW276260   9.570   0.497   4.545 -0.2076 -0.9909  0.5920
25228SOL     OW76261   9.199   7.081   4.822  0.6073  0.1628 -0.0398
25228SOL    HW176262   9.287   7.051   4.847 -0.1701 -0.1538  2.6283
25228SOL    HW276263   9.206   7.176   4.816  1.3260  0.0758 -0.8723
25229SOL     OW76264   3.165   3.757   8.568  0.1269  0.4780 -0.1562
25229SOL    HW176265   3.122   3.716   8.492 -1.5313 -0.0696  1.0261
25229SOL    HW276266   3.139   3.849   8.562 -0.7326  0.2656  0.2164
25230SOL     OW76267   5.324   1.635   8.394 -0.3911 -0.3460 -0.1712
25230SOL    HW176268   5.295   1.718   8.358 -1.2391 -1.2188 -1.6022
25230SOL    HW276269   5.405   1.614   8.346  0.9163  0.5339  1.5414
25231SOL     OW76270   7.877   7.097   3.804 -1.0357 -0.1144  0.1047
25231SOL    HW176271   7.951   7.050   3.765  0.6190  1.9233  0.5957
25231SOL    HW276272   7.876   7.070   3.895 -0.0779  0.7513  0.3897
25232SOL     OW76273   8.865   6.395   0.867  0.7272 -0.3467 -0.3314
25232SOL    HW176274   8.817   6.375   0.787  0.3595 -1.1527  0.0791
25232SOL    HW276275   8.840   6.326   0.928  1.0224  0.2409  0.4727
25233SOL     OW76276   8.064   6.171   0.514 -0.1273 -0.2508 -0.1727
25233SOL    HW176277   8.151   6.145   0.546 -0.4537 -0.7039  0.3673
25233SOL    HW276278   8.082   6.234   0.444  0.6539 -0.7809 -0.4645
25234SOL     OW76279   8.834   3.347   2.784  0.2687 -0.0725 -0.3637
25234SOL    HW176280   8.832   3.388   2.871 -0.0816 -1.3148  0.2445
25234SOL    HW276281   8.774   3.272   2.792 -0.7520  0.5213 -2.0568
25235SOL     OW76282   0.609   7.620   7.467 -0.0566  0.1163  0.6692
25235SOL    HW176283   0.624   7.528   7.487  1.6653  0.2268  0.0461
25235SOL    HW276284   0.625   7.628   7.373  3.6073  1.6390  1.2413
25236SOL     OW76285   7.301   0.348   1.277  0.2623 -0.0531 -0.0264
25236SOL    HW176286   7.214   0.310   1.289  0.2105 -0.4495 -1.4940
25236SOL    HW276287   7.289   0.441   1.298 -1.0168  0.3134 -2.1086
25237SOL     OW76288   1.477   0.458   6.799  0.3142 -0.3476  0.1740
25237SOL    HW176289   1.430   0.445   6.717 -0.7260  0.4791  0.6142
25237SOL    HW276290   1.517   0.544   6.789  0.6030 -0.4641  0.3389
25238SOL     OW76291   3.931   9.094   1.000 -0.2908  0.2615  0.0869
25238SOL    HW176292   3.937   9.016   0.945 -3.7939 -0.7557  0.9087
25238SOL    HW276293   3.968   9.068   1.084  1.0400  0.4071 -0.4368
25239SOL     OW76294   0.523   6.102   9.709  0.7231  0.0870  0.1966
25239SOL    HW176295   0.545   6.012   9.734  0.6353 -0.3335 -1.1307
25239SOL    HW276296   0.535   6.103   9.614  0.1731  1.3319  0.1286
25240SOL     OW76297   1.734   8.944   4.009  0.0030 -0.2883 -0.2862
25240SOL    HW176298   1.643   8.916   4.018  0.1449 -0.8663 -0.6040
25240SOL    HW276299   1.784   8.879   4.058  0.2267  0.1922  0.1333
25241SOL     OW76300   9.619   2.626   8.727 -0.2139  0.0284  0.8621
25241SOL    HW176301   9.593   2.708   8.768 -0.4581  0.9835 -1.0957
25241SOL    HW276302   9.715   2.629   8.726 -0.1849  1.9000 -2.0637
25242SOL     OW76303   2.445   5.257   2.228 -0.0782  0.8245 -0.3574
25242SOL    HW176304   2.536   5.285   2.232 -0.3132  1.7099 -0.7567
25242SOL    HW276305   2.427   5.218   2.313  1.2318 -1.2465 -0.9477
25243SOL     OW76306   1.707   0.543   3.659  0.0086 -0.0392  0.4241
25243SOL    HW176307   1.789   0.506   3.628 -0.9181 -1.9611  0.1189
25243SOL    HW276308   1.643   0.518   3.592 -0.8755  1.2978  0.7184
25244SOL     OW76309   7.072   9.973   6.680  0.5224  0.6996 -0.1321
25244SOL    HW176310   7.062   9.878   6.671 -0.2131  0.4850  2.1430
25244SOL    HW276311   7.151   9.984   6.732 -0.0993  1.2179  0.7423
25245SOL     OW76312   9.309   4.949   8.897  0.2263  0.9329 -0.2390
25245SOL    HW176313   9.274   4.889   8.831  2.8107 -1.6164  0.4684
25245SOL    HW276314   9.232   4.989   8.937 -1.5446 -0.1706 -2.3123
25246SOL     OW76315   1.877   6.760   6.688  0.2927  0.7763  0.0939
25246SOL    HW176316   1.962   6.788   6.722  0.2373  2.1053 -0.7986
25246SOL    HW276317   1.841   6.703   6.756  0.4620  2.7870  1.9687
25247SOL     OW76318   4.197   7.675   5.874 -0.4258 -0.2339 -0.3496
25247SOL    HW176319   4.287   7.706   5.881 -0.3368 -0.5698  0.0078
25247SOL    HW276320   4.165   7.673   5.965 -0.5981 -0.6994 -0.4194
25248SOL     OW76321   9.969   2.999   5.463  0.3713  0.1411  0.5698
25248SOL    HW176322   9.900   2.967   5.404  1.0472 -0.0278 -0.1333
25248SOL    HW276323   9.954   2.952   5.545 -0.1760 -0.1045  0.3320
25249SOL     OW76324   0.782   0.553   5.142 -0.4703 -0.3430  0.1752
25249SOL    HW176325   0.787   0.458   5.152 -0.6722 -0.4221 -0.4267
25249SOL    HW276326   0.854   0.575   5.083 -0.8379 -0.2121 -0.2295
25250SOL     OW76327   7.899   2.668   9.699 -0.3449 -0.0923  0.8355
25250SOL    HW176328   7.848   2.731   9.648 -1.1593  0.5330  2.3476
25250SOL    HW276329   7.914   2.595   9.638 -1.4630  0.5158 -0.2248
25251SOL     OW76330   2.672   4.223   3.190  0.2430  0.7896  0.4841
25251SOL    HW176331   2.633   4.305   3.158 -0.8993 -0.2804 -1.0258
25251SOL    HW276332   2.760   4.247   3.219 -0.3362  2.6775  0.8157
25252SOL     OW76333   9.904   6.983   9.436 -0.3216  0.9107  0.0454
25252SOL    HW176334   9.924   6.892   9.455 -0.1765  1.0031  0.3396
25252SOL    HW276335   9.820   6.999   9.479 -0.3593  0.9087 -0.0274
25253SOL     OW76336   2.472   1.456   9.421  0.5070 -0.0372 -0.1964
25253SOL    HW176337   2.515   1.406   9.352 -0.4027 -0.1718 -0.6786
25253SOL    HW276338   2.459   1.543   9.383 -1.0652 -0.4456 -0.6521
25254SOL     OW76339   7.740   5.224   1.465  0.1396  0.2249 -0.5772
25254SOL    HW176340   7.650   5.239   1.435  0.2407  0.2310 -0.8775
25254SOL    HW276341   7.777   5.312   1.474 -0.3285  0.3057  0.9417
25255SOL     OW76342   4.104   1.066   0.403 -0.6461 -0.6063 -0.4730
25255SOL    HW176343   4.186   1.067   0.454 -0.5621 -1.5597 -0.5844
25255SOL    HW276344   4.077   1.158   0.400 -1.8023 -0.6913  3.1081
25256SOL     OW76345   6.312   2.294   0.860  0.5392 -0.0391  0.2432
25256SOL    HW176346   6.256   2.289   0.783  0.7219 -0.8014  0.1533
25256SOL    HW276347   6.263   2.348   0.922  0.8723  1.5385 -0.8065
25257SOL     OW76348   2.859   2.113   3.372  0.6528  0.3823 -0.2854
25257SOL    HW176349   2.859   2.205   3.347 -1.4081 -0.2294 -3.0557
25257SOL    HW276350   2.779   2.102   3.424  0.3934 -0.0001 -0.7568
25258SOL     OW76351   2.245   1.796   3.771  0.5183 -0.8837 -0.6819
25258SOL    HW176352   2.291   1.786   3.854 -0.3400  0.1614 -0.0514
25258SOL    HW276353   2.315   1.802   3.706  1.2641 -0.0858  0.1659
25259SOL     OW76354   4.475   0.622   1.103  0.2984  0.0706 -0.6101
25259SOL    HW176355   4.420   0.700   1.111 -0.1161 -0.1468 -1.1981
25259SOL    HW276356   4.494   0.616   1.009  0.1720 -0.6338 -0.5956
25260SOL     OW76357   9.836   8.344   9.175 -0.0926 -0.1307  0.1832
25260SOL    HW176358   9.784   8.357   9.254 -0.3698  0.3218 -0.0716
25260SOL    HW276359   9.772   8.341   9.104  0.1546 -0.5342 -0.0283
25261SOL     OW76360   5.480   9.171   0.183 -0.1036 -0.2921 -0.3576
25261SOL    HW176361   5.458   9.093   0.235  0.5527 -1.1360 -1.2980
25261SOL    HW276362   5.404   9.228   0.192 -0.9406 -1.3776 -0.2689
25262SOL     OW76363   5.534   3.126   6.291 -0.1772 -0.1150  0.1728
25262SOL    HW176364   5.564   3.036   6.276 -0.8330 -0.7903  2.5499
25262SOL    HW276365   5.475   3.144   6.217  1.3042 -0.9410 -1.2926
25263SOL     OW76366   9.506   2.410   6.731 -0.0547  0.1324  0.5665
25263SOL    HW176367   9.495   2.376   6.642  1.7319 -0.8274  0.6799
25263SOL    HW276368   9.437   2.366   6.782  0.2184 -0.9243  0.0538
25264SOL     OW76369   9.047   7.659   1.055  0.7193  0.6130 -0.8871
25264SOL    HW176370   9.073   7.688   1.142 -1.5947 -0.9348  0.4326
25264SOL    HW276371   9.089   7.721   0.995  2.6071  1.5525  1.2838
25265SOL     OW76372   8.470   3.442   7.434 -0.1733  0.1517 -0.6347
25265SOL    HW176373   8.497   3.533   7.436  0.5098 -0.0543 -0.2984
25265SOL    HW276374   8.523   3.403   7.364  1.5337 -0.5931  1.0122
25266SOL     OW76375   5.079   8.039   0.262 -0.8926 -0.2308 -0.0210
25266SOL    HW176376   5.044   8.036   0.351 -2.6493  0.0142 -0.6540
25266SOL    HW276377   5.123   7.954   0.251 -0.3646 -0.1299  1.1727
25267SOL     OW76378   4.096   7.085   0.393  0.1779 -0.2239  0.0610
25267SOL    HW176379   4.132   7.158   0.443  0.0879 -0.9044  1.1384
25267SOL    HW276380   4.105   7.113   0.302  0.5818  0.9258  0.4293
25268SOL     OW76381   1.203   2.342   8.090 -0.0682 -0.0405 -0.7672
25268SOL    HW176382   1.172   2.406   8.026  0.8290  1.5094  0.2671
25268SOL    HW276383   1.296   2.363   8.102 -0.0910 -0.6070  0.6526
25269SOL     OW76384   7.922   1.152   1.217 -0.2812 -0.1231  0.3026
25269SOL    HW176385   8.012   1.167   1.186 -0.2876  0.7000  0.6581
25269SOL    HW276386   7.910   1.057   1.210  0.5410 -0.2181  0.0409
25270SOL     OW76387   4.534   0.092   8.657 -0.6834  0.1950 -0.0609
25270SOL    HW176388   4.504   0.002   8.645 -1.8158  0.4990  0.3813
25270SOL    HW276389   4.496   0.140   8.585  1.6452 -0.0170 -1.5506
25271SOL     OW76390   8.922   1.193   7.858  0.3566  0.1691  0.0234
25271SOL    HW176391   8.912   1.173   7.951  0.3935  0.3876  0.0749
25271SOL    HW276392   8.935   1.108   7.816 -1.3365 -0.1254  0.0016
25272SOL     OW76393   5.718   7.489   0.725 -0.1344  0.6178 -0.7227
25272SOL    HW176394   5.775   7.564   0.711 -0.4732  1.0751  0.2748
25272SOL    HW276395   5.653   7.495   0.654  0.7224  0.3820 -1.5530
25273SOL     OW76396   9.155   6.074   3.446 -0.3431 -0.4590  0.1475
25273SOL    HW176397   9.092   6.002   3.443  0.4286 -1.1090 -1.4661
25273SOL    HW276398   9.216   6.050   3.517 -2.0357  0.3527  1.9728
25274SOL     OW76399   7.276   7.396   5.367 -0.5011 -0.2604 -0.4328
25274SOL    HW176400   7.243   7.315   5.404 -0.4043  0.0513  0.3576
25274SOL    HW276401   7.367   7.400   5.397 -0.9131  0.8384  0.7700
25275SOL     OW76402   0.842   8.834   0.962  0.0626 -0.5639  0.0764
25275SOL    HW176403   0.765   8.786   0.934 -0.9389  1.0958 -0.1590
25275SOL    HW276404   0.879   8.782   1.033 -1.4106 -1.2704  0.3457
25276SOL     OW76405   7.833   7.172   3.456 -0.4566 -0.1057  0.8347
25276SOL    HW176406   7.892   7.097   3.459 -0.9519 -0.5052  0.6848
25276SOL    HW276407   7.780   7.158   3.378 -0.2756  0.6125  0.5790
25277SOL     OW76408   3.177   3.616   8.280 -0.0809  0.0022  0.0974
25277SOL    HW176409   3.132   3.600   8.364 -0.4626 -1.3793 -0.3514
25277SOL    HW276410   3.255   3.561   8.284  0.1425  0.2908 -0.2677
25278SOL     OW76411   2.556   0.280   2.330 -0.6148  0.1046 -0.9834
25278SOL    HW176412   2.554   0.361   2.279 -0.3570  0.7565  0.0078
25278SOL    HW276413   2.649   0.269   2.352  0.1718 -2.8576 -4.7609
25279SOL     OW76414   1.767   4.117   2.586  0.2756  0.2152  0.5736
25279SOL    HW176415   1.775   4.203   2.629 -0.5317  0.1500  0.8727
25279SOL    HW276416   1.675   4.112   2.560  0.6909  0.1237 -0.9303
25280SOL     OW76417   0.757   5.065   5.057  0.5536 -0.1973  0.2032
25280SOL    HW176418   0.732   5.016   4.979  2.9269 -1.0214 -0.1286
25280SOL    HW276419   0.742   5.004   5.130  0.8033 -0.4000  0.0889
25281SOL     OW76420   4.294   3.666   6.346  0.5093 -0.4089 -0.0873
25281SOL    HW176421   4.385   3.637   6.337  0.9859  1.1998 -0.7645
25281SOL    HW276422   4.288   3.700   6.435  0.4029 -1.0474  0.1528
25282SOL     OW76423   2.666   0.554   3.102  0.3418  0.4118  0.2136
25282SOL    HW176424   2.584   0.509   3.083  1.0558 -0.3691 -1.1368
25282SOL    HW276425   2.639   0.638   3.140 -1.0358 -0.6236  1.6600
25283SOL     OW76426   4.147   0.683   4.417 -0.0058  0.4762  0.1956
25283SOL    HW176427   4.188   0.659   4.500 -0.5430 -0.0013  0.3278
25283SOL    HW276428   4.220   0.692   4.356  0.2228 -1.7923  0.0625
25284SOL     OW76429   7.520   2.755   7.396 -0.4803 -0.4298  0.5978
25284SOL    HW176430   7.487   2.775   7.484  0.9005 -0.1161  1.0736
25284SOL    HW276431   7.576   2.678   7.409  2.0903  1.3157  0.5806
25285SOL     OW76432   5.562   3.568   8.140 -0.2803 -0.3249 -0.0106
25285SOL    HW176433   5.481   3.619   8.155  0.5268  1.2399 -0.6845
25285SOL    HW276434   5.555   3.494   8.200 -2.6568 -0.7536 -0.7134
25286SOL     OW76435   8.458   0.388   2.376 -0.6881  0.4927 -0.2311
25286SOL    HW176436   8.534   0.444   2.393 -0.5580  0.2921 -0.1432
25286SOL    HW276437   8.495   0.308   2.339 -0.8944  0.5564 -0.5767
25287SOL     OW76438   5.168   1.048   3.246 -0.2578 -0.2945  0.3679
25287SOL    HW176439   5.203   0.968   3.206  1.0836 -1.1945  3.1266
25287SOL    HW276440   5.241   1.084   3.296 -1.9091  0.5623  2.2837
25288SOL     OW76441   5.801   1.848   2.037 -0.2757 -0.2289  0.4987
25288SOL    HW176442   5.841   1.896   2.110 -0.5887 -0.5892  0.9152
25288SOL    HW276443   5.720   1.814   2.073  0.2848 -1.6894  0.4458
25289SOL     OW76444   0.851   3.117   0.877 -0.3537  0.0395  0.0995
25289SOL    HW176445   0.796   3.055   0.829  1.1587 -0.5335 -0.9774
25289SOL    HW276446   0.937   3.110   0.835  0.2729  1.6917  1.0159
25290SOL     OW76447   3.546   4.522   5.533  0.0858  0.2811 -0.0475
25290SOL    HW176448   3.571   4.453   5.471  0.7233  0.1401  0.3605
25290SOL    HW276449   3.491   4.477   5.597 -1.0450  0.5354 -0.7875
25291SOL     OW76450   1.049   3.495   6.361 -0.2175 -0.5971 -0.1218
25291SOL    HW176451   1.016   3.405   6.361 -1.2800 -0.2123  0.0353
25291SOL    HW276452   1.145   3.485   6.361 -0.2691 -1.7416 -2.3157
25292SOL     OW76453   7.556   9.189   6.381  0.2255 -0.5198  0.6040
25292SOL    HW176454   7.618   9.189   6.454  0.7737  3.2256  0.3302
25292SOL    HW276455   7.604   9.229   6.309 -2.0708  1.3018 -0.0180
25293SOL     OW76456   4.137   8.372   3.974  0.0097  0.3984  0.1216
25293SOL    HW176457   4.166   8.373   3.883  0.5992  0.1270  0.3096
25293SOL    HW276458   4.212   8.402   4.024 -1.0061  2.8733  0.3274
25294SOL     OW76459   2.346   9.950   3.671  0.3115  0.1570  0.1457
25294SOL    HW176460   2.360   9.890   3.597 -2.5361  0.6236 -0.9026
25294SOL    HW276461   2.400  10.026   3.650  0.2403 -0.0935 -1.0501
25295SOL     OW76462   1.821   2.497   5.391 -0.4133 -0.2996 -0.3812
25295SOL    HW176463   1.857   2.460   5.472 -0.3141 -2.2954 -1.2976
25295SOL    HW276464   1.891   2.488   5.327 -1.2290 -0.7374 -1.2313
25296SOL     OW76465   1.856   5.864   3.962 -0.1683 -0.3051 -0.1337
25296SOL    HW176466   1.906   5.844   3.883 -0.2274 -2.6275  0.3525
25296SOL    HW276467   1.809   5.945   3.941  1.6049  0.4198 -1.6043
25297SOL     OW76468   0.389   0.402   7.240  0.5063 -0.1449  0.1656
25297SOL    HW176469   0.313   0.406   7.298  0.4924 -0.7553  0.1875
25297SOL    HW276470   0.411   0.309   7.234  0.1855 -0.1523 -1.2137
25298SOL     OW76471   4.370   1.104   1.555  0.2040 -1.0783 -0.3834
25298SOL    HW176472   4.328   1.129   1.473 -0.0408  0.7773  0.2654
25298SOL    HW276473   4.299   1.102   1.619  0.5071 -1.7902 -0.0609
25299SOL     OW76474   9.581   5.358   5.390 -0.3136 -0.3664  0.0588
25299SOL    HW176475   9.596   5.284   5.450 -0.0409  0.7894  1.4688
25299SOL    HW276476   9.552   5.429   5.446 -0.1119  0.7548 -1.2073
25300SOL     OW76477   7.180   6.267   4.615 -0.0509 -0.3884 -0.0178
25300SOL    HW176478   7.151   6.339   4.671 -1.9515 -0.0979 -1.2990
25300SOL    HW276479   7.136   6.190   4.650  1.7645 -0.9615  1.1789
25301SOL     OW76480   3.151   0.852   5.184  0.2661 -0.4208  0.0031
25301SOL    HW176481   3.099   0.784   5.225 -1.0076  0.7450  0.3934
25301SOL    HW276482   3.121   0.853   5.093 -1.7568  1.4099  0.6083
25302SOL     OW76483   9.680   7.335   2.567 -0.5270  0.2984 -0.0611
25302SOL    HW176484   9.599   7.382   2.545 -0.9547  0.3972  1.5771
25302SOL    HW276485   9.749   7.387   2.525 -1.1582  1.2885  0.0731
25303SOL     OW76486   1.894   6.464   7.928  0.1234 -0.2098 -0.2499
25303SOL    HW176487   1.815   6.411   7.933 -0.0372  0.0859  0.5337
25303SOL    HW276488   1.907   6.496   8.017  0.1636  1.1239 -0.7061
25304SOL     OW76489   9.030   5.413   4.621  0.5747  0.2637 -0.3966
25304SOL    HW176490   8.995   5.398   4.533  0.3439 -1.4023 -0.0613
25304SOL    HW276491   9.121   5.384   4.616  0.2750 -0.8329  0.1456
25305SOL     OW76492   4.119   9.031   1.224  0.5601  0.1348 -0.5241
25305SOL    HW176493   4.142   8.949   1.268 -0.2374  0.1629 -0.0202
25305SOL    HW276494   4.168   9.030   1.142  1.4132 -0.3236 -0.0124
25306SOL     OW76495   6.939   6.409   0.354 -0.2665  0.2584 -0.5515
25306SOL    HW176496   6.984   6.335   0.314 -2.0933 -1.4138  0.3029
25306SOL    HW276497   6.907   6.375   0.438 -1.3631  1.9555 -0.2379
25307SOL     OW76498   6.418   6.446   0.796 -0.6214  0.1072 -0.3056
25307SOL    HW176499   6.462   6.364   0.816  0.4338 -0.1480 -3.1908
25307SOL    HW276500   6.488   6.512   0.794 -1.0856  0.6068 -0.4127
25308SOL     OW76501   9.718   2.046   9.122  0.0523 -0.0485 -0.3097
25308SOL    HW176502   9.754   2.074   9.038 -0.5237 -1.7474 -1.1789
25308SOL    HW276503   9.677   1.962   9.103 -0.9751  0.0038  1.4732
25309SOL     OW76504   8.317   7.108   6.135  0.3972 -0.3209  0.1211
25309SOL    HW176505   8.378   7.120   6.062  0.8024  0.9577  0.6400
25309SOL    HW276506   8.351   7.164   6.204 -1.7805  1.0481  0.1786
25310SOL     OW76507   0.741   7.256   4.975  0.0164  0.1522 -0.0988
25310SOL    HW176508   0.761   7.163   4.967  0.9003  0.3232  0.0447
25310SOL    HW276509   0.825   7.300   4.961  0.3619  0.8000  3.2640
25311SOL     OW76510   8.226   2.368   8.741 -0.2520 -0.3117 -0.1812
25311SOL    HW176511   8.305   2.327   8.776  1.3906  1.2097 -1.9010
25311SOL    HW276512   8.216   2.331   8.653 -1.7959 -0.8679  0.1963
25312SOL     OW76513   2.990   8.140   1.900 -0.5375  0.0148 -0.1121
25312SOL    HW176514   2.907   8.113   1.940  0.2075  0.5032  1.8548
25312SOL    HW276515   2.964   8.200   1.830 -1.9600 -1.9286 -1.3865
25313SOL     OW76516   4.781   9.004   5.935  0.4296 -0.6983  0.0879
25313SOL    HW176517   4.822   8.918   5.941 -0.1109 -1.1602 -2.0096
25313SOL    HW276518   4.854   9.064   5.920  0.7632 -0.8244  1.1245
25314SOL     OW76519   6.751   6.966   5.751  0.2164 -0.0798 -1.0429
25314SOL    HW176520   6.789   7.051   5.730  2.0999 -0.8547 -0.9243
25314SOL    HW276521   6.732   6.926   5.666 -0.5340  0.3721 -1.0989
25315SOL     OW76522   5.018   0.022   3.922 -0.3945 -0.5060  0.4297
25315SOL    HW176523   5.099   0.043   3.967  0.1371 -1.3875 -0.0809
25315SOL    HW276524   4.965  -0.024   3.987 -0.4128 -0.1021  0.7049
25316SOL     OW76525   2.716   4.789   6.245 -0.9281  0.0330 -0.4973
25316SOL    HW176526   2.642   4.809   6.301 -0.4097  0.4580  0.0443
25316SOL    HW276527   2.712   4.854   6.175 -2.1549 -1.1024 -1.5497
25317SOL     OW76528   2.787   4.577   5.708  0.0291 -0.1537  0.0392
25317SOL    HW176529   2.803   4.490   5.671  0.8588  0.4828 -1.1817
25317SOL    HW276530   2.703   4.604   5.671 -0.1937 -0.3893  0.3618
25318SOL     OW76531   9.795   0.221   3.396 -0.8735 -0.6901  0.0479
25318SOL    HW176532   9.733   0.294   3.403 -0.2009 -0.2540  2.4738
25318SOL    HW276533   9.740   0.144   3.384 -1.8124 -0.1445  0.7308
25319SOL     OW76534   3.009   1.972   2.006 -0.2702  0.1434 -0.1572
25319SOL    HW176535   2.987   2.050   2.057 -0.3671  0.6537 -0.9538
25319SOL    HW276536   2.996   1.999   1.915  1.3508 -0.2698 -0.5355
25320SOL     OW76537   1.996   6.946   3.422  0.6331 -0.8746  0.1400
25320SOL    HW176538   1.963   7.036   3.420  1.2579 -0.6413  0.2452
25320SOL    HW276539   1.917   6.892   3.413  0.3158 -0.3104 -0.5890
25321SOL     OW76540   9.746   0.965   5.789  0.0649  0.3640 -0.1979
25321SOL    HW176541   9.775   0.894   5.732 -0.9761  0.4843 -0.9114
25321SOL    HW276542   9.762   1.044   5.738  1.3836  0.6769  0.6608
25322SOL     OW76543   1.933   4.661   8.993 -0.2309  0.0763 -0.0548
25322SOL    HW176544   1.933   4.599   9.066  0.5806 -0.6893 -0.6843
25322SOL    HW276545   1.880   4.619   8.926 -0.5804  0.5676 -0.0947
25323SOL     OW76546   0.699   1.863   3.618 -0.3265 -0.3434  0.0794
25323SOL    HW176547   0.713   1.901   3.532  0.9971  0.5790  0.6579
25323SOL    HW276548   0.610   1.830   3.616 -0.4984  0.1375 -1.4581
25324SOL     OW76549   6.937   8.642   2.653 -0.4499 -0.0668  0.3488
25324SOL    HW176550   6.983   8.562   2.680 -0.3375 -0.0158  0.3095
25324SOL    HW276551   6.891   8.618   2.573  0.9121  0.3415 -0.6089
25325SOL     OW76552   8.036   7.300   3.276  0.2604  0.2283  0.2615
25325SOL    HW176553   8.091   7.341   3.343 -0.2616 -1.3350  1.7394
25325SOL    HW276554   7.947   7.306   3.312  0.0228 -0.9571 -0.1010
25326SOL     OW76555   8.551   6.764   0.060  0.0231  0.1625 -0.0146
25326SOL    HW176556   8.489   6.755  -0.012 -0.4880 -2.6015  0.6586
25326SOL    HW276557   8.572   6.674   0.085  2.5710  1.0144  1.2860
25327SOL     OW76558   5.796   7.028   9.208 -0.4891  0.0607  0.1260
25327SOL    HW176559   5.768   6.938   9.222  0.3380 -0.0670  1.1418
25327SOL    HW276560   5.761   7.076   9.283 -1.5146  0.7434 -0.7624
25328SOL     OW76561   4.646   8.304   8.618  0.4943 -0.5830  0.3604
25328SOL    HW176562   4.629   8.357   8.696  1.1775 -1.6195  1.2531
25328SOL    HW276563   4.731   8.263   8.636  1.1197 -0.1125 -1.3544
25329SOL     OW76564   8.935   0.633   8.743 -0.6622 -0.0587  0.0108
25329SOL    HW176565   8.949   0.590   8.827  0.4283 -1.3456 -0.7736
25329SOL    HW276566   9.002   0.701   8.740  1.0871 -1.7157 -0.8469
25330SOL     OW76567   6.748   6.630   7.243 -0.4483  0.2448 -0.5854
25330SOL    HW176568   6.699   6.586   7.313  0.8545  0.5054  0.5315
25330SOL    HW276569   6.765   6.562   7.178  0.5594 -0.6464  0.5779
25331SOL     OW76570   5.487   2.017   5.895  0.1699  0.3904 -0.6194
25331SOL    HW176571   5.492   2.085   5.963  0.3534 -0.8042  0.5962
25331SOL    HW276572   5.423   1.955   5.928  0.0375 -0.0714 -1.7046
25332SOL     OW76573   4.115   7.853   5.711 -0.0375  0.0626 -0.4580
25332SOL    HW176574   4.193   7.880   5.664  1.0660 -2.2679 -0.0961
25332SOL    HW276575   4.146   7.791   5.777 -2.2232 -1.3517 -0.6406
25333SOL     OW76576   9.561   5.749   9.954  0.3303  0.1216 -0.5519
25333SOL    HW176577   9.625   5.681   9.933  0.9960  0.8384 -0.9017
25333SOL    HW276578   9.614   5.827   9.973 -0.4031  0.4404  0.2426
25334SOL     OW76579   5.191   0.341   6.547 -0.2006  0.4441  0.2396
25334SOL    HW176580   5.163   0.340   6.639  1.0248  1.3089  0.6304
25334SOL    HW276581   5.249   0.265   6.539 -2.6109 -1.4768 -0.6256
25335SOL     OW76582   7.569   0.765   3.367  0.7766  0.1672 -0.2088
25335SOL    HW176583   7.610   0.754   3.452 -0.5632  0.3657  0.4841
25335SOL    HW276584   7.642   0.772   3.306  1.7531 -0.1740  0.8887
25336SOL     OW76585   9.157   0.053   9.500 -0.5260  0.6667  0.4942
25336SOL    HW176586   9.167   0.040   9.594 -1.1422  2.3660  0.8319
25336SOL    HW276587   9.242   0.086   9.471 -0.4710  0.5574  0.5301
25337SOL     OW76588   0.154   6.066   2.400  0.3289 -0.2947  0.2503
25337SOL    HW176589   0.152   5.996   2.465 -0.6198 -0.0656  0.4831
25337SOL    HW276590   0.132   6.023   2.317  0.8663 -0.4631  0.1886
25338SOL     OW76591   9.383   8.424   9.301  0.3060  0.2244 -0.0361
25338SOL    HW176592   9.291   8.422   9.325  0.3584  0.1197  0.1578
25338SOL    HW276593   9.390   8.363   9.227  0.5271 -1.1351  1.0588
25339SOL     OW76594   1.483   9.003   5.193 -0.2161 -0.6421  0.3429
25339SOL    HW176595   1.538   9.074   5.162 -0.6667 -0.6380 -0.4847
25339SOL    HW276596   1.542   8.945   5.240  0.2523  0.0024  0.5567
25340SOL     OW76597   4.987   2.667   1.243  0.5202 -0.2262 -0.0690
25340SOL    HW176598   4.962   2.682   1.152  0.0655 -0.2275  0.0554
25340SOL    HW276599   5.014   2.753   1.276 -1.7419  0.2949  0.5422
25341SOL     OW76600   5.864   9.763   0.158 -0.4508 -0.6416 -0.6012
25341SOL    HW176601   5.959   9.773   0.149 -0.4998  0.2363 -0.2718
25341SOL    HW276602   5.854   9.693   0.222 -0.0289 -0.9189 -0.8308
25342SOL     OW76603   5.509   5.954   6.510 -0.1643  0.2485 -0.2686
25342SOL    HW176604   5.496   5.916   6.596 -0.5131  1.1312  0.0803
25342SOL    HW276605   5.603   5.943   6.492 -0.5598 -2.5390 -1.0609
25343SOL     OW76606   8.689   7.085   7.448 -0.1331  0.0351  0.2592
25343SOL    HW176607   8.625   7.138   7.401 -1.7083 -1.8885  0.0810
25343SOL    HW276608   8.721   7.022   7.382 -0.2380 -0.8593  1.0415
25344SOL     OW76609   0.959   0.756   8.780  0.5458 -0.2077  0.1728
25344SOL    HW176610   0.864   0.764   8.767  0.1666 -1.5986  1.7960
25344SOL    HW276611   0.969   0.741   8.874  2.2680 -1.4081 -0.1623
25345SOL     OW76612   6.835   7.773   0.577 -0.3392  0.2597 -0.5517
25345SOL    HW176613   6.840   7.867   0.593 -1.1428  0.3638 -0.8603
25345SOL    HW276614   6.745   7.759   0.546 -0.5032 -0.7272  0.3108
25346SOL     OW76615   0.866   3.497   1.918 -0.1452  0.1716 -0.4321
25346SOL    HW176616   0.933   3.455   1.864  1.2193  0.6667  0.8087
25346SOL    HW276617   0.787   3.444   1.904  0.4729 -0.4160 -1.9500
25347SOL     OW76618   5.937   8.383   9.775 -0.4720 -0.2238 -0.4084
25347SOL    HW176619   6.015   8.399   9.721 -0.3625  0.5177 -0.0387
25347SOL    HW276620   5.872   8.445   9.741 -0.1277  0.8885  0.8648
25348SOL     OW76621   4.328   5.830   9.414  0.2518  0.0405  0.0904
25348SOL    HW176622   4.392   5.865   9.477  0.3269  1.6190 -0.8040
25348SOL    HW276623   4.377   5.822   9.332 -0.0481 -1.2426  0.0181
25349SOL     OW76624   7.680   5.195   9.986  1.0872  0.3668 -0.0561
25349SOL    HW176625   7.747   5.134   9.955 -1.0171 -1.7008 -0.8077
25349SOL    HW276626   7.645   5.235   9.907 -0.9099 -1.2314 -0.0650
25350SOL     OW76627   4.824   1.976   6.193 -0.7586  0.6851 -0.6870
25350SOL    HW176628   4.740   2.002   6.156 -0.9317 -0.2316 -0.9765
25350SOL    HW276629   4.828   1.881   6.179  0.1237  0.6475 -0.2713
25351SOL     OW76630   0.862   4.633   6.156 -0.0668 -0.7144 -0.3984
25351SOL    HW176631   0.773   4.651   6.127 -0.7456 -0.0332  1.9096
25351SOL    HW276632   0.915   4.700   6.113 -0.7527 -0.7053 -1.2539
25352SOL     OW76633   5.542   0.678   9.648  0.1959  0.1081  0.4089
25352SOL    HW176634   5.630   0.708   9.624 -0.1463  2.5431  1.9399
25352SOL    HW276635   5.497   0.756   9.678 -3.4220 -0.5360 -2.6468
25353SOL     OW76636   5.295   0.554   6.809  0.2437  0.4614 -0.2201
25353SOL    HW176637   5.296   0.597   6.724  2.2064 -1.2466 -1.1471
25353SOL    HW276638   5.245   0.475   6.795  1.2937 -0.2560 -0.0660
25354SOL     OW76639   2.149   3.161   2.561 -0.0715 -0.1809 -0.5119
25354SOL    HW176640   2.167   3.075   2.598  1.1027  0.2228 -0.1242
25354SOL    HW276641   2.068   3.189   2.605 -0.4170 -1.0306 -0.5747
25355SOL     OW76642   7.640   9.010   5.538  0.2864  0.4567 -0.1416
25355SOL    HW176643   7.630   9.083   5.476  1.8620  2.3719  1.6906
25355SOL    HW276644   7.637   9.052   5.624 -0.6771 -1.9549  1.0838
25356SOL     OW76645   5.871   4.345   3.783 -0.1834  0.6920 -0.7141
25356SOL    HW176646   5.958   4.367   3.818 -0.4520  0.3149  0.2197
25356SOL    HW276647   5.812   4.357   3.858 -0.7973  0.0197 -1.0839
25357SOL     OW76648   7.596   6.655   2.392 -0.2229  0.3742 -0.2281
25357SOL    HW176649   7.525   6.673   2.453 -0.4325 -0.7937 -0.1003
25357SOL    HW276650   7.566   6.690   2.308 -1.2291 -0.6354 -0.3128
25358SOL     OW76651   9.481   3.678   4.296  0.1035  0.5593 -0.3604
25358SOL    HW176652   9.543   3.607   4.313 -0.8157 -0.4046 -0.9757
25358SOL    HW276653   9.489   3.735   4.373 -0.1957 -0.9590  0.8366
25359SOL     OW76654   0.003   6.257   3.434  0.7650  0.2370 -0.0758
25359SOL    HW176655  -0.032   6.171   3.458  0.9978  0.3015  0.5161
25359SOL    HW276656   0.098   6.245   3.432  0.7511  0.2247 -1.0245
25360SOL     OW76657   4.850   3.929   5.939  0.3285 -0.0158  0.0648
25360SOL    HW176658   4.849   3.996   5.871  2.0832  1.1613  1.1202
25360SOL    HW276659   4.896   3.855   5.899  0.9720  0.5046 -0.1599
25361SOL     OW76660   5.181   6.531   2.314  0.2150  0.1222  0.2233
25361SOL    HW176661   5.125   6.479   2.372 -1.0010 -0.3017 -1.2615
25361SOL    HW276662   5.189   6.478   2.235  0.9074  1.1674 -0.4281
25362SOL     OW76663   5.365   0.242   2.016 -0.2702  0.0522  0.0250
25362SOL    HW176664   5.282   0.288   2.005  0.9826  1.9027 -2.9834
25362SOL    HW276665   5.417   0.298   2.073  0.3880  1.2054 -1.6491
25363SOL     OW76666   3.084   6.150   4.520 -0.1916 -0.4977  0.1261
25363SOL    HW176667   3.051   6.137   4.431 -1.7061  2.6692  0.1113
25363SOL    HW276668   3.010   6.129   4.576 -0.8578  2.0536  0.3239
25364SOL     OW76669   3.547   7.230   0.722  0.0370 -0.5251 -0.0495
25364SOL    HW176670   3.525   7.139   0.699  0.2513 -0.6955  0.3963
25364SOL    HW276671   3.643   7.228   0.732 -0.0733 -0.5381  1.1610
25365SOL     OW76672   0.848   1.930   8.179 -0.3599  0.8216 -0.6852
25365SOL    HW176673   0.762   1.962   8.154  0.2638  1.6925 -1.8290
25365SOL    HW276674   0.905   2.007   8.172  0.7040  0.0319 -0.9870
25366SOL     OW76675   6.980   6.443   8.980 -1.4251  0.2795  0.3864
25366SOL    HW176676   6.944   6.510   8.921  0.0855 -1.3216 -2.5486
25366SOL    HW276677   6.917   6.371   8.976 -1.3591  0.1912  0.8543
25367SOL     OW76678   0.838   6.601   7.261 -0.2370 -0.1735  0.4600
25367SOL    HW176679   0.910   6.611   7.322  0.9252  0.6561 -0.9972
25367SOL    HW276680   0.879   6.572   7.179 -1.4629  0.9089 -0.5858
25368SOL     OW76681   9.208   8.182   4.098 -0.4512  0.1259  0.4357
25368SOL    HW176682   9.243   8.108   4.048  0.1122  0.2281  0.6733
25368SOL    HW276683   9.140   8.219   4.042  0.4178  0.4578 -0.4164
25369SOL     OW76684   3.629   9.784   1.425 -0.0089  0.2825 -0.2347
25369SOL    HW176685   3.593   9.697   1.440 -0.2453  0.5680  0.9382
25369SOL    HW276686   3.552   9.841   1.419  0.1635  0.8163  1.7803
25370SOL     OW76687   2.687   6.651   8.831  0.8518 -0.6430 -0.4109
25370SOL    HW176688   2.616   6.604   8.787 -0.6770  0.9168  0.2833
25370SOL    HW276689   2.654   6.740   8.842  1.9434 -0.4536  2.1019
25371SOL     OW76690   7.995   6.823   1.644  0.7604  0.4558 -0.4374
25371SOL    HW176691   8.058   6.890   1.670  0.5612  0.6761 -0.5190
25371SOL    HW276692   8.035   6.781   1.568  0.6782  0.7925 -0.6691
25372SOL     OW76693   8.443   7.270   7.517 -0.0497 -0.7984 -0.0979
25372SOL    HW176694   8.354   7.242   7.496  0.0489 -0.7217 -0.6312
25372SOL    HW276695   8.491   7.263   7.435 -0.1970  1.5954 -0.4847
25373SOL     OW76696   2.887   2.769   9.225 -0.1734 -0.7775 -0.7371
25373SOL    HW176697   2.817   2.721   9.181 -0.5603  0.3822 -1.4422
25373SOL    HW276698   2.967   2.727   9.196 -0.5421 -1.8598 -0.2463
25374SOL     OW76699   0.843   9.870   1.181  0.0036  0.9174 -0.3005
25374SOL    HW176700   0.899   9.901   1.252  0.4463  0.0587 -0.2635
25374SOL    HW276701   0.755   9.898   1.207 -0.2981 -1.7152  2.0213
25375SOL     OW76702   9.364   2.609   7.198 -0.1637  0.2240  0.0914
25375SOL    HW176703   9.394   2.649   7.280 -2.2343  2.1431  0.0404
25375SOL    HW276704   9.269   2.617   7.201 -0.3286  0.0715 -2.3638
25376SOL     OW76705   1.601   4.001   4.066 -0.2815 -0.6409 -0.4218
25376SOL    HW176706   1.676   3.942   4.059 -0.1048 -0.1707 -4.0310
25376SOL    HW276707   1.641   4.088   4.078 -0.4638 -0.7664  1.5237
25377SOL     OW76708   5.930   1.068   4.688  0.1497  0.3878 -0.1138
25377SOL    HW176709   5.923   0.987   4.638  0.7893 -0.2185  0.7403
25377SOL    HW276710   5.919   1.138   4.624  2.8760 -0.3111 -1.4782
25378SOL     OW76711   5.403   9.949   9.682  0.0866  0.2424  0.0567
25378SOL    HW176712   5.327   9.985   9.637  1.4347  2.5424 -0.5817
25378SOL    HW276713   5.415  10.005   9.759  0.0368 -1.2997  1.2399
25379SOL     OW76714   8.675   1.081   5.667 -0.1764 -0.1110  0.2347
25379SOL    HW176715   8.686   1.142   5.740 -1.5893 -0.1319  0.4966
25379SOL    HW276716   8.648   1.136   5.594 -0.2309 -0.2788  0.1297
25380SOL     OW76717   1.896   4.663   6.802 -0.3220 -0.6889 -0.5490
25380SOL    HW176718   1.888   4.644   6.896  0.9798  0.0240 -0.2611
25380SOL    HW276719   1.806   4.658   6.769 -0.7607 -1.3192  0.6610
25381SOL     OW76720   3.762   6.070   5.578  0.4265 -0.4683 -0.2632
25381SOL    HW176721   3.694   6.126   5.617 -0.4226 -1.4531 -0.2873
25381SOL    HW276722   3.714   6.007   5.525  1.2502 -2.0448  0.7968
25382SOL     OW76723   9.305   6.422   5.748  0.1324  0.1731  0.5212
25382SOL    HW176724   9.392   6.413   5.708  0.7811  0.7796  1.7232
25382SOL    HW276725   9.300   6.350   5.810  0.3980  1.0012  1.5208
25383SOL     OW76726   1.746   0.691   4.252  0.1532 -0.1804 -0.2345
25383SOL    HW176727   1.729   0.785   4.261  0.8668  0.0086 -0.7389
25383SOL    HW276728   1.767   0.662   4.341  3.6829  0.9514 -0.5481
25384SOL     OW76729   0.892   3.641   3.382  0.6706 -0.0274 -0.2707
25384SOL    HW176730   0.906   3.559   3.429  0.2253  0.4267  0.6703
25384SOL    HW276731   0.797   3.651   3.377  0.7183  0.2477 -0.7031
25385SOL     OW76732   3.868   6.602   2.637  0.1430  0.4883 -0.0354
25385SOL    HW176733   3.856   6.636   2.725 -1.0930  1.4045 -0.5343
25385SOL    HW276734   3.848   6.676   2.579  0.8657 -0.1099 -1.0926
25386SOL     OW76735   3.704   1.575   0.133 -0.0561  0.1000 -0.0437
25386SOL    HW176736   3.687   1.663   0.100 -1.1823 -0.0359  0.1276
25386SOL    HW276737   3.667   1.575   0.221  0.4663 -0.3692  0.1817
25387SOL     OW76738   4.745   8.634   9.384  0.6597  0.3440  0.0211
25387SOL    HW176739   4.781   8.570   9.445  2.4008  1.4192  0.2033
25387SOL    HW276740   4.693   8.693   9.438  0.7848  0.2983  0.1935
25388SOL     OW76741   6.105   8.935   6.694 -0.2463 -0.1289  0.2881
25388SOL    HW176742   6.037   8.982   6.646 -0.0486 -0.5052 -0.3592
25388SOL    HW276743   6.138   9.000   6.757  1.3004  1.2561 -1.7999
25389SOL     OW76744   6.374   3.346   6.954  0.3405  0.3885  0.7098
25389SOL    HW176745   6.457   3.302   6.932  0.2440 -0.2193  1.5023
25389SOL    HW276746   6.378   3.430   6.908  0.9930 -0.0220  0.0057
25390SOL     OW76747   5.175   7.817   0.443 -0.2038 -0.0218  0.0276
25390SOL    HW176748   5.212   7.732   0.465  3.5644  0.2576 -3.9139
25390SOL    HW276749   5.251   7.874   0.429 -2.3882  2.7616 -1.7970
25391SOL     OW76750   8.032   6.111   3.881 -0.1885  0.4079  0.2634
25391SOL    HW176751   8.052   6.203   3.867 -0.1193  0.3363 -0.1072
25391SOL    HW276752   8.077   6.089   3.963  0.0851  0.6096  0.1676
25392SOL     OW76753   9.250   9.946   5.957  0.4465 -0.4900 -0.0530
25392SOL    HW176754   9.181  10.005   5.987  0.7100  0.0817 -0.5558
25392SOL    HW276755   9.209   9.859   5.957 -0.1731 -0.2018 -0.0373
25393SOL     OW76756   3.980   2.876   7.986  0.5612 -0.2716 -0.1340
25393SOL    HW176757   3.890   2.910   7.988  0.2085 -1.1969  0.7046
25393SOL    HW276758   4.011   2.897   7.898 -0.8617 -0.8662 -0.8163
25394SOL     OW76759   8.182   0.732   9.876 -0.1775  0.0759 -0.3782
25394SOL    HW176760   8.271   0.723   9.843 -0.2452  1.7757 -1.1140
25394SOL    HW276761   8.141   0.647   9.859  1.3554 -0.8348  0.2498
25395SOL     OW76762   4.475   8.155   3.981  0.0898 -0.4258 -0.0624
25395SOL    HW176763   4.487   8.069   4.021  2.5742  0.1861  0.6801
25395SOL    HW276764   4.448   8.212   4.053  0.4790 -0.1700 -0.1161
25396SOL     OW76765   9.479   4.381   7.625 -0.1132  0.1776 -0.1538
25396SOL    HW176766   9.505   4.314   7.688  0.7411  2.2048  1.7562
25396SOL    HW276767   9.559   4.428   7.605 -0.9156  1.4642 -0.4622
25397SOL     OW76768   1.154   2.716   8.002  0.1922 -0.0172 -0.3653
25397SOL    HW176769   1.206   2.693   7.925  1.3818  1.7142 -0.1518
25397SOL    HW276770   1.217   2.713   8.075 -0.5676 -0.1845  0.3033
25398SOL     OW76771   7.621   5.862   3.567  0.4621 -0.6116 -0.2977
25398SOL    HW176772   7.666   5.920   3.506  2.9411 -1.3543  0.7050
25398SOL    HW276773   7.600   5.918   3.642 -1.1977 -0.0629 -1.1109
25399SOL     OW76774   9.463   6.229   8.707 -0.4540  0.5369 -0.4985
25399SOL    HW176775   9.405   6.177   8.652  0.8864 -0.3558 -1.1402
25399SOL    HW276776   9.545   6.234   8.657 -0.3673  2.8837 -0.2354
25400SOL     OW76777   2.755   0.852   6.699  0.2718 -0.0851 -0.1604
25400SOL    HW176778   2.754   0.945   6.722  2.1598 -0.0791  0.0504
25400SOL    HW276779   2.717   0.808   6.775 -0.3954  0.4755 -0.1555
25401SOL     OW76780   2.651   3.949   8.110 -0.0253  0.1315 -0.5718
25401SOL    HW176781   2.627   4.022   8.166  2.3312  2.5242 -2.4286
25401SOL    HW276782   2.623   3.975   8.023  0.3685 -1.4708 -1.2182
25402SOL     OW76783   8.514   2.544   6.871  0.2270 -0.1688  0.5005
25402SOL    HW176784   8.449   2.511   6.809  0.8356 -0.2060 -0.1286
25402SOL    HW276785   8.519   2.476   6.938  1.6513 -1.5591 -0.9107
25403SOL     OW76786   7.961   0.075   1.736  0.6888  0.0776 -0.0803
25403SOL    HW176787   7.979   0.088   1.643 -0.0276 -0.6581 -0.3383
25403SOL    HW276788   7.978  -0.018   1.751 -0.8284 -0.1952  0.1105
25404SOL     OW76789   6.493   7.121   4.211  0.2087 -0.3241  0.4452
25404SOL    HW176790   6.439   7.200   4.205  0.2892 -0.2894  0.1442
25404SOL    HW276791   6.537   7.116   4.126  1.2480  0.0415  0.9508
25405SOL     OW76792   6.452   3.820   8.840 -0.1991 -0.0812  0.0934
25405SOL    HW176793   6.507   3.897   8.854  0.5376 -0.7332  0.8076
25405SOL    HW276794   6.367   3.845   8.877 -0.5994  1.1441 -1.5383
25406SOL     OW76795   4.552   8.238   1.981 -0.1326  0.1712  0.4280
25406SOL    HW176796   4.491   8.270   1.915  0.5121  1.0478  0.2473
25406SOL    HW276797   4.638   8.265   1.950  0.3593 -1.0188  0.6984
25407SOL     OW76798   5.932   7.523   3.877 -1.0533  0.0382  0.0834
25407SOL    HW176799   5.949   7.452   3.939 -0.9733  0.0336  0.0562
25407SOL    HW276800   5.870   7.581   3.922 -2.1581 -0.7373 -0.4015
25408SOL     OW76801   9.712   2.607   5.489  0.1209 -0.0591 -0.1712
25408SOL    HW176802   9.761   2.558   5.555  1.4538 -0.5156 -1.4548
25408SOL    HW276803   9.663   2.540   5.441  0.3840  0.0901 -0.6508
25409SOL     OW76804   0.909   7.302   5.641 -0.0007  0.1981  0.0337
25409SOL    HW176805   0.919   7.320   5.735 -0.4269 -1.0223  0.3351
25409SOL    HW276806   0.845   7.230   5.637 -0.9419  1.0590 -1.2624
25410SOL     OW76807   5.505   9.479   2.128  0.1261 -0.1332  0.4938
25410SOL    HW176808   5.497   9.545   2.060  1.0072 -1.3988 -0.9077
25410SOL    HW276809   5.555   9.522   2.197  3.0881 -0.0511 -1.5227
25411SOL     OW76810   6.215   5.111   6.511 -0.4635  0.2391  0.4110
25411SOL    HW176811   6.247   5.022   6.527 -2.1763 -0.7962 -1.5590
25411SOL    HW276812   6.282   5.151   6.456 -0.6367 -0.5704 -0.4170
25412SOL     OW76813   7.524   7.831   3.899 -0.0647  0.1300 -0.4711
25412SOL    HW176814   7.456   7.814   3.965 -0.0814  1.1021 -0.2277
25412SOL    HW276815   7.554   7.920   3.917  0.2356  0.2569 -1.5150
25413SOL     OW76816   5.152   3.505   0.937  0.3697 -0.1002 -0.1779
25413SOL    HW176817   5.119   3.416   0.949  1.2050 -0.3089  0.6471
25413SOL    HW276818   5.245   3.500   0.958  1.0355  0.4274 -2.6722
25414SOL     OW76819   2.515   4.859   4.133  0.2430 -0.2204 -0.0613
25414SOL    HW176820   2.502   4.777   4.181 -1.4937  0.5974  0.9460
25414SOL    HW276821   2.429   4.879   4.096 -0.3638  2.8351  2.5577
25415SOL     OW76822   5.368   6.883   6.355 -0.6213 -0.0185  0.2141
25415SOL    HW176823   5.401   6.796   6.376 -2.1436 -0.7322 -0.1552
25415SOL    HW276824   5.326   6.873   6.269 -1.0499  1.0100  0.2808
25416SOL     OW76825   4.441   5.857   2.925  0.2942  0.0599 -0.1869
25416SOL    HW176826   4.393   5.840   3.006  0.3142 -2.0187 -0.5453
25416SOL    HW276827   4.373   5.858   2.857  0.5732 -1.9044 -0.5658
25417SOL     OW76828   1.840   4.057   7.905  0.6851 -0.4399 -0.9435
25417SOL    HW176829   1.811   4.024   7.990 -0.4222  2.1390 -0.2304
25417SOL    HW276830   1.759   4.081   7.860  1.3464 -0.3833 -2.1428
25418SOL     OW76831   9.896   6.230   8.766  0.1807 -0.2756 -0.1590
25418SOL    HW176832   9.911   6.284   8.844  1.1955  0.2418 -0.6967
25418SOL    HW276833   9.980   6.229   8.721 -0.6848  0.4072 -1.8716
25419SOL     OW76834   8.765   1.394   4.707 -0.3047  0.0813  0.2456
25419SOL    HW176835   8.818   1.429   4.778 -0.1269 -2.1590  1.2772
25419SOL    HW276836   8.819   1.406   4.629  0.2806  0.8641  0.7572
25420SOL     OW76837   3.438   8.903   5.965  0.2721  0.1241 -0.5315
25420SOL    HW176838   3.397   8.981   6.004  1.1424  0.6831 -0.7218
25420SOL    HW276839   3.464   8.931   5.877  1.6814 -0.0041 -0.1740
25421SOL     OW76840   8.990   6.386   2.310  0.0152 -0.4137  0.2118
25421SOL    HW176841   9.017   6.441   2.384 -1.2059  1.2323 -0.5133
25421SOL    HW276842   8.910   6.343   2.340 -1.2180  1.2612 -0.5480
25422SOL     OW76843   1.014   7.916   7.664 -0.3199 -0.1207 -0.2667
25422SOL    HW176844   0.952   7.878   7.601 -1.4752  0.4324  0.5042
25422SOL    HW276845   0.999   7.867   7.745  1.4490 -1.1147 -0.4718
25423SOL     OW76846   4.032   6.573   0.306  0.7031  0.4094  0.4571
25423SOL    HW176847   4.072   6.494   0.343  2.9864  1.1336 -0.2946
25423SOL    HW276848   4.095   6.643   0.325 -1.4498  2.1869  1.4560
25424SOL     OW76849   4.313   9.239   1.770  0.2109 -0.2509 -0.4201
25424SOL    HW176850   4.369   9.254   1.694  0.3425 -0.8593 -0.4508
25424SOL    HW276851   4.355   9.167   1.816 -0.8661 -1.1346 -0.7759
25425SOL     OW76852   2.309   5.135   5.542  0.2122  0.5256  0.0125
25425SOL    HW176853   2.267   5.214   5.577 -1.0278 -0.2300  0.2713
25425SOL    HW276854   2.341   5.089   5.619 -1.0312 -0.3059  0.0509
25426SOL     OW76855   4.560   5.133   4.632  0.2176  0.2234  0.6809
25426SOL    HW176856   4.483   5.076   4.640 -0.2425  0.9653  1.6980
25426SOL    HW276857   4.627   5.090   4.686  0.9451 -1.0563 -1.1389
25427SOL     OW76858   4.030   1.082   1.493 -0.7053 -0.4918 -0.3168
25427SOL    HW176859   3.936   1.066   1.496 -0.7289 -0.5046  2.5646
25427SOL    HW276860   4.055   1.090   1.586  2.2457 -1.1912 -0.9522
25428SOL     OW76861   3.316   7.635   1.541 -0.3060  0.4285  0.1151
25428SOL    HW176862   3.289   7.629   1.449 -3.4837  1.3169  0.8753
25428SOL    HW276863   3.384   7.702   1.542  0.2249 -0.0268 -1.6216
25429SOL     OW76864   9.783   0.575   7.150 -0.3164 -0.0988  0.7886
25429SOL    HW176865   9.716   0.605   7.211 -0.7391 -0.5346  0.5444
25429SOL    HW276866   9.760   0.618   7.067 -0.1687 -0.0810  0.7562
25430SOL     OW76867   6.428   5.376   5.299  0.1694 -0.6146  0.6441
25430SOL    HW176868   6.468   5.341   5.379 -2.8302 -1.3945  1.9315
25430SOL    HW276869   6.334   5.362   5.311 -0.6567  2.0797 -1.6946
25431SOL     OW76870   3.828   4.243   8.011  0.2413 -0.2612 -0.7804
25431SOL    HW176871   3.809   4.235   8.104 -0.9575  0.2272 -0.9682
25431SOL    HW276872   3.870   4.160   7.988 -2.2684 -1.7051 -0.4606
25432SOL     OW76873   1.263   8.273   9.212 -0.1221 -0.3668  0.2346
25432SOL    HW176874   1.326   8.329   9.165  1.8313  0.6882  3.7816
25432SOL    HW276875   1.183   8.325   9.216 -0.2370 -0.3428 -1.4893
25433SOL     OW76876   7.885   0.096   3.348 -0.4268  0.3949  0.0564
25433SOL    HW176877   7.959   0.133   3.396  1.7760 -1.9839 -1.2838
25433SOL    HW276878   7.894   0.001   3.359 -1.6457 -0.0976 -2.4585
25434SOL     OW76879   3.645   0.181   4.853  0.4306  0.0933 -0.3039
25434SOL    HW176880   3.736   0.187   4.824  0.1315 -0.4800 -1.4187
25434SOL    HW276881   3.650   0.146   4.942  1.2748 -0.5570 -0.5954
25435SOL     OW76882   0.243   8.227   1.083 -0.3480 -0.2145 -0.2007
25435SOL    HW176883   0.181   8.160   1.111  1.0839 -1.6236 -0.3008
25435SOL    HW276884   0.258   8.279   1.162 -0.7882 -0.5370  0.1043
25436SOL     OW76885   9.205   3.848   0.077 -0.4923  0.0055  0.5657
25436SOL    HW176886   9.168   3.760   0.077  0.5340 -0.4861 -1.2296
25436SOL    HW276887   9.292   3.838   0.114 -0.0235  0.0503 -0.4681
25437SOL     OW76888   4.175   3.003   7.461  0.4515 -0.2541  0.0586
25437SOL    HW176889   4.155   3.046   7.544  0.7907 -1.5397  0.8323
25437SOL    HW276890   4.264   3.031   7.439 -0.6843  2.5064 -1.4792
25438SOL     OW76891   4.644   9.690   8.737  0.2433  0.3373 -0.5241
25438SOL    HW176892   4.561   9.721   8.700 -0.7653 -0.4306  0.9815
25438SOL    HW276893   4.668   9.615   8.683  0.1977  0.8390 -1.2502
25439SOL     OW76894   6.535   5.525   5.806  0.1787 -0.0891 -0.5844
25439SOL    HW176895   6.530   5.574   5.888  2.0615 -1.3354  0.3531
25439SOL    HW276896   6.627   5.530   5.781  0.7176 -3.7802  0.0653
25440SOL     OW76897   9.888   2.783   1.791  0.1192  0.1966  0.0087
25440SOL    HW176898   9.837   2.770   1.711  2.3173 -2.6799 -1.0736
25440SOL    HW276899   9.834   2.843   1.844 -1.6096  1.9052 -3.3815
25441SOL     OW76900   0.552   6.291   2.171 -0.1386  0.5751 -0.5049
25441SOL    HW176901   0.647   6.300   2.172 -0.0720 -0.0743 -0.4788
25441SOL    HW276902   0.536   6.201   2.200 -0.7627  0.7014 -0.4422
25442SOL     OW76903   9.597   0.055   4.400 -0.5785  0.2473 -0.3997
25442SOL    HW176904   9.566   0.078   4.312 -0.7448  0.9116 -0.1742
25442SOL    HW276905   9.555   0.119   4.458  1.1738  1.1668 -0.0683
25443SOL     OW76906   3.093   4.682   1.836 -0.2538  0.1715 -0.4306
25443SOL    HW176907   3.132   4.595   1.830  1.7427  0.8218  1.7063
25443SOL    HW276908   3.000   4.665   1.855  0.1586 -1.4950  0.2509
25444SOL     OW76909   4.618   1.880   0.360  0.1659 -0.2746 -0.3414
25444SOL    HW176910   4.652   1.868   0.271  0.1298 -1.5513 -0.1993
25444SOL    HW276911   4.530   1.844   0.358  0.4425 -1.0276  0.3934
25445SOL     OW76912   2.833   3.091   0.825  0.6564 -0.6374  0.1085
25445SOL    HW176913   2.825   3.142   0.906  0.0048  0.0899 -0.3941
25445SOL    HW276914   2.747   3.098   0.784  0.5885 -2.0836 -0.0326
25446SOL     OW76915   1.610   1.814   8.798 -0.6778  0.2540  0.0677
25446SOL    HW176916   1.619   1.749   8.729 -1.8343 -0.5280  0.6360
25446SOL    HW276917   1.684   1.797   8.856  0.4464  1.0683 -1.0426
25447SOL     OW76918   0.659   2.981   6.250 -1.0316 -0.4565  0.6686
25447SOL    HW176919   0.646   3.066   6.209 -0.1170 -1.5258 -2.0913
25447SOL    HW276920   0.572   2.955   6.279 -1.9138  0.1137 -1.2858
25448SOL     OW76921   7.657   7.869   2.509 -0.2070 -0.3011 -0.3148
25448SOL    HW176922   7.586   7.804   2.509 -0.8933  0.4286 -0.0846
25448SOL    HW276923   7.679   7.880   2.416  1.0674 -2.0716 -0.2523
25449SOL     OW76924   6.524   9.674   7.304 -0.0748 -0.2618 -0.7380
25449SOL    HW176925   6.584   9.722   7.362 -1.0263  0.2373 -0.1339
25449SOL    HW276926   6.503   9.737   7.234 -1.7490  0.4610  0.3439
25450SOL     OW76927   4.192   9.483   1.521  0.7117  0.0097  0.1135
25450SOL    HW176928   4.105   9.515   1.545  0.8215  0.8786 -0.5677
25450SOL    HW276929   4.186   9.388   1.526 -0.2237  0.0700  0.2284
25451SOL     OW76930   9.291   7.641   5.900 -0.0789  0.2826 -0.3367
25451SOL    HW176931   9.285   7.546   5.903 -0.2487  0.3099  0.6043
25451SOL    HW276932   9.290   7.662   5.807  0.3883 -0.6559 -0.5645
25452SOL     OW76933   2.469   3.107   7.090 -0.3885  0.0096  0.2975
25452SOL    HW176934   2.561   3.100   7.116 -0.9276  0.1864  2.4740
25452SOL    HW276935   2.423   3.126   7.172 -2.1271  2.0736 -1.0661
25453SOL     OW76936   2.608   2.465   5.630  0.1122 -0.0305 -0.4488
25453SOL    HW176937   2.564   2.424   5.705 -1.0952 -0.9669 -1.6222
25453SOL    HW276938   2.677   2.403   5.607 -0.0847 -0.1755 -0.6521
25454SOL     OW76939   8.105   5.662   9.856  0.1256 -0.2404 -0.0572
25454SOL    HW176940   8.093   5.708   9.772 -0.3364 -0.8729 -0.3420
25454SOL    HW276941   8.105   5.569   9.833  1.9752 -0.3907  0.3991
25455SOL     OW76942   3.281   6.782   8.504  0.5455 -0.8017  0.3332
25455SOL    HW176943   3.304   6.869   8.536  0.3906 -1.0011  1.0087
25455SOL    HW276944   3.353   6.758   8.446  1.7803 -1.1521  1.9135
25456SOL     OW76945   6.570   7.998   4.102  0.0416  0.0054  0.2935
25456SOL    HW176946   6.533   8.059   4.166  0.4469 -0.0128  0.5492
25456SOL    HW276947   6.660   7.984   4.131  0.7728  1.2916 -1.2194
25457SOL     OW76948   4.705   3.907   1.366  0.0376 -0.4330 -0.1117
25457SOL    HW176949   4.778   3.936   1.311 -1.2051  1.4365 -0.8421
25457SOL    HW276950   4.663   3.838   1.315  0.8153 -1.0122 -0.0021
25458SOL     OW76951   7.953   3.765   9.006 -0.4953 -0.4291  0.7336
25458SOL    HW176952   7.897   3.688   9.017 -0.0623 -0.7434  0.7353
25458SOL    HW276953   7.916   3.829   9.067 -2.0782  0.0657 -0.6793
25459SOL     OW76954   6.965   2.906   8.414  0.6563  0.1494 -0.3202
25459SOL    HW176955   6.974   2.971   8.484  0.3947  1.7603 -1.7259
25459SOL    HW276956   6.938   2.826   8.460  1.1164  0.9639  1.4880
25460SOL     OW76957   6.135   2.447   1.033 -0.1147  0.2044 -0.0480
25460SOL    HW176958   6.070   2.517   1.028 -0.2829  0.1003  0.5985
25460SOL    HW276959   6.103   2.389   1.102  0.2821 -0.2451 -0.2344
25461SOL     OW76960   5.711   8.042   8.219 -0.2932  0.2514  0.0035
25461SOL    HW176961   5.745   7.959   8.253  0.9394  0.4824 -0.6024
25461SOL    HW276962   5.731   8.106   8.288 -1.6124 -0.0071  0.6495
25462SOL     OW76963   2.182   7.295   6.356 -0.6151  0.0301  0.1022
25462SOL    HW176964   2.195   7.384   6.322  0.5229 -0.2338 -0.1664
25462SOL    HW276965   2.128   7.308   6.434 -1.6812  0.8124 -0.7335
25463SOL     OW76966   6.146   0.788   2.973 -0.0402 -0.2506  0.2827
25463SOL    HW176967   6.100   0.795   3.056 -1.2896 -1.0088 -0.3033
25463SOL    HW276968   6.087   0.736   2.918  0.6232  0.4799 -1.1687
25464SOL     OW76969   6.500   1.789   5.941 -0.7721  0.0379 -0.0902
25464SOL    HW176970   6.555   1.756   6.012 -0.4800  0.5830 -0.0607
25464SOL    HW276971   6.473   1.710   5.893 -0.4145 -0.2762  0.2204
25465SOL     OW76972   3.758   4.871   8.084  0.2020 -0.0229 -0.3187
25465SOL    HW176973   3.699   4.802   8.054  0.0624 -0.6426  1.3016
25465SOL    HW276974   3.756   4.936   8.014 -0.7830 -0.9861 -1.2275
25466SOL     OW76975   8.351   3.210   2.470  0.1963  0.4939 -0.0231
25466SOL    HW176976   8.329   3.178   2.382 -0.4520  0.7722  0.0315
25466SOL    HW276977   8.280   3.270   2.492 -0.0778 -0.1925  1.0284
25467SOL     OW76978   1.348   0.264   8.350  0.0185  0.1727  0.3003
25467SOL    HW176979   1.265   0.282   8.305  0.5324 -0.0675 -0.7727
25467SOL    HW276980   1.323   0.229   8.435 -1.0003 -1.6947 -0.7195
25468SOL     OW76981   1.448   3.931   9.565  0.4740  0.0892 -0.5675
25468SOL    HW176982   1.398   3.919   9.485  0.0118  1.3256 -0.4786
25468SOL    HW276983   1.435   3.850   9.614  0.0956 -0.3451 -1.3750
25469SOL     OW76984   2.148   6.647   7.491 -0.1494 -0.2290  0.3680
25469SOL    HW176985   2.067   6.672   7.448 -1.1636 -1.6511  1.3799
25469SOL    HW276986   2.122   6.622   7.580  1.6888  1.2733  1.4193
25470SOL     OW76987   3.141   3.833   6.540 -0.0539 -0.3622  0.4838
25470SOL    HW176988   3.071   3.897   6.548  0.9852  0.8011  0.6297
25470SOL    HW276989   3.208   3.863   6.602  1.2101 -0.5629 -0.7337
25471SOL     OW76990   9.903   9.021   0.704  0.6158 -0.7930 -0.1854
25471SOL    HW176991   9.968   9.053   0.642  0.7804 -1.0939 -0.1712
25471SOL    HW276992   9.834   8.984   0.649 -0.3295  0.9848 -0.2487
25472SOL     OW76993   6.227   9.361   8.807  0.1591  0.1009  0.3296
25472SOL    HW176994   6.318   9.365   8.778 -0.2238 -1.1390 -1.1728
25472SOL    HW276995   6.175   9.354   8.727 -1.3041  0.9847  1.1406
25473SOL     OW76996   2.303   8.564   5.724  0.1834 -0.0027 -0.1552
25473SOL    HW176997   2.329   8.519   5.804  0.1546  0.4243  0.0938
25473SOL    HW276998   2.250   8.638   5.753  1.9234  1.4181 -0.4193
25474SOL     OW76999   1.660   2.003   1.173  0.6077 -0.3975 -0.1547
25474SOL    HW177000   1.604   2.077   1.149  0.4214 -0.7230 -0.7510
25474SOL    HW277001   1.599   1.934   1.199  0.8281  0.2747  2.3152
25475SOL     OW77002   9.476   9.141   7.422  0.7150  0.1827  0.3707
25475SOL    HW177003   9.480   9.237   7.427 -0.3282  0.3401 -1.0836
25475SOL    HW277004   9.564   9.115   7.398  0.8285  0.8424  0.0487
25476SOL     OW77005   5.117   5.414   1.156 -0.0077  0.0454 -0.6335
25476SOL    HW177006   5.141   5.344   1.217 -0.3947  0.9002  0.5454
25476SOL    HW277007   5.056   5.469   1.205 -0.8839  0.3850 -2.0421
25477SOL     OW77008   9.360   8.198   0.281 -0.5773  0.3843  0.8112
25477SOL    HW177009   9.392   8.163   0.364  0.4473 -2.1304 -0.5395
25477SOL    HW277010   9.265   8.194   0.288 -0.5276 -2.4256  0.9382
25478SOL     OW77011   7.861   3.403   0.994 -0.0155 -0.2730  0.2194
25478SOL    HW177012   7.848   3.309   1.007 -0.6359 -0.2105  0.1058
25478SOL    HW277013   7.775   3.435   0.965  0.1590  0.3483  0.3686
25479SOL     OW77014   9.897   7.128   3.589  0.2556  0.0339  0.2961
25479SOL    HW177015   9.906   7.212   3.634  2.5168  0.3744 -0.6394
25479SOL    HW277016   9.807   7.128   3.557 -0.2683  1.3957  1.6188
25480SOL     OW77017   3.794   3.310   1.445 -0.3352  0.3052  0.1618
25480SOL    HW177018   3.766   3.288   1.534 -1.2160 -0.7686 -0.3571
25480SOL    HW277019   3.713   3.333   1.400  0.2849  2.4234  0.0408
25481SOL     OW77020   2.351   3.594   3.495  0.0900  0.0583 -0.7778
25481SOL    HW177021   2.421   3.528   3.499  0.7208  0.7155 -0.7367
25481SOL    HW277022   2.397   3.676   3.481 -0.2871  1.1513  3.1902
25482SOL     OW77023   2.961   7.678   1.919  0.1041 -0.2754 -0.6572
25482SOL    HW177024   3.015   7.719   1.852 -1.8238  2.5391 -0.6738
25482SOL    HW277025   3.023   7.644   1.983  1.9120 -0.5735 -2.4858
25483SOL     OW77026   0.532   1.174   7.462 -0.1316 -0.2878 -0.3331
25483SOL    HW177027   0.455   1.137   7.420 -0.2477  1.0924 -1.4241
25483SOL    HW277028   0.604   1.155   7.402  0.0851 -0.1369 -0.1267
25484SOL     OW77029   4.640   2.480   8.778 -0.1465  0.2822 -0.0052
25484SOL    HW177030   4.664   2.546   8.713  1.1070  1.6282  1.7204
25484SOL    HW277031   4.718   2.426   8.787 -0.5753 -0.3701 -0.1630
25485SOL     OW77032   1.590   2.679   5.653 -0.3829  0.5261 -0.3929
25485SOL    HW177033   1.625   2.646   5.736  1.0755 -1.6079 -1.7378
25485SOL    HW277034   1.501   2.644   5.649 -0.0860 -0.2917 -0.1754
25486SOL     OW77035   1.721   9.155   6.885  0.7152  0.7698  0.1147
25486SOL    HW177036   1.665   9.209   6.829  0.6624 -0.2274 -0.8285
25486SOL    HW277037   1.676   9.155   6.970 -2.1929 -2.0303 -1.2076
25487SOL     OW77038   3.013   8.886   5.559  0.0210  0.0830  0.0737
25487SOL    HW177039   2.943   8.884   5.625 -2.1121  1.0054 -2.0112
25487SOL    HW277040   3.062   8.966   5.579 -1.4401  1.0854 -0.2291
25488SOL     OW77041   9.367   0.045   7.618  0.3010 -0.9013 -0.1897
25488SOL    HW177042   9.442   0.088   7.660 -0.5573  1.3327 -0.8044
25488SOL    HW277043   9.406  -0.014   7.554  1.5561 -0.7370  0.3914
25489SOL     OW77044   4.383   5.479   3.805 -0.4203  0.7682  0.3258
25489SOL    HW177045   4.318   5.444   3.866 -0.7485 -1.2622 -1.1021
25489SOL    HW277046   4.386   5.415   3.734  0.7103  2.5245 -1.2868
25490SOL     OW77047   1.217  -0.001   9.446  0.4236  0.2999 -0.4602
25490SOL    HW177048   1.141   0.056   9.458 -2.1740 -3.0837  1.1770
25490SOL    HW277049   1.258  -0.004   9.533  0.7717  0.0281 -0.6356
25491SOL     OW77050   0.871   8.222   7.403 -0.4374  0.1604  0.0827
25491SOL    HW177051   0.786   8.182   7.423 -1.0903  1.9674  1.1248
25491SOL    HW277052   0.873   8.227   7.308 -1.6888  0.4616  0.0541
25492SOL     OW77053   1.506   6.783   1.600  0.2536  0.3210 -0.2328
25492SOL    HW177054   1.500   6.689   1.587  1.1048  0.2483 -0.1672
25492SOL    HW277055   1.502   6.795   1.695 -0.9310  0.4442 -0.2905
25493SOL     OW77056   4.479   0.196   1.074 -0.9854 -0.1761 -0.1813
25493SOL    HW177057   4.506   0.258   1.142  0.4245 -0.5604 -0.3684
25493SOL    HW277058   4.535   0.120   1.087 -3.3731 -1.9058  0.7067
25494SOL     OW77059   6.861   2.755   2.923 -0.3040  0.0569 -0.0128
25494SOL    HW177060   6.829   2.807   2.998  1.3810  1.4350 -0.1770
25494SOL    HW277061   6.932   2.807   2.887 -0.2799 -1.1712 -1.8643
25495SOL     OW77062   0.682   5.528   9.675  0.5837  0.7049 -0.0508
25495SOL    HW177063   0.670   5.452   9.619  1.4545  0.5552 -0.0435
25495SOL    HW277064   0.730   5.591   9.620  1.9842  0.3291  0.7003
25496SOL     OW77065   2.919   8.828   7.749  0.0183  0.2656  0.1594
25496SOL    HW177066   2.882   8.802   7.833  1.1943  0.0600  0.6308
25496SOL    HW277067   2.951   8.747   7.710 -0.1997  0.4083 -0.3290
25497SOL     OW77068   1.580   4.075   9.826 -0.0509  0.4647  0.2051
25497SOL    HW177069   1.545   4.030   9.748  0.7932 -1.5208  0.8999
25497SOL    HW277070   1.512   4.137   9.850 -1.0688 -0.0696 -1.1295
25498SOL     OW77071   4.641   2.534   0.707 -0.0989  0.2869 -0.2122
25498SOL    HW177072   4.624   2.554   0.799  0.9617  0.3745 -0.0279
25498SOL    HW277073   4.707   2.598   0.680  0.2422 -0.2955 -0.7862
25499SOL     OW77074   1.262   7.081   6.128  0.3770 -0.8265  0.4763
25499SOL    HW177075   1.215   7.118   6.203 -0.8805  1.9842 -1.5179
25499SOL    HW277076   1.334   7.143   6.111 -0.1150 -0.6746 -1.3213
25500SOL     OW77077   5.623   5.163   2.929  0.4577  0.5339 -0.5565
25500SOL    HW177078   5.617   5.196   3.019 -1.0090 -1.2119  0.0313
25500SOL    HW277079   5.669   5.080   2.937 -0.9404 -0.3391 -1.1860
25501SOL     OW77080   5.331   7.082   8.325  0.3174  0.1336 -0.4519
25501SOL    HW177081   5.381   7.100   8.245 -0.6496  1.8048 -0.7386
25501SOL    HW277082   5.243   7.116   8.306  0.2816  1.3822  1.6053
25502SOL     OW77083   1.559   9.612   6.979  0.1081  0.3577 -0.3679
25502SOL    HW177084   1.644   9.654   6.991  0.8563 -1.4377  0.9981
25502SOL    HW277085   1.515   9.666   6.913  1.1700  2.9626  0.9173
25503SOL     OW77086   4.897   4.387   1.697 -0.2363 -0.2755 -0.2281
25503SOL    HW177087   4.901   4.454   1.765 -0.8409  1.0162 -1.4285
25503SOL    HW277088   4.988   4.371   1.673 -0.0853  0.0111  0.1461
25504SOL     OW77089   8.485   9.491   9.727 -0.0633 -0.2646 -0.3068
25504SOL    HW177090   8.402   9.457   9.694  0.0672  0.2270 -1.1636
25504SOL    HW277091   8.515   9.553   9.660 -0.4362  1.8078  1.3421
25505SOL     OW77092   5.916   1.787   0.556 -0.3330 -0.2473  0.1289
25505SOL    HW177093   6.010   1.771   0.560 -0.2206  0.3373 -0.0718
25505SOL    HW277094   5.898   1.806   0.464 -0.4437  0.8063  0.3499
25506SOL     OW77095   8.728   7.161   7.046 -0.3882  0.1831  1.3377
25506SOL    HW177096   8.692   7.180   6.959 -0.9556 -0.6122  1.3841
25506SOL    HW277097   8.767   7.074   7.037 -0.4726  0.0840  1.8753
25507SOL     OW77098   3.031   0.645   2.301  0.0654  0.2641  0.1648
25507SOL    HW177099   3.066   0.634   2.212 -0.9023  0.9441 -0.3252
25507SOL    HW277100   2.949   0.595   2.300 -0.1850  0.6596  0.5225
25508SOL     OW77101   9.325   5.407   8.486  0.1216 -0.0153  0.1926
25508SOL    HW177102   9.265   5.344   8.525  0.4859 -0.6828 -0.2865
25508SOL    HW277103   9.324   5.386   8.393  0.7780  0.2393  0.1239
25509SOL     OW77104   6.904   5.976   3.781  0.0884  0.0749 -0.3382
25509SOL    HW177105   6.944   5.923   3.849  0.3321  1.5683  0.7423
25509SOL    HW277106   6.959   5.963   3.703  2.2634  1.4141  0.8649
25510SOL     OW77107   7.539   7.372   7.085  0.2185 -0.4475  0.4893
25510SOL    HW177108   7.506   7.346   6.999 -0.9170 -0.9332  1.0441
25510SOL    HW277109   7.573   7.461   7.072 -2.9252  0.8551  0.1806
25511SOL     OW77110   2.421   3.427   4.071  0.0546  0.1187  0.3369
25511SOL    HW177111   2.361   3.395   4.138  1.5322 -0.1039  1.6079
25511SOL    HW277112   2.507   3.422   4.111  0.9858  0.1334 -1.5452
25512SOL     OW77113   9.070   2.374   7.010 -0.1321 -0.1032  0.7223
25512SOL    HW177114   9.021   2.386   6.929 -1.9230 -1.6369  1.4997
25512SOL    HW277115   9.162   2.368   6.982 -0.6951 -0.5142 -1.1829
25513SOL     OW77116   7.788   6.066   3.492 -0.0925 -0.1844  0.1429
25513SOL    HW177117   7.762   6.094   3.580 -0.8826  1.1115 -0.4713
25513SOL    HW277118   7.873   6.107   3.477 -0.1786 -0.0105  0.1251
25514SOL     OW77119   7.168   7.484   8.380 -0.4826 -0.5504 -0.3325
25514SOL    HW177120   7.161   7.391   8.358 -0.7793 -0.4590 -0.6435
25514SOL    HW277121   7.105   7.527   8.322  1.6683  0.1715 -2.3042
25515SOL     OW77122   2.933   0.458   5.036 -0.4769  0.3634  0.8997
25515SOL    HW177123   3.016   0.505   5.024  0.0667 -0.8093 -0.4014
25515SOL    HW277124   2.912   0.469   5.128  1.8018 -0.2961  1.5817
25516SOL     OW77125   6.327   8.652   1.896  0.4841  0.0396  0.3464
25516SOL    HW177126   6.286   8.566   1.892 -2.2268  1.2570 -0.1111
25516SOL    HW277127   6.406   8.638   1.949  0.8090 -2.9209 -0.7422
25517SOL     OW77128   7.169   3.818   1.217 -0.2656  0.5480  0.0170
25517SOL    HW177129   7.217   3.786   1.293 -2.4279 -3.6122 -0.0635
25517SOL    HW277130   7.230   3.808   1.144  0.0843 -0.7234  0.4646
25518SOL     OW77131   3.842   4.379   8.945  0.4799  0.3004  0.2854
25518SOL    HW177132   3.773   4.371   8.879  1.4102 -3.0827 -0.4483
25518SOL    HW277133   3.908   4.435   8.905  1.0552 -1.7258 -1.8207
25519SOL     OW77134   9.186   7.972   8.960 -0.5068 -0.1877 -0.6228
25519SOL    HW177135   9.252   7.964   8.891  0.4767  0.8376  0.1620
25519SOL    HW277136   9.117   8.025   8.921 -0.0430  0.2308 -0.8982
25520SOL     OW77137   9.109   4.847   7.495 -0.4375  0.3115  0.1303
25520SOL    HW177138   9.189   4.837   7.547  0.2555  0.1101 -0.9381
25520SOL    HW277139   9.108   4.771   7.437 -1.3120  0.4119  0.0023
25521SOL     OW77140   4.682   2.073   8.845  0.0931  0.2923 -0.1031
25521SOL    HW177141   4.647   2.160   8.863  0.4809  0.4311 -0.0153
25521SOL    HW277142   4.742   2.056   8.917  0.3955  0.1613 -0.3840
25522SOL     OW77143   2.498   7.957   3.616  0.4467 -0.3355 -0.3974
25522SOL    HW177144   2.495   7.909   3.699  1.4308 -0.4767 -0.4337
25522SOL    HW277145   2.406   7.972   3.594  0.1518  0.5768  1.2256
25523SOL     OW77146   6.756   0.215   9.610 -0.0270  0.2859  0.5029
25523SOL    HW177147   6.755   0.271   9.687  0.4188 -0.3596  0.9932
25523SOL    HW277148   6.849   0.192   9.598  0.7808  4.2339 -3.1226
25524SOL     OW77149   2.527   2.153   8.652 -0.0344  0.2285  0.0045
25524SOL    HW177150   2.485   2.222   8.600 -0.0037  0.8291  0.7538
25524SOL    HW277151   2.575   2.101   8.588  2.0473  2.3998 -0.3721
25525SOL     OW77152   9.816   2.762   2.622  0.2687 -0.3957 -0.3751
25525SOL    HW177153   9.769   2.838   2.657  0.8402  0.0479 -0.5507
25525SOL    HW277154   9.808   2.770   2.527  2.7969  1.1149 -0.5607
25526SOL     OW77155   4.132   2.500   6.574  0.4590 -0.6060 -0.5083
25526SOL    HW177156   4.191   2.429   6.601  1.0337 -0.1713 -0.6110
25526SOL    HW277157   4.049   2.479   6.617  1.8301  1.1694  3.5435
25527SOL     OW77158   4.790   3.531   1.101 -0.1259 -0.1580 -0.1960
25527SOL    HW177159   4.851   3.577   1.159 -0.1484 -0.7109  0.2713
25527SOL    HW277160   4.823   3.548   1.013  1.4597 -1.4688  0.0897
25528SOL     OW77161   0.890   1.589   5.134  0.2583 -0.0650 -0.2648
25528SOL    HW177162   0.985   1.601   5.133  0.3852 -1.0734 -1.0129
25528SOL    HW277163   0.864   1.598   5.042 -0.5314  1.3179  0.0633
25529SOL     OW77164   7.681   6.902   0.042 -0.4621  0.2033  0.5812
25529SOL    HW177165   7.612   6.875   0.103 -0.4521  1.1326  1.0222
25529SOL    HW277166   7.637   6.961  -0.019 -0.0621  0.8378  0.8917
25530SOL     OW77167   4.588   0.329   2.968  0.1738 -0.0250  0.3375
25530SOL    HW177168   4.596   0.253   3.025 -2.9392  0.4020  1.5179
25530SOL    HW277169   4.541   0.297   2.891 -0.2978  0.4969  0.4030
25531SOL     OW77170   6.879   7.899   2.707 -0.3099  0.1483  0.3785
25531SOL    HW177171   6.852   7.820   2.660 -3.3642  2.2287 -1.7586
25531SOL    HW277172   6.966   7.919   2.673 -0.8131 -0.6292 -1.4961
25532SOL     OW77173   2.805   6.701   7.250  0.5413 -0.5413  0.6444
25532SOL    HW177174   2.805   6.795   7.231 -0.7509 -0.3468  1.4390
25532SOL    HW277175   2.896   6.674   7.240  1.3121  1.2155  2.3110
25533SOL     OW77176   5.569   3.456   0.721  0.1054 -0.7204  0.8712
25533SOL    HW177177   5.530   3.543   0.733 -0.3129 -1.1659  3.0639
25533SOL    HW277178   5.649   3.473   0.670  0.2678  0.9964  1.6161
25534SOL     OW77179   1.746   9.195   0.591 -0.1792  0.2614 -0.0332
25534SOL    HW177180   1.749   9.285   0.623 -0.5325  0.1489  0.3155
25534SOL    HW277181   1.776   9.202   0.500 -0.5170  0.7768 -0.1123
25535SOL     OW77182   6.385   7.128   8.710  0.1666  0.1908  0.6472
25535SOL    HW177183   6.460   7.126   8.651 -1.5190 -1.5246 -1.6325
25535SOL    HW277184   6.391   7.046   8.759  0.4382  0.6410  1.3780
25536SOL     OW77185   1.758   6.551   4.123 -0.0722 -0.4484 -0.3490
25536SOL    HW177186   1.745   6.587   4.036  0.0974 -0.9069 -0.5687
25536SOL    HW277187   1.810   6.617   4.169 -2.3337  0.9937  0.2554
25537SOL     OW77188   4.340   7.506   2.582  0.1183 -0.5951  0.2262
25537SOL    HW177189   4.325   7.413   2.601 -1.7381 -0.3659  0.0438
25537SOL    HW277190   4.282   7.553   2.642  1.1878  0.4773  0.4614
25538SOL     OW77191   1.063   9.384   6.629 -0.0865 -0.8362  0.1516
25538SOL    HW177192   1.028   9.473   6.622 -0.2677 -0.8212  1.1666
25538SOL    HW277193   0.997   9.329   6.588  0.5287 -0.4176 -1.5162
25539SOL     OW77194   8.873   4.340   0.367 -0.3739 -0.4455 -0.0208
25539SOL    HW177195   8.944   4.296   0.321 -0.8213 -2.7069  1.3008
25539SOL    HW277196   8.801   4.276   0.367 -2.3193  1.6204 -1.0097
25540SOL     OW77197   3.683   3.974   2.580 -0.3214  0.4768 -0.1588
25540SOL    HW177198   3.739   3.905   2.544  1.0496  1.0719  0.7187
25540SOL    HW277199   3.664   3.945   2.669 -2.3444 -0.2174 -0.7737
25541SOL     OW77200   8.383   0.653   2.817 -0.3643  0.0171 -0.4055
25541SOL    HW177201   8.364   0.747   2.819 -0.2097  0.0421  0.0134
25541SOL    HW277202   8.479   0.648   2.822 -0.4135 -0.1849  0.4354
25542SOL     OW77203   9.121   4.318   3.105 -0.6696 -0.2907 -0.1404
25542SOL    HW177204   9.070   4.300   3.184  2.1792 -0.5324  1.8190
25542SOL    HW277205   9.154   4.407   3.118  0.0331 -0.4193 -0.9440
25543SOL     OW77206   9.357   3.832   9.722 -0.1869  0.0965  0.1561
25543SOL    HW177207   9.355   3.803   9.813 -1.0304  0.7934  0.3622
25543SOL    HW277208   9.441   3.798   9.689  0.0425 -0.3247  1.1244
25544SOL     OW77209   5.532   1.098   7.099 -0.2052 -0.6843 -0.0026
25544SOL    HW177210   5.617   1.139   7.115 -0.4029 -0.4755  0.5442
25544SOL    HW277211   5.478   1.168   7.062 -0.2791 -0.6814  0.1069
25545SOL     OW77212   2.336   0.893   9.814 -0.2035  0.1588 -0.0905
25545SOL    HW177213   2.380   0.808   9.806 -0.5620 -0.0014 -0.4308
25545SOL    HW277214   2.391   0.943   9.874 -0.2434 -0.4841  0.5030
25546SOL     OW77215   8.941   0.823   9.716 -0.4985 -0.4760  0.6684
25546SOL    HW177216   9.000   0.853   9.785 -0.1481 -1.5774  0.8646
25546SOL    HW277217   8.998   0.785   9.649 -0.9575 -1.6178  0.8925
25547SOL     OW77218   4.783   9.873   7.355  0.0434 -0.0582  0.2916
25547SOL    HW177219   4.778   9.861   7.450 -1.3450  0.3281  0.2931
25547SOL    HW277220   4.800   9.966   7.343 -0.0393 -0.0607  0.1586
25548SOL     OW77221   7.051   4.259   0.854  0.8611 -0.0570  1.1670
25548SOL    HW177222   6.980   4.201   0.882 -2.2496  1.6259 -2.3065
25548SOL    HW277223   7.038   4.338   0.905 -0.7538  0.7093 -0.3127
25549SOL     OW77224   3.771   2.930   0.318 -0.0540 -0.0482 -0.2536
25549SOL    HW177225   3.735   2.854   0.364  1.5291 -1.9724 -1.9628
25549SOL    HW277226   3.708   2.948   0.248 -0.7363  0.6377  0.5257
25550SOL     OW77227   7.092   0.596   0.426  0.3901  0.0007  0.5843
25550SOL    HW177228   7.141   0.677   0.412 -1.1206  0.8749  0.0942
25550SOL    HW277229   7.038   0.587   0.348 -3.0586  1.1944  2.6199
25551SOL     OW77230   4.798   2.152   5.846 -0.1053 -0.4308 -0.8060
25551SOL    HW177231   4.766   2.237   5.817 -1.1251 -0.4898  0.0865
25551SOL    HW277232   4.774   2.147   5.939  0.3279 -1.5094 -0.7334
25552SOL     OW77233   9.569   5.044   0.995  0.0035 -0.1653  0.0266
25552SOL    HW177234   9.661   5.052   0.970 -0.3761  0.1316 -1.3463
25552SOL    HW277235   9.544   5.133   1.021  0.1390 -0.2826  0.5800
25553SOL     OW77236   4.342   5.059   3.597 -0.0050  0.0559 -0.7093
25553SOL    HW177237   4.295   4.978   3.575 -0.3912  0.5712 -1.8376
25553SOL    HW277238   4.431   5.044   3.564  0.3820 -0.5146  0.5138
25554SOL     OW77239   3.163   6.643   2.660  0.7022 -0.3271 -0.3783
25554SOL    HW177240   3.159   6.596   2.744 -0.5707  0.2542 -0.0866
25554SOL    HW277241   3.132   6.580   2.596  1.2484 -0.6272 -0.3560
25555SOL     OW77242   0.514   6.657   3.822 -0.0149 -0.6857 -0.0234
25555SOL    HW177243   0.551   6.588   3.767  2.4583 -0.4000  1.1581
25555SOL    HW277244   0.570   6.733   3.805 -1.4002  0.4233  0.2628
25556SOL     OW77245   9.101   6.121   6.942  0.0948 -0.1611 -0.3944
25556SOL    HW177246   9.182   6.079   6.914  1.2444  1.6032  0.1688
25556SOL    HW277247   9.104   6.208   6.903 -1.7436 -0.1987 -0.6986
25557SOL     OW77248   8.562   1.054   1.771 -0.3377  0.0538  0.3949
25557SOL    HW177249   8.628   0.994   1.808  0.2095  0.9906  0.9764
25557SOL    HW277250   8.504   0.997   1.720  0.6214 -0.8658  0.2935
25558SOL     OW77251   4.740   6.369   9.384 -0.2740  0.1147 -0.2055
25558SOL    HW177252   4.811   6.376   9.320  0.3492 -0.9549  0.3372
25558SOL    HW277253   4.693   6.289   9.360 -0.9046  0.4654 -0.1640
25559SOL     OW77254   3.580   5.444   8.374  0.1623 -0.3083  0.0492
25559SOL    HW177255   3.500   5.485   8.342  0.1497 -0.2095  0.2077
25559SOL    HW277256   3.555   5.403   8.456  0.5353  0.6694  0.6617
25560SOL     OW77257   3.774   0.212   8.784  0.4369 -0.2253 -1.0230
25560SOL    HW177258   3.784   0.127   8.829  0.1111 -0.9646 -2.3069
25560SOL    HW277259   3.745   0.189   8.696 -1.1436  1.3147 -0.9429
25561SOL     OW77260   4.883   5.051   8.961 -0.0619 -0.3969  0.0612
25561SOL    HW177261   4.929   5.133   8.981 -1.5456  0.1424  1.5109
25561SOL    HW277262   4.948   4.983   8.977  0.5743  0.3873  0.9673
25562SOL     OW77263   5.042   3.196   8.990  0.1806 -0.3870 -0.2782
25562SOL    HW177264   4.969   3.233   9.038 -0.1072 -1.0772 -0.1713
25562SOL    HW277265   5.099   3.159   9.058  1.2579  1.2032 -0.2605
25563SOL     OW77266   5.125   3.372   5.703 -0.6482  0.4561 -0.4244
25563SOL    HW177267   5.156   3.300   5.758  0.7469 -0.1899 -1.9846
25563SOL    HW277268   5.033   3.352   5.687 -0.4361 -0.6590 -0.3271
25564SOL     OW77269   0.536   3.935   6.252  0.0016  0.9002  0.2226
25564SOL    HW177270   0.620   3.979   6.259  0.9447 -0.7358 -0.3619
25564SOL    HW277271   0.511   3.944   6.160 -0.3209  1.1360  0.3322
25565SOL     OW77272   4.435   0.243   9.149  0.1522  0.2279 -0.6844
25565SOL    HW177273   4.400   0.331   9.165  1.4979  0.8744 -1.1671
25565SOL    HW277274   4.372   0.203   9.089 -0.3992  0.9065 -0.5697
25566SOL     OW77275   3.400   8.426   2.117 -0.2520  0.5427  0.2724
25566SOL    HW177276   3.385   8.499   2.178  0.6801  2.1821 -1.3548
25566SOL    HW277277   3.316   8.416   2.072 -0.0149  1.5581 -0.4330
25567SOL     OW77278   8.862   7.565   2.369  0.2559 -0.1471 -0.6742
25567SOL    HW177279   8.775   7.596   2.345  0.0507 -1.1406 -1.2380
25567SOL    HW277280   8.848   7.515   2.449  0.7106  1.8386  0.7245
25568SOL     OW77281   8.197   1.381   6.716  0.0519 -0.5034 -0.1656
25568SOL    HW177282   8.273   1.411   6.666  0.3303 -1.1227 -0.1249
25568SOL    HW277283   8.128   1.445   6.696 -0.0839 -1.1459 -1.9448
25569SOL     OW77284   7.953   2.281   7.058  0.2664 -0.8211  0.7477
25569SOL    HW177285   8.005   2.361   7.067  0.6258 -1.1516  1.7413
25569SOL    HW277286   7.864   2.307   7.084 -0.3465 -0.0280 -1.8250
25570SOL     OW77287   8.926   5.607   1.518 -0.0728  0.2281 -0.7370
25570SOL    HW177288   8.855   5.549   1.491 -0.0528  0.5293 -1.4618
25570SOL    HW277289   9.003   5.550   1.520 -0.5829 -0.5279  1.7881
25571SOL     OW77290   7.064   3.145   2.339 -0.3947  0.1995  0.3195
25571SOL    HW177291   7.149   3.132   2.380 -0.4912 -1.1784  0.1171
25571SOL    HW277292   7.081   3.208   2.269  0.3221  0.4174  0.6759
25572SOL     OW77293   0.985   6.549   5.780  0.7012 -0.1084  0.2147
25572SOL    HW177294   0.996   6.561   5.685  0.0084 -1.3300 -0.0499
25572SOL    HW277295   0.914   6.608   5.803 -0.6825 -1.3955 -0.4978
25573SOL     OW77296   7.094   1.927   0.406  0.2105 -0.6064  0.8085
25573SOL    HW177297   7.107   1.971   0.490  1.0729 -0.5163  0.6353
25573SOL    HW277298   7.000   1.905   0.405  0.4017 -1.6617  2.3086
25574SOL     OW77299   2.251   7.423   8.795  0.3167 -0.3276  0.2142
25574SOL    HW177300   2.218   7.390   8.879  0.2316  1.5122  0.9668
25574SOL    HW277301   2.341   7.390   8.790  0.2305 -0.6877  0.8972
25575SOL     OW77302   9.804   4.004   1.628  0.2844  0.3592 -0.3888
25575SOL    HW177303   9.851   3.942   1.684 -1.5198  0.2142  1.0586
25575SOL    HW277304   9.738   3.952   1.585 -0.6897  1.1002  0.1675
25576SOL     OW77305   4.027   9.280   8.120 -0.2705 -0.3773  0.6141
25576SOL    HW177306   4.065   9.251   8.203  0.2666  0.5400  0.7025
25576SOL    HW277307   4.093   9.261   8.055 -0.4142 -0.4736  0.4956
25577SOL     OW77308   9.070   8.469   4.923  0.5170 -0.0024  0.2011
25577SOL    HW177309   9.071   8.563   4.942 -2.4908  0.0892  0.4066
25577SOL    HW277310   9.020   8.462   4.842 -0.5850 -1.4979  0.9653
25578SOL     OW77311   0.706   6.860   7.241 -0.0830 -0.4328 -0.2989
25578SOL    HW177312   0.764   6.880   7.168  0.3312  0.2673  0.2078
25578SOL    HW277313   0.765   6.836   7.312 -0.4546 -0.5358 -0.0199
25579SOL     OW77314   2.851   2.162   1.541  0.3626  0.3368 -0.3227
25579SOL    HW177315   2.822   2.083   1.496 -1.4132  0.0574  1.2036
25579SOL    HW277316   2.787   2.229   1.516  0.5369  0.7034  0.1995
25580SOL     OW77317   4.076   4.393   1.635  0.1241 -0.4619  0.2021
25580SOL    HW177318   4.013   4.323   1.623  0.2249 -0.6279  0.6378
25580SOL    HW277319   4.160   4.356   1.608 -0.0172 -0.1255 -0.7383
25581SOL     OW77320   5.134   6.775   2.198 -0.0104 -0.4579  0.4571
25581SOL    HW177321   5.173   6.704   2.249  0.2843 -0.4772  0.2064
25581SOL    HW277322   5.041   6.752   2.194  0.1366 -1.0098  0.0946
25582SOL     OW77323   0.745   2.216   9.973  0.0048  0.5721 -0.2472
25582SOL    HW177324   0.788   2.187   9.893  1.0077 -1.2883  0.8857
25582SOL    HW277325   0.786   2.300   9.994  2.8623 -0.8643  0.4907
25583SOL     OW77326   4.433   6.881   4.215  0.3494  0.7388  0.5220
25583SOL    HW177327   4.361   6.913   4.269  0.1229 -0.8647  1.2494
25583SOL    HW277328   4.440   6.788   4.238  2.0557  0.6470 -0.2053
25584SOL     OW77329   0.416   6.917   9.875 -0.8234 -0.1523 -0.2295
25584SOL    HW177330   0.437   7.003   9.837  0.6912  0.3630  1.6468
25584SOL    HW277331   0.485   6.859   9.844 -1.9292 -0.8089 -1.6203
25585SOL     OW77332   2.673   4.477   8.262  0.2133 -0.6489  0.1340
25585SOL    HW177333   2.641   4.555   8.216 -0.1582 -1.0914 -0.3540
25585SOL    HW277334   2.594   4.434   8.295  0.2571 -1.8346 -1.2136
25586SOL     OW77335   7.162   6.969   1.555 -0.9128  0.0786  0.2718
25586SOL    HW177336   7.173   7.047   1.610  1.5871 -0.4146  0.5529
25586SOL    HW277337   7.184   6.998   1.467  0.9312 -0.4792  0.5206
25587SOL     OW77338   6.126   8.270   4.796  0.3195  0.0861  0.4040
25587SOL    HW177339   6.156   8.304   4.880  0.8186  1.7388 -0.4059
25587SOL    HW277340   6.190   8.201   4.775  0.2991 -0.2116  1.2620
25588SOL     OW77341   5.853   6.705   0.740 -0.2510 -0.1325 -0.5064
25588SOL    HW177342   5.775   6.753   0.713 -0.4157 -1.3158 -2.2232
25588SOL    HW277343   5.820   6.629   0.787 -0.1741 -0.9761 -1.7967
25589SOL     OW77344   6.109   1.421   3.584  0.2460  0.4971  0.1979
25589SOL    HW177345   6.039   1.485   3.596 -0.9753 -1.2293  4.2916
25589SOL    HW277346   6.187   1.463   3.621  0.4602  0.9897 -0.7778
25590SOL     OW77347   3.583   7.213   5.293  0.3929 -0.1631 -0.1938
25590SOL    HW177348   3.597   7.183   5.204 -2.0812  0.6020 -0.9224
25590SOL    HW277349   3.636   7.293   5.300 -0.0303  0.2282 -1.2650
25591SOL     OW77350   2.415   4.777   5.396  0.4888 -0.3425  0.1176
25591SOL    HW177351   2.432   4.796   5.304  0.9382  0.8647  0.4270
25591SOL    HW277352   2.502   4.772   5.436  0.2746  1.4729  0.8998
25592SOL     OW77353   5.795   3.292   6.356 -0.6019  0.3421  0.3852
25592SOL    HW177354   5.837   3.357   6.412  0.5191 -0.6776  0.7527
25592SOL    HW277355   5.715   3.269   6.403 -0.8891  1.2636  0.3706
25593SOL     OW77356   5.348   8.612   5.080 -0.4342 -0.0939 -0.2225
25593SOL    HW177357   5.408   8.541   5.101  1.5719  1.4699 -0.4004
25593SOL    HW277358   5.294   8.622   5.158  0.0886 -1.0057  0.2694
25594SOL     OW77359   8.508   2.401   6.270 -0.2660 -0.1332 -0.1447
25594SOL    HW177360   8.423   2.411   6.226 -0.4950 -0.3634  0.2438
25594SOL    HW277361   8.500   2.455   6.349 -0.8417 -1.8262  1.0075
25595SOL     OW77362   9.132   2.843   4.641 -0.1686 -0.2957  0.0666
25595SOL    HW177363   9.057   2.788   4.619  0.0754 -1.4862  1.9721
25595SOL    HW277364   9.201   2.816   4.581 -0.2112 -1.7477  0.6266
25596SOL     OW77365   2.397   5.868   5.199 -0.0103 -0.3316  0.1194
25596SOL    HW177366   2.457   5.796   5.178  1.9186  0.8867  1.1501
25596SOL    HW277367   2.323   5.826   5.242  0.8191 -1.7688  0.2059
25597SOL     OW77368   6.837   7.331   6.455  0.0825  0.3607 -0.4153
25597SOL    HW177369   6.812   7.332   6.362  0.6739 -1.1865 -0.6262
25597SOL    HW277370   6.823   7.421   6.485 -1.1822  0.6421 -1.7146
25598SOL     OW77371   3.872   2.401   4.596 -0.7527 -0.2348 -0.3938
25598SOL    HW177372   3.926   2.451   4.656 -0.6994 -2.2695  1.3804
25598SOL    HW277373   3.790   2.387   4.643 -0.7556 -1.7775 -0.7908
25599SOL     OW77374   7.515   0.485   5.361 -0.6050  0.1852 -0.1266
25599SOL    HW177375   7.602   0.504   5.396 -1.0219  1.0767  0.4489
25599SOL    HW277376   7.454   0.525   5.424 -1.4250 -0.1831 -0.6675
25600SOL     OW77377   5.425   7.927   3.747  0.8312 -0.2175  0.3739
25600SOL    HW177378   5.363   7.938   3.819  0.2497  0.3596 -0.2131
25600SOL    HW277379   5.420   7.834   3.725 -1.1398  0.1270 -0.8194
25601SOL     OW77380   0.642   7.756   3.692  0.8745 -0.3942  0.1047
25601SOL    HW177381   0.575   7.752   3.624 -0.2642  0.8638  1.1210
25601SOL    HW277382   0.695   7.833   3.670  0.5390 -0.0178  0.5928
25602SOL     OW77383   4.901   8.525   5.284  0.1460  0.3811 -0.1951
25602SOL    HW177384   4.918   8.598   5.344 -0.0251  1.4341 -1.3863
25602SOL    HW277385   4.833   8.557   5.225 -0.3996 -0.9852 -0.3531
25603SOL     OW77386   2.235   6.103   7.895 -0.5618 -0.4144  0.2724
25603SOL    HW177387   2.150   6.108   7.851 -0.9570 -1.0605  0.9409
25603SOL    HW277388   2.286   6.041   7.843  0.1531  1.2882 -1.1551
25604SOL     OW77389   4.169   9.210   8.345 -0.1163 -0.1150 -0.4362
25604SOL    HW177390   4.141   9.130   8.389  0.5373 -0.7590 -1.1726
25604SOL    HW277391   4.265   9.210   8.354  0.0144 -0.1877 -1.7337
25605SOL     OW77392   2.633   9.144   2.555 -0.0012 -0.1382  0.0125
25605SOL    HW177393   2.551   9.102   2.579 -0.7640  1.4177  0.2725
25605SOL    HW277394   2.681   9.078   2.504  0.2773 -2.4381  2.9893
25606SOL     OW77395   5.852   7.103   5.985  0.1856  0.3582 -0.0022
25606SOL    HW177396   5.894   7.064   6.062  2.0785  2.2444  0.0116
25606SOL    HW277397   5.826   7.028   5.931  1.2510 -0.9495  1.2283
25607SOL     OW77398   3.612   0.569   4.659 -0.0312 -0.3556 -0.2672
25607SOL    HW177399   3.601   0.664   4.667 -1.0593 -0.4302 -0.6031
25607SOL    HW277400   3.584   0.534   4.743  0.5452 -0.3576 -0.0700
25608SOL     OW77401   7.440   4.904   9.861  0.0163 -0.3491  0.1644
25608SOL    HW177402   7.520   4.902   9.808 -0.0974 -0.7497  0.0025
25608SOL    HW277403   7.396   4.985   9.835 -0.5497 -1.0367 -1.1298
25609SOL     OW77404   8.490   3.583   3.708 -0.1004 -0.4214 -0.1684
25609SOL    HW177405   8.474   3.658   3.650 -0.6912 -0.8622 -0.5929
25609SOL    HW277406   8.464   3.614   3.794  2.5540  0.8774  0.2651
25610SOL     OW77407   2.155   4.835   9.235 -0.0722 -0.0980 -0.3393
25610SOL    HW177408   2.117   4.923   9.234  1.1489  0.4865  0.6362
25610SOL    HW277409   2.085   4.778   9.267 -1.1368  0.3650 -1.7764
25611SOL     OW77410   3.830   2.619   2.537  0.3060 -0.0322 -0.0603
25611SOL    HW177411   3.913   2.628   2.583 -1.3169  2.5861  2.6812
25611SOL    HW277412   3.772   2.576   2.600 -0.8656 -0.3392 -1.3048
25612SOL     OW77413   3.204   9.507   1.430 -0.5362  0.3797 -0.6589
25612SOL    HW177414   3.145   9.505   1.505 -1.1557 -1.0427 -1.1589
25612SOL    HW277415   3.270   9.441   1.449 -1.1472 -0.5691 -1.6968
25613SOL     OW77416   4.372   1.007   3.618  0.0766  0.2909  0.4864
25613SOL    HW177417   4.390   1.098   3.595 -1.2430  0.7333  1.0917
25613SOL    HW277418   4.279   0.996   3.599  0.3704 -1.1545 -0.2282
25614SOL     OW77419   1.677   1.039   7.745  0.0962  0.2316 -0.2041
25614SOL    HW177420   1.725   0.980   7.803  0.0645  1.9685  1.6801
25614SOL    HW277421   1.726   1.036   7.662  1.8819 -0.0788  0.8138
25615SOL     OW77422   2.833   7.716   2.176  0.1758  0.2911  0.5733
25615SOL    HW177423   2.833   7.811   2.165  2.5083  0.2686 -0.2691
25615SOL    HW277424   2.848   7.682   2.088 -1.6459 -0.9528  0.6866
25616SOL     OW77425   3.491   0.072   0.066 -0.6291  0.6286  0.1932
25616SOL    HW177426   3.506  -0.021   0.082  1.3867  0.5287 -1.7430
25616SOL    HW277427   3.510   0.115   0.150 -0.8567 -0.6338  0.9070
25617SOL     OW77428   4.366   5.122   1.653  0.2117 -0.3599 -0.4268
25617SOL    HW177429   4.284   5.163   1.681  0.9196  1.1565 -0.5326
25617SOL    HW277430   4.365   5.130   1.558 -0.3586 -2.0139 -0.5932
25618SOL     OW77431   3.993   3.508   3.241  0.4856  0.8563 -0.4722
25618SOL    HW177432   4.002   3.603   3.233  0.3611  0.7283 -2.9256
25618SOL    HW277433   4.083   3.476   3.250  0.4918  1.2143  0.8885
25619SOL     OW77434   6.313   2.714   2.892 -0.6659 -0.3575  0.7900
25619SOL    HW177435   6.288   2.638   2.945 -1.7600 -2.0614 -1.9214
25619SOL    HW277436   6.389   2.685   2.842 -0.5312  0.6523  0.3776
25620SOL     OW77437   3.918   3.597   4.060 -0.1954 -0.7556  0.4120
25620SOL    HW177438   3.962   3.590   4.145  0.9963 -0.9835 -0.2044
25620SOL    HW277439   3.910   3.691   4.045 -0.7912 -0.7146  0.9598
25621SOL     OW77440   9.924   7.466   6.541 -0.0858  0.5314 -0.3747
25621SOL    HW177441   9.882   7.431   6.463  0.0765  2.1034 -1.1976
25621SOL    HW277442  10.017   7.452   6.526 -0.1019  0.0404 -0.0472
25622SOL     OW77443   1.937   4.002   9.252 -0.1414 -0.4601 -0.0511
25622SOL    HW177444   2.006   4.056   9.289 -1.1434  1.1732 -0.4923
25622SOL    HW277445   1.923   4.038   9.164 -0.8730 -1.4089 -0.3392
25623SOL     OW77446   5.813   6.152   4.366  0.6748 -0.3247  0.0072
25623SOL    HW177447   5.728   6.108   4.364  0.9409 -0.8551 -2.6334
25623SOL    HW277448   5.842   6.143   4.457 -1.3260 -1.5750  0.5949
25624SOL     OW77449   0.679   2.288   9.558  0.0967 -0.1746  0.6750
25624SOL    HW177450   0.626   2.255   9.486  2.0851 -0.4832 -0.7343
25624SOL    HW277451   0.768   2.258   9.538  1.0706  1.5371  2.1467
25625SOL     OW77452   3.642   1.572   6.736 -0.2960  0.4162 -0.1053
25625SOL    HW177453   3.731   1.552   6.765 -0.1360  0.9431 -0.2112
25625SOL    HW277454   3.609   1.490   6.699 -0.6998 -0.4585  2.0318
25626SOL     OW77455   6.316   5.979   2.999 -0.0353 -0.0987  0.6703
25626SOL    HW177456   6.404   5.945   3.014  0.1197 -0.0056  0.0022
25626SOL    HW277457   6.282   5.927   2.926  0.3040  1.3234 -0.5489
25627SOL     OW77458   2.255   7.084   0.990 -0.5026 -0.3042 -0.5694
25627SOL    HW177459   2.172   7.040   1.007 -1.3959  1.4762 -0.0954
25627SOL    HW277460   2.318   7.013   0.979 -2.0268 -1.6915 -0.7011
25628SOL     OW77461   6.081   8.495   3.830  0.7571 -0.3542 -0.0824
25628SOL    HW177462   5.986   8.488   3.838  0.8077  0.2472  1.2915
25628SOL    HW277463   6.113   8.406   3.845  0.4887 -0.2876  0.8984
25629SOL     OW77464   5.807   0.788   4.674  0.0637  0.6825 -0.3272
25629SOL    HW177465   5.764   0.703   4.690 -2.8958  1.8682 -1.1987
25629SOL    HW277466   5.808   0.831   4.759  0.4447  0.2701 -0.1173
25630SOL     OW77467   2.465   3.755   9.310  0.3383 -0.9900  0.0498
25630SOL    HW177468   2.446   3.695   9.238 -1.1089 -0.2583 -0.2175
25630SOL    HW277469   2.494   3.835   9.267 -0.1970 -0.6674  0.2684
25631SOL     OW77470   0.910   8.737   1.745  0.0482 -0.4555  0.2014
25631SOL    HW177471   0.895   8.828   1.771 -1.0279 -0.6399  0.2419
25631SOL    HW277472   0.953   8.743   1.660 -0.1772  0.0830  0.1243
25632SOL     OW77473   0.849   6.710   1.572 -0.0398 -0.3558 -0.3274
25632SOL    HW177474   0.776   6.661   1.534  1.0223 -2.7346  0.5312
25632SOL    HW277475   0.849   6.686   1.664  0.5703  1.2842  0.1383
25633SOL     OW77476   6.189   3.649   8.594  0.5595 -0.3600  0.0368
25633SOL    HW177477   6.162   3.680   8.680  0.5188 -1.7894  0.5601
25633SOL    HW277478   6.107   3.641   8.545 -0.0647 -4.0175  1.4004
25634SOL     OW77479   0.211   7.705   1.699 -0.4129  0.0463  0.4612
25634SOL    HW177480   0.233   7.668   1.785 -0.9834  0.1717  0.6665
25634SOL    HW277481   0.236   7.797   1.706 -0.8090  0.1428  0.6245
25635SOL     OW77482   3.191   8.498   3.640  0.3635 -0.1283  0.7985
25635SOL    HW177483   3.275   8.467   3.672  0.4863  2.0158  2.8831
25635SOL    HW277484   3.126   8.442   3.683  0.5859 -2.7835 -1.9630
25636SOL     OW77485   5.355   1.707   2.792  0.7590  0.8387 -0.1432
25636SOL    HW177486   5.283   1.732   2.849  0.5787  1.2869 -0.5669
25636SOL    HW277487   5.332   1.742   2.706  1.3014  0.6611 -0.3671
25637SOL     OW77488   6.162   2.506   2.263  0.4852  0.2431 -0.1621
25637SOL    HW177489   6.109   2.537   2.336  1.4353 -0.1205  0.6937
25637SOL    HW277490   6.217   2.581   2.240  0.8972  0.0397  0.1576
25638SOL     OW77491   8.476   4.227   9.484  0.0540  0.5078 -0.0103
25638SOL    HW177492   8.409   4.253   9.547  0.6294  0.3837  0.6696
25638SOL    HW277493   8.538   4.300   9.482 -0.7779  1.2211 -1.6527
25639SOL     OW77494   4.683   3.267   6.751  0.1877 -0.1861 -0.5660
25639SOL    HW177495   4.624   3.332   6.788  0.9771  0.2920 -0.1477
25639SOL    HW277496   4.690   3.199   6.818  1.4198  0.5600  0.0913
25640SOL     OW77497   3.750   4.598   6.495  0.0539 -0.1150  0.1097
25640SOL    HW177498   3.698   4.658   6.442  0.6091 -0.1472 -0.4852
25640SOL    HW277499   3.743   4.514   6.449  1.9157  0.2182 -0.9192
25641SOL     OW77500   1.529   0.681   2.064 -0.1432  0.2795 -0.2162
25641SOL    HW177501   1.508   0.734   2.141  2.6032  1.2449  0.0148
25641SOL    HW277502   1.501   0.593   2.087 -2.3857  1.0982  0.4992
25642SOL     OW77503   5.003   2.077   3.680 -0.1157  0.5334 -0.1422
25642SOL    HW177504   5.081   2.086   3.735  1.5903 -0.9839 -2.1414
25642SOL    HW277505   5.001   1.984   3.656 -2.5155  0.5564 -0.2250
25643SOL     OW77506   3.055   8.386   9.940  0.4211 -0.4237 -0.0851
25643SOL    HW177507   3.106   8.343  10.009  0.4002 -0.4152 -0.0640
25643SOL    HW277508   3.025   8.314   9.883 -1.6128 -0.7319  1.2525
25644SOL     OW77509   8.352   4.608   1.112  0.3591  0.2659  0.4352
25644SOL    HW177510   8.315   4.596   1.025  1.6631 -0.2709 -0.0820
25644SOL    HW277511   8.276   4.617   1.170 -0.5256  1.5083 -0.8509
25645SOL     OW77512   1.269   2.848   0.210  0.2411 -0.0572  0.0665
25645SOL    HW177513   1.231   2.850   0.122 -1.3189 -0.4167  0.7012
25645SOL    HW277514   1.223   2.777   0.254  1.0511  0.0768  1.1644
25646SOL     OW77515   9.939   5.460   4.145 -0.1176 -0.0216 -0.1256
25646SOL    HW177516   9.990   5.541   4.143  1.5259 -0.9927  0.0831
25646SOL    HW277517  10.005   5.391   4.138 -1.4061 -1.3529  0.4176
25647SOL     OW77518   9.872   9.867   6.185 -0.3512 -0.2586  0.7747
25647SOL    HW177519   9.910   9.926   6.250 -0.7983 -0.5786  1.3274
25647SOL    HW277520   9.842   9.926   6.115  2.0686 -0.0628 -0.1779
25648SOL     OW77521   5.645   0.649   5.099  0.7819 -0.0386 -0.5328
25648SOL    HW177522   5.680   0.704   5.029  0.1030  0.4522 -0.4956
25648SOL    HW277523   5.624   0.710   5.169  1.4727 -0.5315  0.1165
25649SOL     OW77524   1.242   8.281   3.682 -0.4416  0.7048  0.1187
25649SOL    HW177525   1.170   8.327   3.726 -1.7473 -0.5289 -0.6332
25649SOL    HW277526   1.317   8.293   3.741 -1.4024  1.4822  1.2562
25650SOL     OW77527   3.962   5.980   6.950 -0.7199 -0.3642  0.4978
25650SOL    HW177528   3.885   6.037   6.951 -1.5474 -1.3856  2.7049
25650SOL    HW277529   3.926   5.892   6.966  0.7501 -1.1171 -0.2334
25651SOL     OW77530   2.888   0.412   3.059 -0.3912  0.1384  0.0509
25651SOL    HW177531   2.876   0.322   3.027 -0.4349 -0.0051  0.4583
25651SOL    HW277532   2.799   0.446   3.068 -0.3563  0.7146 -1.4256
25652SOL     OW77533   2.274   8.699   3.497  0.1171  0.3789 -0.0845
25652SOL    HW177534   2.322   8.773   3.536  0.1502  0.3624 -0.0942
25652SOL    HW277535   2.210   8.741   3.439 -0.4032  0.4303  0.5170
25653SOL     OW77536   6.991   8.822   9.698  0.2425 -0.2431 -0.2701
25653SOL    HW177537   6.952   8.735   9.707  0.8644 -0.5194 -0.2005
25653SOL    HW277538   6.939   8.865   9.630 -0.8629 -0.2131  0.5668
25654SOL     OW77539   7.043   4.189   4.627  0.1369 -0.1849  0.0545
25654SOL    HW177540   6.995   4.138   4.692  0.0369  0.3059  0.3722
25654SOL    HW277541   7.124   4.214   4.671  0.9057 -1.3767 -0.6223
25655SOL     OW77542   8.065   9.979   9.218  0.0282 -0.1963 -0.0639
25655SOL    HW177543   7.990   9.932   9.254  0.0314 -1.0040 -1.0842
25655SOL    HW277544   8.034  10.012   9.133  0.3370  0.8116  0.2014
25656SOL     OW77545   3.292   4.384   9.634 -0.2182 -0.3857 -0.1855
25656SOL    HW177546   3.379   4.408   9.604  0.2519 -1.5312  0.1840
25656SOL    HW277547   3.283   4.428   9.719 -0.5038  0.7195 -0.7692
25657SOL     OW77548   0.662   3.360   6.753 -0.2428 -0.1416 -0.0914
25657SOL    HW177549   0.711   3.310   6.819  0.0489  1.8853  1.3034
25657SOL    HW277550   0.571   3.358   6.784 -0.2494  0.1215 -0.0950
25658SOL     OW77551   0.975   7.988   2.900  0.0800  0.4772  0.4215
25658SOL    HW177552   0.999   8.058   2.840 -0.6560  0.9195  0.6295
25658SOL    HW277553   0.881   7.998   2.913  0.1744  0.2229  1.4234
25659SOL     OW77554   7.733   5.225   3.171 -0.4978 -0.3350 -0.4499
25659SOL    HW177555   7.800   5.243   3.105  0.0068 -3.2940 -0.9013
25659SOL    HW277556   7.768   5.263   3.252  1.5473 -1.3292 -0.7960
25660SOL     OW77557   8.366   3.504   0.388 -0.3181 -0.5943 -0.1182
25660SOL    HW177558   8.279   3.503   0.348 -0.4269  0.6206  0.0605
25660SOL    HW277559   8.426   3.486   0.315 -0.6904 -1.3122 -0.2651
25661SOL     OW77560   4.359   7.663   9.051 -0.1078 -0.1709 -0.5461
25661SOL    HW177561   4.342   7.599   8.982 -0.8406  0.9000 -1.3919
25661SOL    HW277562   4.436   7.629   9.097  0.9264 -0.5149 -2.4059
25662SOL     OW77563   7.474   9.386   3.076  0.4101 -0.3439  0.0517
25662SOL    HW177564   7.473   9.470   3.122 -0.9763 -0.8218  0.9348
25662SOL    HW277565   7.382   9.364   3.063  0.7326 -0.2809 -2.9334
25663SOL     OW77566   5.698   4.678   3.602 -0.0156  0.0459 -0.1067
25663SOL    HW177567   5.678   4.586   3.587 -0.7020  0.1865 -0.0724
25663SOL    HW277568   5.794   4.682   3.603  0.0229 -0.5622 -0.7509
25664SOL     OW77569   2.313   8.906   4.681 -0.3747  0.3212  0.1764
25664SOL    HW177570   2.396   8.947   4.656 -0.0580  0.1034  0.8306
25664SOL    HW277571   2.281   8.865   4.601  1.6470 -2.1209  0.4881
25665SOL     OW77572   6.370   5.674   3.474 -0.3157  0.3649 -0.3820
25665SOL    HW177573   6.330   5.682   3.560 -0.3919  1.5428 -0.5094
25665SOL    HW277574   6.297   5.653   3.416 -0.8008  2.4651 -0.6074
25666SOL     OW77575   1.495   2.243   2.479  0.2015  1.3032  0.1797
25666SOL    HW177576   1.427   2.249   2.412 -1.6977 -2.2726  1.5318
25666SOL    HW277577   1.558   2.180   2.444 -0.4886 -0.1231  1.3803
25667SOL     OW77578   9.184   4.288   7.073 -0.3394  0.7333 -0.3183
25667SOL    HW177579   9.239   4.263   7.147  0.2869  0.6616 -0.8078
25667SOL    HW277580   9.103   4.320   7.114  0.1164  0.9865  0.4075
25668SOL     OW77581   9.619   0.143   7.655 -0.2686  0.4307  0.1075
25668SOL    HW177582   9.708   0.115   7.636 -0.5063  0.5873 -1.4293
25668SOL    HW277583   9.627   0.236   7.677 -0.0619  0.4707 -0.1355
25669SOL     OW77584   8.074   8.004   8.091 -0.0511  0.4597  0.6235
25669SOL    HW177585   7.989   7.999   8.049  0.0885  0.5736  0.3238
25669SOL    HW277586   8.096   7.913   8.113  2.0377 -0.4316 -3.8792
25670SOL     OW77587   8.367   3.737   3.900 -0.1286  0.1116 -0.1014
25670SOL    HW177588   8.407   3.793   3.834 -0.2010 -0.1545 -0.3737
25670SOL    HW277589   8.367   3.789   3.980  2.2201 -0.4454  0.3284
25671SOL     OW77590   0.098   9.908   0.057  0.5320  0.0123 -0.1069
25671SOL    HW177591   0.191   9.926   0.069  0.3770  0.0113  1.2805
25671SOL    HW277592   0.057   9.994   0.046  0.5431  0.0978  0.5194
25672SOL     OW77593   8.436   5.831   3.678 -0.1149  0.8112 -0.3461
25672SOL    HW177594   8.512   5.887   3.694 -0.0597  0.3393  1.2269
25672SOL    HW277595   8.362   5.891   3.675 -0.2823  0.9604  2.9296
25673SOL     OW77596   7.548   1.593   0.446 -0.1898 -0.0960 -0.2243
25673SOL    HW177597   7.545   1.523   0.511 -1.1804  0.7695  0.6779
25673SOL    HW277598   7.558   1.546   0.362  2.4580 -1.1743  0.5780
25674SOL     OW77599   4.669   3.118   9.339  0.1553  0.0391 -0.0465
25674SOL    HW177600   4.759   3.134   9.367 -0.0745 -0.0415  0.7361
25674SOL    HW277601   4.647   3.032   9.374  0.1296 -0.4310 -1.1464
25675SOL     OW77602   3.411   9.648   2.718 -0.5067  0.7325  0.8237
25675SOL    HW177603   3.420   9.738   2.751  3.5495  1.2904 -1.0982
25675SOL    HW277604   3.464   9.595   2.777  0.1312  0.3069 -0.1033
25676SOL     OW77605   6.432   8.137   8.801 -0.1231 -0.0472  0.0269
25676SOL    HW177606   6.341   8.106   8.810  0.2392 -1.1194  0.1318
25676SOL    HW277607   6.423   8.229   8.778 -1.3164 -0.7215 -2.6444
25677SOL     OW77608   9.635   7.412   1.181 -0.2290 -0.2841  0.3656
25677SOL    HW177609   9.691   7.467   1.125  0.5499  0.6358  1.9874
25677SOL    HW277610   9.674   7.325   1.175 -1.1710 -0.6445 -1.8241
25678SOL     OW77611   4.176   2.574   0.381 -0.2304  0.2083  0.2138
25678SOL    HW177612   4.242   2.576   0.312  0.3242  3.2099  0.7018
25678SOL    HW277613   4.192   2.491   0.427  1.1038 -0.6044 -1.5871
25679SOL     OW77614   8.828   4.071   0.930 -0.7205 -0.1942 -0.1876
25679SOL    HW177615   8.920   4.075   0.958 -0.7756  2.2867 -0.0841
25679SOL    HW277616   8.785   4.019   0.997 -0.0460  1.9545  2.0681
25680SOL     OW77617   5.244   0.296   3.148 -0.0182 -0.2997 -0.0890
25680SOL    HW177618   5.323   0.243   3.151  0.3838  0.1831 -1.4572
25680SOL    HW277619   5.205   0.278   3.063  0.4968  2.0430 -0.9044
25681SOL     OW77620   0.219   4.479   6.118  0.2467  0.7058  0.3004
25681SOL    HW177621   0.223   4.521   6.204  0.1741 -1.8167  1.6386
25681SOL    HW277622   0.133   4.502   6.084  0.2089  1.5947  0.9598
25682SOL     OW77623   0.074   6.290   0.720  0.4389  0.1207 -0.4194
25682SOL    HW177624   0.106   6.247   0.641  1.1361  0.2748 -0.2214
25682SOL    HW277625   0.150   6.333   0.757  0.6334 -1.7369  1.5140
25683SOL     OW77626   5.302   1.802   1.859  0.3983  0.2396  0.2227
25683SOL    HW177627   5.214   1.833   1.837  0.5907 -0.8336 -2.4675
25683SOL    HW277628   5.287   1.716   1.898  0.2101 -0.7375 -1.8242
25684SOL     OW77629   6.791   9.108   9.234  0.2627 -0.1249 -0.2656
25684SOL    HW177630   6.777   9.132   9.326  0.6556  0.8913 -0.4626
25684SOL    HW277631   6.705   9.077   9.205  0.3203 -1.2429  0.6478
25685SOL     OW77632   4.372   5.647   5.715 -0.3402 -0.0289 -0.1164
25685SOL    HW177633   4.296   5.652   5.774 -1.5560 -0.6378 -1.5750
25685SOL    HW277634   4.348   5.580   5.651  1.7284 -0.7078 -0.2448
25686SOL     OW77635   5.997   2.636   4.131 -0.0375  0.1557  0.0072
25686SOL    HW177636   5.949   2.581   4.068 -1.3047  1.0220  0.1831
25686SOL    HW277637   6.063   2.680   4.078 -0.2924 -0.0561 -0.5007
25687SOL     OW77638   1.298   3.934   8.105 -0.2525 -0.3119  0.1107
25687SOL    HW177639   1.345   3.885   8.173  2.8307 -0.8189 -2.1494
25687SOL    HW277640   1.288   3.871   8.033 -1.0357  0.8977 -0.8859
25688SOL     OW77641   2.387   9.711   7.616  0.1673  0.6111  0.1148
25688SOL    HW177642   2.365   9.764   7.539 -0.7048 -0.4792 -0.4057
25688SOL    HW277643   2.316   9.727   7.678  0.1122  0.3682  0.1154
25689SOL     OW77644   8.034   4.372   9.184 -0.6575 -0.6248 -0.1721
25689SOL    HW177645   8.028   4.405   9.095 -0.6812 -0.9724 -0.3032
25689SOL    HW277646   8.096   4.431   9.228 -1.4278  0.1610 -0.1242
25690SOL     OW77647   8.077   4.861   0.764  0.1476 -0.0456 -0.0968
25690SOL    HW177648   8.073   4.939   0.819  0.3737 -0.6502  0.8022
25690SOL    HW277649   8.155   4.874   0.709 -0.0212  0.5166 -0.2057
25691SOL     OW77650   1.378   1.062   8.478  0.2382  0.2945 -0.6939
25691SOL    HW177651   1.462   1.039   8.518  0.4586  2.3718  0.1646
25691SOL    HW277652   1.338   1.122   8.541 -2.9271 -2.2463 -0.0318
25692SOL     OW77653   7.489   5.468   8.492 -0.0161 -0.6052  0.2296
25692SOL    HW177654   7.575   5.507   8.476 -0.9296  1.3383 -0.1143
25692SOL    HW277655   7.470   5.419   8.412 -0.1105  0.6633 -0.5422
25693SOL     OW77656   1.744   5.895   2.535 -1.0655  0.2367  0.3619
25693SOL    HW177657   1.776   5.968   2.483 -0.4874  0.1312  0.5622
25693SOL    HW277658   1.723   5.827   2.471  2.8490 -1.1985  0.3218
25694SOL     OW77659   7.569   3.022   7.274  0.0753  0.2411  0.0790
25694SOL    HW177660   7.567   2.962   7.348 -0.5556  1.1973  0.8623
25694SOL    HW277661   7.577   2.966   7.197  2.2155 -0.7077  0.9316
25695SOL     OW77662   8.579   9.564   2.131 -0.1719  0.0801 -0.1530
25695SOL    HW177663   8.664   9.563   2.176 -1.0367  0.7727  1.6304
25695SOL    HW277664   8.574   9.651   2.091  0.0134 -0.0136 -0.3816
25696SOL     OW77665   5.909   0.924   6.753 -0.1192 -0.7936 -0.4773
25696SOL    HW177666   5.922   0.938   6.847 -1.3054  0.6476 -0.5117
25696SOL    HW277667   5.892   0.830   6.746  0.9014 -1.0936  0.6257
25697SOL     OW77668   2.128   0.514   5.644 -0.4571 -0.2309 -0.0591
25697SOL    HW177669   2.141   0.574   5.718  0.9811  0.3415 -0.7382
25697SOL    HW277670   2.109   0.571   5.570  1.2099 -0.5482 -0.7768
25698SOL     OW77671   7.941   1.408   2.206  0.4011  0.3938  0.4095
25698SOL    HW177672   7.921   1.492   2.165  1.5194  0.6065  0.2660
25698SOL    HW277673   7.923   1.343   2.137 -0.5469  0.4913  0.5481
25699SOL     OW77674   7.264   2.992   5.241  0.5400 -0.3065 -0.7879
25699SOL    HW177675   7.185   3.036   5.272  0.7128 -1.4341  1.5128
25699SOL    HW277676   7.270   2.913   5.295  2.6784 -0.7827 -1.6127
25700SOL     OW77677   4.957   7.355   2.409  0.4464  0.4829  0.4074
25700SOL    HW177678   4.908   7.378   2.329 -1.4150 -2.6403  0.4790
25700SOL    HW277679   4.912   7.404   2.478 -1.5749 -0.9462  0.2086
25701SOL     OW77680   0.945   1.211   2.283  0.1244 -0.1225  0.0811
25701SOL    HW177681   0.937   1.283   2.346 -0.4242 -0.3385  0.2671
25701SOL    HW277682   0.897   1.241   2.206 -0.0507 -0.2631  0.1354
25702SOL     OW77683   7.249   8.224   5.237 -0.0216 -0.1267 -0.0682
25702SOL    HW177684   7.187   8.171   5.287 -0.4937 -0.1524 -0.6696
25702SOL    HW277685   7.230   8.204   5.146  1.1533 -0.4471 -0.2666
25703SOL     OW77686   2.124   2.324   0.706 -0.1023 -0.0651  0.0283
25703SOL    HW177687   2.093   2.239   0.737 -0.0661 -0.0912 -0.0085
25703SOL    HW277688   2.219   2.316   0.704 -0.0411  0.3004  0.9812
25704SOL     OW77689   6.529   0.203   4.422  0.3549  0.0226  0.0573
25704SOL    HW177690   6.581   0.244   4.492  0.2172 -1.1649  0.8721
25704SOL    HW277691   6.518   0.273   4.357  0.9497  0.9897  0.9620
25705SOL     OW77692   9.524   2.347   6.445  0.1427 -0.3472 -0.0460
25705SOL    HW177693   9.605   2.397   6.434 -0.7148  1.1333  0.0879
25705SOL    HW277694   9.552   2.255   6.443  1.6581  0.0934 -1.2101
25706SOL     OW77695   7.462   9.047   1.855  0.1366 -0.0662 -0.0812
25706SOL    HW177696   7.524   8.978   1.875  0.0376  0.0952  0.8409
25706SOL    HW277697   7.516   9.125   1.841  0.3563 -0.5586 -2.4547
25707SOL     OW77698   1.381   0.782   3.048 -0.6732  0.6256 -0.8176
25707SOL    HW177699   1.471   0.811   3.064 -0.1352 -1.5215  0.5913
25707SOL    HW277700   1.343   0.775   3.136 -1.8013  0.3518 -1.3203
25708SOL     OW77701   5.982   9.094   3.175 -0.1233 -0.1186 -0.0524
25708SOL    HW177702   5.953   9.185   3.171  1.1031  0.2638 -2.2683
25708SOL    HW277703   5.903   9.044   3.192 -1.0416  1.2661 -0.0535
25709SOL     OW77704   5.585   8.404   4.415 -0.1147 -0.5310 -0.5326
25709SOL    HW177705   5.595   8.349   4.338 -0.5404 -0.9198 -0.3139
25709SOL    HW277706   5.632   8.357   4.484  0.8560  0.1517 -0.7044
25710SOL     OW77707   5.207   7.632   5.825 -0.5256 -0.3092 -0.4351
25710SOL    HW177708   5.295   7.657   5.855  0.1194 -1.9124 -0.9053
25710SOL    HW277709   5.150   7.698   5.863  0.7193 -0.0190  1.0453
25711SOL     OW77710   8.186   1.711   7.519 -0.2019 -0.6831  0.0181
25711SOL    HW177711   8.259   1.648   7.510  0.8041  0.3942  0.3634
25711SOL    HW277712   8.193   1.743   7.609 -1.2227 -0.6774  0.1029
25712SOL     OW77713   0.271   0.573   6.512  0.3203  0.6406 -0.1569
25712SOL    HW177714   0.256   0.663   6.482 -1.8816  0.6734  0.8968
25712SOL    HW277715   0.317   0.583   6.595 -0.9656  0.8724  0.5479
25713SOL     OW77716   4.542   7.141   1.323  0.1236  0.0527 -0.3853
25713SOL    HW177717   4.488   7.211   1.284 -0.0849  0.0652 -0.0806
25713SOL    HW277718   4.632   7.165   1.301  0.1466  1.0431  0.6723
25714SOL     OW77719   3.155   2.267   1.803 -0.2303  0.2709 -0.0666
25714SOL    HW177720   3.215   2.264   1.877  0.1298 -1.1850 -0.3808
25714SOL    HW277721   3.108   2.183   1.806 -0.9960  0.6544 -0.8316
25715SOL     OW77722   4.148   5.683   9.068 -0.2439 -0.1652  0.7220
25715SOL    HW177723   4.153   5.677   8.973 -0.3750 -1.2792  0.7777
25715SOL    HW277724   4.173   5.596   9.099  0.1452  0.2904  1.7217
25716SOL     OW77725   4.684   0.602   7.438  0.2428  0.0874  0.3630
25716SOL    HW177726   4.767   0.619   7.392 -0.3239  0.0856 -0.6940
25716SOL    HW277727   4.642   0.688   7.444  0.4426  0.1368  1.1672
25717SOL     OW77728   2.340   9.276   9.506 -0.0439 -0.4527  0.4648
25717SOL    HW177729   2.281   9.238   9.442  0.5628 -0.0249 -0.3664
25717SOL    HW277730   2.423   9.230   9.494 -0.4329 -1.7683  2.3120
25718SOL     OW77731   5.005   5.776   3.037 -0.1475 -0.1509  0.0186
25718SOL    HW177732   5.075   5.722   2.999 -0.9972 -0.8924 -0.5526
25718SOL    HW277733   5.003   5.855   2.983 -2.6078 -1.9873 -2.9199
25719SOL     OW77734   7.658   7.608   4.227  0.8194  0.0530  0.7282
25719SOL    HW177735   7.570   7.569   4.229  0.2620  1.2520  1.2131
25719SOL    HW277736   7.664   7.650   4.141  0.3892  1.0576  1.1673
25720SOL     OW77737   9.350   8.089   8.649  0.1376 -0.4484 -0.5178
25720SOL    HW177738   9.398   8.039   8.715 -0.9660  1.4066  1.8442
25720SOL    HW277739   9.259   8.058   8.656 -0.8304  2.5218  1.8758
25721SOL     OW77740   4.184   6.923   6.968  0.5933 -0.0361 -0.5600
25721SOL    HW177741   4.224   6.844   7.005 -1.9386 -0.5867  1.2753
25721SOL    HW277742   4.206   6.992   7.031  0.0334 -0.0017 -0.3988
25722SOL     OW77743   7.940   6.932   9.120  0.5840 -0.1759  0.7551
25722SOL    HW177744   7.973   6.847   9.090 -1.7529 -0.3506 -1.7370
25722SOL    HW277745   7.881   6.960   9.051  1.4474  3.6755  1.3685
25723SOL     OW77746   4.244   2.831   3.306 -0.0166 -0.8538 -0.4367
25723SOL    HW177747   4.256   2.740   3.333 -0.6530 -0.8853 -0.2620
25723SOL    HW277748   4.331   2.870   3.317 -0.0040 -1.1443  0.6086
25724SOL     OW77749   3.250   1.261   2.575 -0.5612  0.5974  0.3954
25724SOL    HW177750   3.204   1.245   2.657  0.0083 -1.9710  0.3139
25724SOL    HW277751   3.290   1.177   2.553  2.1643  2.0572 -0.7804
25725SOL     OW77752   9.671   9.500   8.556 -0.3150  0.2494 -0.0759
25725SOL    HW177753   9.619   9.424   8.533 -1.0586  0.7175  0.0265
25725SOL    HW277754   9.706   9.480   8.643  1.5019 -0.9985 -1.0370
25726SOL     OW77755   1.878   4.215   6.036 -0.0677  0.3815  0.3968
25726SOL    HW177756   1.904   4.190   6.125 -0.4872  1.8348  0.9617
25726SOL    HW277757   1.792   4.257   6.048 -0.8269 -0.7320 -0.8992
25727SOL     OW77758   1.051   4.683   2.711  0.2123 -0.1796  0.7914
25727SOL    HW177759   1.065   4.723   2.625  0.9090  0.8992  1.3723
25727SOL    HW277760   0.956   4.678   2.720  0.1198  0.3495  0.2351
25728SOL     OW77761   5.339   4.336   0.504 -0.2857  0.7140  0.1460
25728SOL    HW177762   5.298   4.249   0.509 -1.2632  1.2198  1.4938
25728SOL    HW277763   5.427   4.322   0.538 -0.6708  0.3685  1.0352
25729SOL     OW77764   1.109   0.485   9.796  0.2205 -0.4234  0.3189
25729SOL    HW177765   1.146   0.440   9.872  1.3438 -1.2045 -0.6435
25729SOL    HW277766   1.145   0.574   9.802 -1.2066  0.1145  1.6803
25730SOL     OW77767   0.418   8.370   3.071 -0.2486  0.4638 -0.0226
25730SOL    HW177768   0.487   8.324   3.023 -0.5531 -0.3450  0.2918
25730SOL    HW277769   0.411   8.322   3.154 -2.0316 -0.2717 -0.5480
25731SOL     OW77770   8.071   7.159   4.123 -0.1439 -0.2856 -0.0160
25731SOL    HW177771   8.119   7.194   4.198 -1.4286  0.6381  0.3998
25731SOL    HW277772   8.055   7.067   4.146 -0.1126 -0.1347  0.6205
25732SOL     OW77773   3.604   4.085   1.111  0.0385  0.8322 -0.2889
25732SOL    HW177774   3.519   4.125   1.094  0.5286  1.7713 -0.6033
25732SOL    HW277775   3.602   4.062   1.204 -0.2874  1.5393 -0.1128
25733SOL     OW77776   7.520   7.594   7.663 -0.3652 -0.0538  0.0407
25733SOL    HW177777   7.598   7.643   7.639 -0.3080  0.2727  0.8774
25733SOL    HW277778   7.454   7.660   7.680 -0.8850 -0.3292 -0.7906
25734SOL     OW77779   6.701   0.441   0.816 -0.3858 -0.1342  0.0251
25734SOL    HW177780   6.663   0.483   0.894  0.2798  0.2713  0.1396
25734SOL    HW277781   6.631   0.442   0.752 -0.6319  0.4496  0.2922
25735SOL     OW77782   7.576   5.270   9.294  0.1133 -0.0988 -0.5495
25735SOL    HW177783   7.482   5.253   9.302 -0.3496  1.2753 -2.3433
25735SOL    HW277784   7.596   5.252   9.203  1.2398  1.1696 -0.5837
25736SOL     OW77785   3.718   0.081   6.658  0.3368  0.3866 -0.7029
25736SOL    HW177786   3.793   0.109   6.711  0.7808 -0.7272 -0.7291
25736SOL    HW277787   3.693  -0.004   6.693 -1.6877  1.2231  0.0753
25737SOL     OW77788   2.355   3.647   7.431  0.4657 -0.0472  0.6494
25737SOL    HW177789   2.371   3.645   7.526  0.8523  0.6164  0.6020
25737SOL    HW277790   2.417   3.583   7.395  0.4929 -0.1165  0.8182
25738SOL     OW77791   1.516   9.694   5.694 -0.2465 -0.0036  0.0287
25738SOL    HW177792   1.541   9.615   5.742  0.1696  0.0087 -0.1657
25738SOL    HW277793   1.433   9.671   5.652  0.1599 -0.5291 -0.4920
25739SOL     OW77794   9.516   2.864   4.268  0.3112  0.2482 -0.3791
25739SOL    HW177795   9.570   2.852   4.189 -0.8041 -0.7609 -1.0257
25739SOL    HW277796   9.508   2.959   4.277  2.6491  0.4585  0.0919
25740SOL     OW77797   6.582   2.427   0.626  0.0337  0.0099 -0.1056
25740SOL    HW177798   6.575   2.413   0.720 -1.0153  2.3579  0.2304
25740SOL    HW277799   6.592   2.340   0.589 -1.4818 -1.1415  2.0210
25741SOL     OW77800   4.011   6.101   9.459 -0.3607 -0.3630 -0.3955
25741SOL    HW177801   4.081   6.098   9.394 -1.0338 -1.0827 -1.1027
25741SOL    HW277802   4.055   6.081   9.542  0.4702  0.3755 -0.6346
25742SOL     OW77803   4.084   6.610   8.541  0.1328 -0.1188  0.2777
25742SOL    HW177804   4.059   6.670   8.611 -0.0069  0.3334 -0.1586
25742SOL    HW277805   4.113   6.531   8.587 -0.2402  0.0625  0.8405
25743SOL     OW77806   1.549   9.235   9.708 -0.2924  0.0930 -0.1193
25743SOL    HW177807   1.559   9.151   9.662  1.8885 -0.9761  2.0698
25743SOL    HW277808   1.615   9.292   9.669 -0.1831  0.0095 -0.0592
25744SOL     OW77809   9.044   7.237   7.775  0.2474  0.1674  0.1467
25744SOL    HW177810   9.028   7.298   7.847  2.0103  1.5171 -0.5252
25744SOL    HW277811   8.958   7.220   7.737 -0.5801  0.2648  1.8933
25745SOL     OW77812   5.209   5.367   8.673 -0.3246 -0.0696  0.4693
25745SOL    HW177813   5.272   5.425   8.717  0.7933  0.1645 -1.3497
25745SOL    HW277814   5.259   5.288   8.654 -1.1514 -0.6636  0.7204
25746SOL     OW77815   8.962   8.501   5.390  0.0728  0.4215  0.3421
25746SOL    HW177816   8.983   8.408   5.385 -0.4038  0.2468  1.3591
25746SOL    HW277817   8.867   8.504   5.401 -0.1867  1.1117 -1.7300
25747SOL     OW77818   2.679   6.912   8.071  0.0540  0.6410  0.7324
25747SOL    HW177819   2.765   6.876   8.052 -0.8791 -2.4988  1.7816
25747SOL    HW277820   2.636   6.919   7.985  1.2808  2.2405  0.2067
25748SOL     OW77821   1.128   8.556   3.024  0.2233 -0.2122 -0.5463
25748SOL    HW177822   1.186   8.594   3.090 -0.8576  0.8831 -0.2011
25748SOL    HW277823   1.049   8.531   3.072 -1.7667  3.1655 -1.7378
25749SOL     OW77824   2.682   8.087   0.369  0.0593  0.4280 -0.1107
25749SOL    HW177825   2.639   8.004   0.349 -0.7646  0.8727 -0.2247
25749SOL    HW277826   2.610   8.149   0.379  0.6323  0.9927  0.6277
25750SOL     OW77827   2.722   5.367   9.894  0.4330 -0.3723 -0.0444
25750SOL    HW177828   2.760   5.453   9.876  2.2133 -1.4574 -1.8661
25750SOL    HW277829   2.631   5.386   9.917  0.9976  2.0434  0.5050
25751SOL     OW77830   0.302   6.542   7.152 -0.8873  0.2002  0.3552
25751SOL    HW177831   0.234   6.535   7.220 -0.4768  2.0715  1.0355
25751SOL    HW277832   0.368   6.599   7.191  0.1022  0.0689 -1.0688
25752SOL     OW77833   7.325   5.095   7.350  0.1884  0.1442  0.0461
25752SOL    HW177834   7.397   5.046   7.310 -0.0172 -0.5235  0.4752
25752SOL    HW277835   7.366   5.176   7.381  0.7025 -0.1165  0.0629
25753SOL     OW77836   6.954   1.529   0.825 -0.3940  0.4972 -0.0458
25753SOL    HW177837   6.937   1.622   0.812 -0.0852  0.2578 -3.0160
25753SOL    HW277838   6.893   1.485   0.765  0.5021 -1.1121  0.1650
25754SOL     OW77839   8.632   7.675   7.917 -0.8240  0.5269  0.1025
25754SOL    HW177840   8.707   7.733   7.925 -0.3490 -0.1527  0.7962
25754SOL    HW277841   8.594   7.695   7.832 -0.4412  1.5666  0.1691
25755SOL     OW77842   1.249   0.359   0.032 -0.5303  0.1364 -0.4587
25755SOL    HW177843   1.194   0.302   0.087 -0.7922  0.9651  0.1613
25755SOL    HW277844   1.323   0.381   0.089 -0.8335  1.0496 -0.4122
25756SOL     OW77845   3.840   3.599   8.885 -0.9142  0.5909 -0.3313
25756SOL    HW177846   3.791   3.578   8.806 -1.7110  0.2795  0.2222
25756SOL    HW277847   3.845   3.516   8.933 -0.6473  0.8233  0.0529
25757SOL     OW77848   3.464   8.576   8.322  0.0581  0.0674 -0.1598
25757SOL    HW177849   3.390   8.587   8.263  0.0371 -1.3901 -0.4585
25757SOL    HW277850   3.471   8.481   8.333  1.4395  0.2141  0.4239
25758SOL     OW77851   3.978   7.904   8.170 -0.3076  0.0865 -0.2458
25758SOL    HW177852   3.907   7.887   8.232 -2.2062  1.3563 -1.9773
25758SOL    HW277853   4.042   7.955   8.221 -0.0791 -1.8632  1.6026
25759SOL     OW77854   9.143   1.216   4.718  0.0258 -0.1392 -0.0028
25759SOL    HW177855   9.074   1.151   4.732 -0.0148  0.0360  0.6603
25759SOL    HW277856   9.191   1.218   4.801 -0.1012  0.8241  0.0623
25760SOL     OW77857   0.374   7.539   6.116 -0.2703  0.1058 -0.2387
25760SOL    HW177858   0.317   7.602   6.161 -0.9118 -0.6726  0.0628
25760SOL    HW277859   0.458   7.548   6.161  0.0260  1.6158 -1.0078
25761SOL     OW77860   7.446   0.344   1.027 -0.6226 -0.1120  0.1200
25761SOL    HW177861   7.394   0.264   1.025 -2.2993  0.9123  0.2604
25761SOL    HW277862   7.412   0.392   1.103  1.2114  0.1922  0.7909
25762SOL     OW77863   2.519   9.885   0.394 -0.3405  0.1630  0.0218
25762SOL    HW177864   2.560   9.957   0.346  2.4772 -1.6182 -0.4522
25762SOL    HW277865   2.427   9.890   0.370  0.1939  2.0625 -1.9863
25763SOL     OW77866   6.769   0.693   3.790 -0.0817 -0.8902  0.3400
25763SOL    HW177867   6.779   0.723   3.700  0.5604 -0.3564  0.5729
25763SOL    HW277868   6.689   0.642   3.790  0.6247 -2.0695 -0.8447
25764SOL     OW77869   6.921   4.870   1.837 -0.0143 -0.0400  0.1579
25764SOL    HW177870   6.951   4.848   1.748  0.3049  0.0408  0.2446
25764SOL    HW277871   6.833   4.832   1.842  0.8626 -2.1335  0.6163
25765SOL     OW77872   3.086   6.870   3.849 -0.0982  0.3150 -0.1402
25765SOL    HW177873   3.022   6.801   3.834  1.9431 -2.4521  2.5525
25765SOL    HW277874   3.154   6.856   3.782 -0.2054  0.4365 -0.2753
25766SOL     OW77875   3.290   6.744   9.507 -0.0541 -0.0982  0.6786
25766SOL    HW177876   3.235   6.672   9.539  0.3196 -0.1593  1.1834
25766SOL    HW277877   3.260   6.758   9.417 -0.6195 -0.4033  0.8144
25767SOL     OW77878   5.611   1.264   4.497 -0.2352  0.3776  0.0095
25767SOL    HW177879   5.525   1.284   4.461 -0.4104  0.2960  0.3795
25767SOL    HW277880   5.657   1.220   4.426 -1.4727 -2.1525  0.6674
25768SOL     OW77881   4.323   0.096   7.681  0.6156  0.4390  0.1727
25768SOL    HW177882   4.378   0.111   7.604  1.0111 -0.7214  0.2035
25768SOL    HW277883   4.334   0.002   7.700 -2.5722 -0.2581 -0.7801
25769SOL     OW77884   7.485   7.388   8.664  0.3811  0.0695  0.1924
25769SOL    HW177885   7.521   7.369   8.751  0.1039 -0.3037  0.2252
25769SOL    HW277886   7.394   7.413   8.681 -0.3690 -2.1989 -0.1764
25770SOL     OW77887   0.341   0.929   4.261  0.4676 -0.0745  0.1901
25770SOL    HW177888   0.247   0.913   4.275 -0.1537  1.7697 -1.4422
25770SOL    HW277889   0.345   1.020   4.232  3.0467  0.7115  2.5978
25771SOL     OW77890   1.007   8.463   7.475 -0.1331  0.0577 -0.1371
25771SOL    HW177891   0.960   8.382   7.453  0.6247 -0.3546 -0.2792
25771SOL    HW277892   1.002   8.469   7.570  0.9022 -0.8556 -0.0035
25772SOL     OW77893   5.893   7.323   8.236 -0.1477  0.1483  0.3090
25772SOL    HW177894   5.893   7.419   8.236  0.1347  0.1532  0.9063
25772SOL    HW277895   5.917   7.299   8.326  1.0741 -0.4788 -0.1652
25773SOL     OW77896   3.250   8.155   3.792  0.7618 -0.4052  0.0899
25773SOL    HW177897   3.324   8.211   3.771  2.1752 -2.3661 -0.4468
25773SOL    HW277898   3.250   8.149   3.888 -0.1518  1.3968  0.2397
25774SOL     OW77899   0.709   1.613   4.208  0.4078  0.3670  0.6170
25774SOL    HW177900   0.770   1.678   4.176 -1.1910  2.9051  2.3419
25774SOL    HW277901   0.654   1.591   4.133  1.6893  0.0958 -0.2619
25775SOL     OW77902   8.254   8.687   0.844  0.7397  0.1955  0.8981
25775SOL    HW177903   8.285   8.601   0.815  1.5751  0.4701  0.9392
25775SOL    HW277904   8.169   8.669   0.885 -0.5956 -0.1887 -1.8300
25776SOL     OW77905   5.507   6.546   9.783  0.2949  0.1583 -0.2080
25776SOL    HW177906   5.525   6.554   9.877  1.9509 -0.7486 -0.4159
25776SOL    HW277907   5.498   6.452   9.769 -1.2541  0.3634 -0.7607
25777SOL     OW77908   9.455   0.846   7.232  0.1901  0.0301  0.3060
25777SOL    HW177909   9.509   0.783   7.280 -1.2541 -2.6575 -1.3227
25777SOL    HW277910   9.516   0.893   7.176  1.0554 -2.4996 -1.0357
25778SOL     OW77911   6.637   5.457   9.400 -0.1351  0.4211  1.3533
25778SOL    HW177912   6.554   5.484   9.362  0.4705  2.1066  1.1285
25778SOL    HW277913   6.694   5.440   9.325 -0.4398 -1.3635  1.4979
25779SOL     OW77914   7.526   5.474   3.167 -0.2862 -0.2617  0.0423
25779SOL    HW177915   7.502   5.404   3.228 -0.1018  0.2719  0.7449
25779SOL    HW277916   7.501   5.440   3.081 -2.4686 -0.2417  0.5923
25780SOL     OW77917   1.499   3.476   1.316 -0.3600  0.2406 -0.3043
25780SOL    HW177918   1.504   3.401   1.257 -0.8902 -0.0253 -0.0214
25780SOL    HW277919   1.508   3.552   1.259  2.2495 -0.0219 -0.3867
25781SOL     OW77920   5.890   4.594   3.048  0.1806  0.1046 -0.3933
25781SOL    HW177921   5.927   4.682   3.035 -0.2989  0.4514  0.4899
25781SOL    HW277922   5.961   4.543   3.086  0.5140  0.0586 -1.0668
25782SOL     OW77923   1.967   5.442   3.233  0.0919 -0.3329  0.3317
25782SOL    HW177924   1.922   5.526   3.247 -0.2487 -0.5422  0.5097
25782SOL    HW277925   1.949   5.392   3.313  1.3569 -0.1039  0.7854
25783SOL     OW77926   2.828   1.539   0.127 -0.2976 -0.3979  0.2209
25783SOL    HW177927   2.807   1.571   0.039 -1.5000 -1.3967  0.1185
25783SOL    HW277928   2.870   1.614   0.169  0.8123 -0.0743 -1.3640
25784SOL     OW77929   4.239   7.105   0.886  1.1576  0.1252 -0.3102
25784SOL    HW177930   4.331   7.123   0.905  0.7651  1.3258  0.5652
25784SOL    HW277931   4.191   7.179   0.923 -0.1764 -0.4961 -0.7074
25785SOL     OW77932   9.214   4.772   5.474 -0.1294 -0.1411 -0.0317
25785SOL    HW177933   9.123   4.760   5.446 -0.8107  1.3397  1.3909
25785SOL    HW277934   9.255   4.687   5.458 -1.4917 -0.5505 -1.6238
25786SOL     OW77935   4.291   0.560   1.273  0.5967 -0.3709  0.2308
25786SOL    HW177936   4.320   0.623   1.340  1.0479 -0.1495 -0.1711
25786SOL    HW277937   4.353   0.571   1.201 -1.8762  1.9587 -1.7801
25787SOL     OW77938   4.178   0.602   7.265  0.4228 -0.7869 -0.2133
25787SOL    HW177939   4.239   0.530   7.247 -1.5546 -2.4102 -0.9862
25787SOL    HW277940   4.125   0.571   7.338 -1.4990 -0.9038 -1.5528
25788SOL     OW77941   1.364   9.674   9.958 -0.0443 -0.3462  0.6029
25788SOL    HW177942   1.435   9.714   9.908 -0.8226 -0.0121 -0.2634
25788SOL    HW277943   1.349   9.733  10.031  0.8711 -0.6585  1.0606
25789SOL     OW77944   4.055   8.779   5.041 -0.0872 -0.9066  0.2823
25789SOL    HW177945   4.137   8.827   5.034 -1.2860  1.2105  0.0925
25789SOL    HW277946   4.032   8.757   4.951  0.0274 -1.1104  0.3011
25790SOL     OW77947   2.679   8.361   6.984  0.5953 -0.4577 -0.5190
25790SOL    HW177948   2.607   8.358   6.921  0.4317 -0.2716 -0.3424
25790SOL    HW277949   2.684   8.452   7.011  0.6862 -0.5302 -0.2878
25791SOL     OW77950   9.315   4.253   2.339  0.5859 -0.3366  0.1098
25791SOL    HW177951   9.237   4.208   2.307  0.4068 -0.1082  0.2245
25791SOL    HW277952   9.282   4.317   2.402  0.6367  1.2172 -1.3593
25792SOL     OW77953   7.090   8.600   4.535  0.4242  0.4059 -0.3789
25792SOL    HW177954   7.036   8.541   4.482  1.9855 -1.3393 -0.1127
25792SOL    HW277955   7.115   8.670   4.474  1.2505 -0.9608 -1.6912
25793SOL     OW77956   5.774   5.782   2.432  0.1999 -0.5362  0.1897
25793SOL    HW177957   5.765   5.807   2.524  3.6517  1.1035  0.2559
25793SOL    HW277958   5.829   5.703   2.434 -2.3006 -2.4134 -0.4531
25794SOL     OW77959   3.433   0.716   5.744  0.2806  0.2481  0.1645
25794SOL    HW177960   3.458   0.784   5.682 -0.4918  0.1937 -0.2216
25794SOL    HW277961   3.340   0.702   5.728 -0.1087  0.7296  1.8151
25795SOL     OW77962   4.794   3.698   1.515 -0.0825 -0.3011  0.1051
25795SOL    HW177963   4.788   3.786   1.478  0.1076 -0.6835 -0.8578
25795SOL    HW277964   4.705   3.663   1.506  0.3129 -0.9677 -1.4833
25796SOL     OW77965   8.581   6.827   2.854  0.1198 -0.0089 -0.1581
25796SOL    HW177966   8.644   6.864   2.916 -0.5108  0.1809  0.3734
25796SOL    HW277967   8.587   6.732   2.866  1.4683 -0.0976 -1.2588
25797SOL     OW77968   9.894   4.514   0.570 -0.3000 -0.4051 -0.1068
25797SOL    HW177969   9.879   4.455   0.643  4.3198  0.5800  2.0353
25797SOL    HW277970   9.944   4.462   0.507 -0.9907 -0.2220 -0.8172
25798SOL     OW77971   4.933   2.273   4.361 -0.0634  0.4107  0.1946
25798SOL    HW177972   4.909   2.365   4.352  0.5963  0.7612  1.6935
25798SOL    HW277973   4.867   2.236   4.419  0.6418  0.3871  1.0071
25799SOL     OW77974   5.396   5.875   6.733  0.1256 -0.3384 -0.0961
25799SOL    HW177975   5.302   5.859   6.742 -0.4489  1.6322 -1.8807
25799SOL    HW277976   5.413   5.955   6.781  0.8590 -0.5391  0.0057
25800SOL     OW77977   2.093   7.339   2.726 -0.8013 -0.3514  0.2863
25800SOL    HW177978   2.137   7.392   2.793  1.1822 -1.1054 -0.3322
25800SOL    HW277979   2.067   7.401   2.659  0.4054  0.0242  0.1330
25801SOL     OW77980   4.340   8.737   0.005  0.4390  0.0707 -0.1002
25801SOL    HW177981   4.315   8.697   0.089  0.1569 -1.3797 -0.8395
25801SOL    HW277982   4.258   8.766  -0.034  0.6387  1.3852  0.4087
25802SOL     OW77983   1.703   7.373   3.605  0.3930 -0.4050  0.1567
25802SOL    HW177984   1.778   7.406   3.555 -0.6202 -1.4814 -2.2048
25802SOL    HW277985   1.676   7.447   3.660  1.0339  1.1460 -1.5472
25803SOL     OW77986   0.290   2.250   2.516  0.2779  0.1275  0.1681
25803SOL    HW177987   0.266   2.185   2.450  0.9468 -0.0434  0.0825
25803SOL    HW277988   0.244   2.330   2.489  0.5963  0.0762 -0.5416
25804SOL     OW77989   1.641   7.182   9.523 -0.4112  0.5770  0.2320
25804SOL    HW177990   1.657   7.091   9.498  0.5265  1.1153 -1.2130
25804SOL    HW277991   1.570   7.176   9.588 -0.8366 -1.1174 -0.3285
25805SOL     OW77992   1.236   4.598   8.899  0.1782 -0.0883 -0.0985
25805SOL    HW177993   1.251   4.692   8.902 -0.6112  0.0264  0.9369
25805SOL    HW277994   1.276   4.564   8.978 -2.0055 -0.1929  1.0480
25806SOL     OW77995   1.228   2.346   8.434  0.2318 -0.5152  0.3640
25806SOL    HW177996   1.223   2.438   8.462 -1.3350 -0.6615  0.6345
25806SOL    HW277997   1.285   2.348   8.358  2.7669  0.2189  2.1529
25807SOL     OW77998   1.244   4.069   4.418 -0.1853  0.2569 -0.0993
25807SOL    HW177999   1.331   4.079   4.457  0.1839  1.4681 -1.1757
25807SOL    HW278000   1.201   4.005   4.474  0.9753  0.5212  1.1724
25808SOL     OW78001   1.996   9.345   9.200  0.0638  0.7087 -0.8368
25808SOL    HW178002   1.944   9.300   9.134 -0.5428  0.4912 -0.2269
25808SOL    HW278003   1.949   9.330   9.282  1.9117 -0.8598  0.0287
25809SOL     OW78004   4.978   6.303   1.808  0.2175 -0.6582  0.2028
25809SOL    HW178005   4.970   6.240   1.737  1.8113 -1.0556  0.3553
25809SOL    HW278006   4.951   6.386   1.769  2.9064 -0.4800 -1.4984
25810SOL     OW78007   2.505   3.372   9.374  0.0499  0.3014  0.5525
25810SOL    HW178008   2.482   3.335   9.459  0.5984  0.4934  0.7916
25810SOL    HW278009   2.467   3.312   9.310 -0.4653  0.2188  0.9321
25811SOL     OW78010   2.703   0.328   7.076  0.1480 -0.1757 -0.3930
25811SOL    HW178011   2.684   0.358   6.987  0.1128 -1.2454 -0.7614
25811SOL    HW278012   2.627   0.355   7.127  0.8041  1.7123 -0.3626
25812SOL     OW78013   6.208   7.521   2.510  0.3017 -0.0993  0.0510
25812SOL    HW178014   6.197   7.565   2.426 -0.4650 -0.7926 -0.2322
25812SOL    HW278015   6.297   7.542   2.538  0.0792  1.3311 -0.2315
25813SOL     OW78016   2.163   4.884   7.164  0.2888 -0.0061  0.7385
25813SOL    HW178017   2.128   4.807   7.209 -1.2892  0.4543  0.3772
25813SOL    HW278018   2.247   4.902   7.207  0.8024 -2.0524  0.6576
25814SOL     OW78019   4.967   4.631   1.848 -0.4454  0.0458  0.4553
25814SOL    HW178020   4.968   4.582   1.930 -0.9563 -1.0139 -0.1392
25814SOL    HW278021   4.952   4.722   1.874  2.6583  0.3068  1.7483
25815SOL     OW78022   9.616   9.237   8.932  0.4301  0.5828 -0.5724
25815SOL    HW178023   9.546   9.237   8.998  0.2404 -0.0714 -0.7681
25815SOL    HW278024   9.696   9.254   8.981  0.1784  0.9856 -0.2962
25816SOL     OW78025   0.675   1.645   9.816 -0.2950 -0.4333 -0.1258
25816SOL    HW178026   0.726   1.591   9.876  2.6552  3.1163  0.9163
25816SOL    HW278027   0.737   1.669   9.747 -2.1300 -0.1104 -1.7702
25817SOL     OW78028   3.531   3.187   3.916 -0.1635 -0.0134 -0.1601
25817SOL    HW178029   3.577   3.257   3.963  1.0690  0.1321 -1.5074
25817SOL    HW278030   3.441   3.219   3.907 -0.4172 -0.0016  1.9334
25818SOL     OW78031   3.923   4.564   3.038 -0.6694  0.1000  0.1990
25818SOL    HW178032   3.896   4.587   2.949  0.2312  1.6870  0.3092
25818SOL    HW278033   3.975   4.484   3.027  0.6929  1.1000 -0.9121
25819SOL     OW78034   3.488   9.280   0.582 -0.2333 -0.1255 -0.1227
25819SOL    HW178035   3.395   9.303   0.576 -0.7124 -1.4109  1.6085
25819SOL    HW278036   3.519   9.323   0.662  0.7483  0.4726 -0.7956
25820SOL     OW78037   3.030   8.105   1.133 -0.3345  0.4053  0.3795
25820SOL    HW178038   3.069   8.172   1.190 -0.0621 -0.0147  0.6956
25820SOL    HW278039   2.976   8.154   1.071  1.3111  1.0613 -0.5799
25821SOL     OW78040   8.877   5.542   7.287 -0.3533  0.2556 -0.4710
25821SOL    HW178041   8.793   5.497   7.289 -0.8507  1.1706 -0.3182
25821SOL    HW278042   8.855   5.635   7.297  0.6638  0.5162 -0.5410
25822SOL     OW78043   0.633   9.838   2.235 -0.0871 -0.7260  0.6874
25822SOL    HW178044   0.571   9.908   2.216  0.1976 -0.4370  0.8110
25822SOL    HW278045   0.607   9.806   2.321  0.1997 -0.3108  0.9325
25823SOL     OW78046   2.249   8.843   8.165  0.0135  0.3395  0.3114
25823SOL    HW178047   2.188   8.818   8.234  0.6626 -0.9056  0.4746
25823SOL    HW278048   2.317   8.776   8.168  0.8413  1.1020 -0.5556
25824SOL     OW78049   8.968   2.545   5.064  0.4446  0.4276 -0.4505
25824SOL    HW178050   8.971   2.454   5.091 -0.5502  0.0683 -1.4621
25824SOL    HW278051   8.986   2.544   4.970 -2.5528  0.8790 -1.1338
25825SOL     OW78052   7.424   5.414   2.864 -0.4164  0.0626 -0.3744
25825SOL    HW178053   7.482   5.338   2.862  0.3912  0.6577 -0.0975
25825SOL    HW278054   7.337   5.377   2.880  0.4015 -0.5974  3.4540
25826SOL     OW78055   1.423   0.434   2.125  0.0266  0.2441  0.3499
25826SOL    HW178056   1.386   0.406   2.208 -0.0632  0.6219  0.4413
25826SOL    HW278057   1.358   0.409   2.059 -1.6990  3.2065  0.7426
25827SOL     OW78058   4.964   9.659   8.995 -0.1963 -0.5764 -0.1936
25827SOL    HW178059   4.969   9.564   8.986  0.3272 -0.4219 -1.8212
25827SOL    HW278060   4.943   9.691   8.907  1.0602  0.9146 -0.0033
25828SOL     OW78061   7.297   8.697   3.159 -0.7092 -0.2643  0.3236
25828SOL    HW178062   7.226   8.659   3.108 -1.4323  1.0916  0.2657
25828SOL    HW278063   7.360   8.728   3.093 -1.5465  1.3017  0.2158
25829SOL     OW78064   5.878   6.279   8.256  0.1147  0.6831  0.0680
25829SOL    HW178065   5.824   6.338   8.203 -0.9930  1.2836  1.7612
25829SOL    HW278066   5.967   6.311   8.243 -0.1230  0.8311 -1.3600
25830SOL     OW78067   0.119   1.360   4.357 -0.0273 -0.1111  0.0484
25830SOL    HW178068   0.032   1.329   4.382 -0.5386 -0.1168 -1.6523
25830SOL    HW278069   0.142   1.308   4.280  1.2435  0.3067  0.1220
25831SOL     OW78070   5.973   3.719   5.094  0.4652  0.4576  0.5117
25831SOL    HW178071   5.888   3.701   5.054  0.8863  0.5870 -0.4811
25831SOL    HW278072   6.012   3.633   5.108  0.8980  0.4417 -0.6902
25832SOL     OW78073   5.406   1.416   5.912 -0.4779  0.4262  0.2656
25832SOL    HW178074   5.415   1.494   5.857 -2.6167  0.3944 -0.2126
25832SOL    HW278075   5.490   1.409   5.957 -0.0129  2.6435 -0.1321
25833SOL     OW78076   4.038   8.384   0.068 -0.6905 -0.6059  0.0749
25833SOL    HW178077   3.964   8.427   0.024  0.0964  0.5127 -0.2150
25833SOL    HW278078   4.032   8.414   0.159 -1.2385 -1.4299  0.3203
25834SOL     OW78079   1.423   6.764   2.370 -0.1011 -0.2935  0.0253
25834SOL    HW178080   1.463   6.697   2.314  0.2058  1.5139 -2.0482
25834SOL    HW278081   1.473   6.844   2.352  0.3551  0.3465  3.3361
25835SOL     OW78082   2.299   4.057   4.571  0.2954 -0.2348 -0.1127
25835SOL    HW178083   2.307   4.100   4.656  0.2969  1.0678 -0.7479
25835SOL    HW278084   2.207   4.066   4.548  0.7271  1.7436 -1.3722
25836SOL     OW78085   8.634   3.319   6.355  0.1529 -0.3267  0.7597
25836SOL    HW178086   8.559   3.281   6.309  0.6812  0.0411 -0.4471
25836SOL    HW278087   8.638   3.410   6.325  2.4654 -0.9324 -1.1279
25837SOL     OW78088   2.347   4.537   1.120  0.0266  0.4411  0.1745
25837SOL    HW178089   2.425   4.532   1.176 -0.4063 -1.7331  0.7001
25837SOL    HW278090   2.298   4.457   1.142 -2.0542  1.4627 -0.5748
25838SOL     OW78091   3.959   4.339   6.317  0.2463 -0.2831  0.0306
25838SOL    HW178092   4.001   4.415   6.356  0.3120 -0.6013  0.5876
25838SOL    HW278093   3.868   4.365   6.306 -0.3688 -1.0087  2.7047
25839SOL     OW78094   5.121   7.553   2.887 -0.0129  0.1402 -0.1859
25839SOL    HW178095   5.184   7.495   2.844  0.3873 -0.3836  1.0660
25839SOL    HW278096   5.167   7.636   2.898  0.3637 -0.1510  0.4600
25840SOL     OW78097   7.948   0.904   9.138 -0.1981  0.0156  0.1780
25840SOL    HW178098   7.896   0.921   9.059 -0.2493  0.4068  0.2970
25840SOL    HW278099   7.883   0.875   9.203 -0.5055  1.9008  0.7770
25841SOL     OW78100   8.800   1.293   7.628  0.2234 -0.0756 -0.5809
25841SOL    HW178101   8.838   1.380   7.610  0.0140 -0.3168 -2.3763
25841SOL    HW278102   8.839   1.268   7.712  2.5214  0.5570 -1.3536
25842SOL     OW78103   5.067   1.982   9.931 -0.5558  0.4277 -0.2274
25842SOL    HW178104   5.082   2.013   9.841 -1.7187  2.5692  0.2405
25842SOL    HW278105   5.020   2.054   9.973  2.3505  0.7087  2.9625
25843SOL     OW78106   4.914   6.181   8.724 -0.2060  0.8872 -0.2630
25843SOL    HW178107   4.924   6.263   8.771  1.4343  1.1102 -0.9354
25843SOL    HW278108   5.002   6.143   8.723 -0.6208 -0.1021 -1.3285
25844SOL     OW78109   8.760   0.320   8.227  0.1038 -0.2918  0.5943
25844SOL    HW178110   8.848   0.353   8.243 -0.3138  0.7510  0.8268
25844SOL    HW278111   8.729   0.291   8.313  0.2039 -0.6277  0.5182
25845SOL     OW78112   3.510   1.546   2.524 -0.2259 -0.5873  0.2835
25845SOL    HW178113   3.585   1.561   2.581 -1.0262 -0.6048  1.3766
25845SOL    HW278114   3.464   1.629   2.522  0.7584 -0.0353 -1.8537
25846SOL     OW78115   0.638   3.184   8.997 -0.3471 -0.0659  0.7331
25846SOL    HW178116   0.670   3.096   8.975 -0.5971 -0.2498  1.0986
25846SOL    HW278117   0.631   3.228   8.913 -0.1195 -0.3602  0.5544
25847SOL     OW78118   7.926   2.173   3.759  0.1161 -0.3289  0.0143
25847SOL    HW178119   7.862   2.224   3.810  1.3047  2.5741 -1.1760
25847SOL    HW278120   7.980   2.130   3.825 -1.1418 -0.3535  1.0836
25848SOL     OW78121   7.845   2.172   5.262 -0.2304 -0.8253 -1.0906
25848SOL    HW178122   7.820   2.256   5.301 -3.6643 -1.9009 -0.5876
25848SOL    HW278123   7.897   2.195   5.185  3.2431  1.5008  1.6468
25849SOL     OW78124   0.398   2.713   1.854 -0.8622  0.0430  0.1182
25849SOL    HW178125   0.384   2.667   1.771  0.1970 -0.9389  0.4526
25849SOL    HW278126   0.310   2.733   1.886 -1.2872  0.5320 -1.2767
25850SOL     OW78127   9.832   4.070   2.173  0.1118 -0.2478  0.4116
25850SOL    HW178128   9.792   4.069   2.086 -2.3382 -1.2825  1.4608
25850SOL    HW278129   9.814   4.158   2.206  0.1557 -0.1855  0.2722
25851SOL     OW78130   8.004   8.427   8.152  0.0043 -0.1109  0.4027
25851SOL    HW178131   7.909   8.419   8.152 -0.0990  1.0637  0.1868
25851SOL    HW278132   8.027   8.446   8.243 -0.0292  0.3187  0.3216
25852SOL     OW78133   5.131   7.415   7.860  0.1747  0.1826  0.7024
25852SOL    HW178134   5.139   7.417   7.765  0.4360  1.7328  0.7412
25852SOL    HW278135   5.096   7.500   7.884  2.3089  0.7380  2.1741
25853SOL     OW78136   4.415   7.967   3.116 -0.1521 -0.0489  0.4863
25853SOL    HW178137   4.383   8.052   3.085  0.6519  0.2461  0.4328
25853SOL    HW278138   4.501   7.986   3.153  1.2207 -1.2039 -1.8393
25854SOL     OW78139   0.907   1.884   7.482  0.0182 -0.0095 -0.1206
25854SOL    HW178140   0.848   1.878   7.557 -0.3511  0.2852 -0.3823
25854SOL    HW278141   0.983   1.831   7.507  0.1929  0.6036  0.7264
25855SOL     OW78142   3.385   4.004   2.712  0.8371 -0.2533  0.0696
25855SOL    HW178143   3.294   4.005   2.682  0.5417 -0.4497  0.9209
25855SOL    HW278144   3.402   3.913   2.736  1.1039 -0.1342  0.3490
25856SOL     OW78145   4.269   7.882   0.855  0.3436 -0.0684  0.2575
25856SOL    HW178146   4.248   7.815   0.921  1.6351 -0.2345  0.5314
25856SOL    HW278147   4.361   7.903   0.871  0.2720  0.9469 -0.5745
25857SOL     OW78148   3.370   8.330   8.425 -0.7570 -0.4133  0.3975
25857SOL    HW178149   3.416   8.298   8.503  0.7008  0.0986 -0.2339
25857SOL    HW278150   3.284   8.357   8.458 -0.4563 -0.9544  1.6832
25858SOL     OW78151   4.252   0.547   8.102 -0.1820  0.0174  0.3700
25858SOL    HW178152   4.207   0.587   8.176 -0.3509  0.8519 -0.1564
25858SOL    HW278153   4.342   0.578   8.109 -0.4300  0.9814 -0.3339
25859SOL     OW78154   8.428   3.939   4.436  0.1278 -0.0880  0.4238
25859SOL    HW178155   8.445   3.988   4.517  0.7656 -0.8783  0.7907
25859SOL    HW278156   8.345   3.894   4.453 -0.3549  0.6842  0.1646
25860SOL     OW78157   0.641   7.634   4.298 -0.2462 -0.3304 -0.0249
25860SOL    HW178158   0.700   7.703   4.269  0.2777 -1.0921 -0.8334
25860SOL    HW278159   0.670   7.556   4.251  1.3001 -1.9335  3.2255
25861SOL     OW78160   0.782   7.947   8.178 -0.4542 -0.6135  0.3640
25861SOL    HW178161   0.785   8.030   8.131 -0.6636  0.8708  2.8145
25861SOL    HW278162   0.688   7.931   8.192 -0.3960 -1.0869  0.2344
25862SOL     OW78163   9.814   8.117   8.958 -0.8834  0.0413 -0.3339
25862SOL    HW178164   9.903   8.142   8.983  0.9189 -3.8008 -2.0718
25862SOL    HW278165   9.781   8.067   9.033 -1.0347  0.2641 -0.2496
25863SOL     OW78166   6.487   3.314   0.534 -0.1413  0.0670 -0.2480
25863SOL    HW178167   6.523   3.225   0.541  0.2019  0.2599  0.5943
25863SOL    HW278168   6.469   3.325   0.441 -0.9583 -1.1859 -0.2616
25864SOL     OW78169   2.155   4.652   1.699  0.8392 -0.5616 -0.5398
25864SOL    HW178170   2.235   4.651   1.752  1.3568  0.4137 -1.2841
25864SOL    HW278171   2.169   4.720   1.634 -2.1482  2.5535  1.7104
25865SOL     OW78172   8.746   7.308   6.163 -0.6740 -0.1679 -0.3760
25865SOL    HW178173   8.651   7.308   6.168 -0.6395  0.9631  0.7584
25865SOL    HW278174   8.772   7.218   6.183 -1.4435 -0.0560  1.2565
25866SOL     OW78175   3.103   8.376   3.010 -0.4605  0.5304  0.4353
25866SOL    HW178176   3.088   8.443   2.943 -0.2880  0.7131  0.5800
25866SOL    HW278177   3.194   8.388   3.037 -0.2582 -0.1250  0.0631
25867SOL     OW78178   0.520   1.110   4.047  0.0260 -0.1219  0.0507
25867SOL    HW178179   0.605   1.067   4.046  0.8198  1.3765 -0.3011
25867SOL    HW278180   0.533   1.187   4.103 -0.5989  1.0341 -1.3302
25868SOL     OW78181   1.754   9.116   8.660  0.1306 -0.3176 -0.5879
25868SOL    HW178182   1.830   9.175   8.659 -0.0826 -0.0077  0.4373
25868SOL    HW278183   1.713   9.129   8.574  0.8790 -0.0261 -0.9151
25869SOL     OW78184   7.831   0.456   9.885  0.4811 -0.4171 -0.4956
25869SOL    HW178185   7.923   0.479   9.875  0.6746 -1.5283 -1.5661
25869SOL    HW278186   7.788   0.539   9.906  1.5921  0.2797 -0.8596
25870SOL     OW78187   9.557   9.692   6.099 -0.2814 -0.0583  0.5112
25870SOL    HW178188   9.579   9.632   6.170 -2.1044 -0.6697  0.6138
25870SOL    HW278189   9.495   9.754   6.138  1.2090  1.6454  0.2815
25871SOL     OW78190   3.790   0.266   7.706 -0.1535 -0.0597  0.3578
25871SOL    HW178191   3.729   0.246   7.635  0.3185  2.0684 -0.7330
25871SOL    HW278192   3.734   0.273   7.784 -1.5076  2.3596 -0.6906
25872SOL     OW78193   3.656   1.998   2.738  0.3273 -0.0105 -0.0707
25872SOL    HW178194   3.693   2.067   2.793  0.5244 -1.3402  1.5673
25872SOL    HW278195   3.717   1.925   2.747 -0.3682 -0.7245 -0.9893
25873SOL     OW78196   7.421   5.552   7.719 -0.4732 -0.5970  0.3097
25873SOL    HW178197   7.394   5.512   7.801  0.5734 -1.1242  0.4115
25873SOL    HW278198   7.516   5.559   7.725 -0.4129 -0.3070 -0.7058
25874SOL     OW78199   3.024   6.841   1.290 -0.3361  0.0530  0.1264
25874SOL    HW178200   2.963   6.768   1.283 -1.9529  1.4004 -0.4929
25874SOL    HW278201   3.054   6.856   1.200  3.1526 -2.3089  0.7114
25875SOL     OW78202   0.138   3.917   8.354 -0.1827  0.6621  0.5590
25875SOL    HW178203   0.136   3.918   8.450  0.3310 -1.2907  0.6324
25875SOL    HW278204   0.053   3.950   8.328 -0.5283  0.7191  1.6968
25876SOL     OW78205   8.230   9.497   2.384 -0.0072 -0.3952 -0.3843
25876SOL    HW178206   8.164   9.561   2.356  1.6405  2.1090  1.0185
25876SOL    HW278207   8.283   9.545   2.448  0.9968 -3.4245  1.2231
25877SOL     OW78208   2.264   8.649   3.981  0.0572  0.1105  0.1542
25877SOL    HW178209   2.227   8.567   3.950 -1.4878  1.3469 -1.4962
25877SOL    HW278210   2.348   8.657   3.937 -0.3864  0.0141 -0.7316
25878SOL     OW78211   4.791   4.165   7.193  0.0265 -0.5212  0.3412
25878SOL    HW178212   4.763   4.174   7.285  1.6957  2.6355  0.6744
25878SOL    HW278213   4.711   4.178   7.143 -0.6975 -1.0512  1.3097
25879SOL     OW78214   3.525   2.329   4.586  0.5388 -0.9575 -0.3250
25879SOL    HW178215   3.554   2.320   4.677 -2.0709 -0.9470  0.6061
25879SOL    HW278216   3.562   2.412   4.557  1.1290 -0.7926  0.8511
25880SOL     OW78217   4.960   1.401   7.285 -0.7103 -0.2025  0.2966
25880SOL    HW178218   4.963   1.328   7.223 -0.1507  1.3800 -1.6803
25880SOL    HW278219   4.943   1.477   7.230  1.3169  1.5231  1.8844
25881SOL     OW78220   1.194   1.713   4.050  0.0219  0.2539 -0.1625
25881SOL    HW178221   1.213   1.805   4.035  0.4973  0.9017  3.4981
25881SOL    HW278222   1.226   1.696   4.139 -1.6127 -2.9912 -0.0514
25882SOL     OW78223   9.142   2.904   9.253  0.3129  0.1337 -0.1197
25882SOL    HW178224   9.138   2.851   9.173  2.0302  0.1789 -0.2755
25882SOL    HW278225   9.124   2.843   9.324 -1.8273  0.2062 -0.5247
25883SOL     OW78226   7.650   7.178   7.254 -0.3601 -0.2620  0.4601
25883SOL    HW178227   7.665   7.102   7.198  1.0604 -0.5759  1.1944
25883SOL    HW278228   7.621   7.247   7.195  0.7557 -0.6759 -0.6115
25884SOL     OW78229   2.048   0.911   4.204 -0.4848 -0.2070  0.6715
25884SOL    HW178230   1.973   0.924   4.145 -0.3610 -1.8704  0.1022
25884SOL    HW278231   2.011   0.924   4.291 -0.8542  1.4868  0.2923
25885SOL     OW78232   7.838   4.384   2.692  0.6815  0.1498  0.0587
25885SOL    HW178233   7.824   4.461   2.637 -0.6722 -0.1138  0.0028
25885SOL    HW278234   7.832   4.417   2.781  0.8599  0.2292  0.0427
25886SOL     OW78235   5.223   1.106   0.687  0.0618 -0.3906  0.2862
25886SOL    HW178236   5.319   1.102   0.686  0.0296 -1.8913  0.8822
25886SOL    HW278237   5.197   1.061   0.607 -0.1593  1.3152 -0.6556
25887SOL     OW78238   3.238   3.482   0.390  0.5695  0.2219 -0.1107
25887SOL    HW178239   3.276   3.507   0.306 -0.1461 -1.1091 -0.8759
25887SOL    HW278240   3.253   3.557   0.447 -0.3202  1.8253 -1.8684
25888SOL     OW78241   2.706   9.781   1.366  0.4734 -0.3537 -0.6013
25888SOL    HW178242   2.751   9.729   1.433 -1.4138 -1.0740  0.1854
25888SOL    HW278243   2.615   9.751   1.370 -0.4678  2.2289 -0.9136
25889SOL     OW78244   1.165   9.485   7.343 -0.1010  0.2963 -0.0872
25889SOL    HW178245   1.181   9.501   7.250  1.6937  2.8584  0.5347
25889SOL    HW278246   1.079   9.524   7.359 -0.4196 -0.1532 -0.6507
25890SOL     OW78247   3.363   5.510   7.109  0.1162  0.0980 -0.0175
25890SOL    HW178248   3.318   5.589   7.079 -0.7560  0.0734  1.1602
25890SOL    HW278249   3.304   5.438   7.087  0.5484 -0.1545 -0.3755
25891SOL     OW78250   0.284   8.701   2.347  0.3825 -0.0002 -0.3677
25891SOL    HW178251   0.369   8.663   2.370  1.1319  1.9146  0.2222
25891SOL    HW278252   0.224   8.668   2.413  0.9073 -0.5348 -0.1491
25892SOL     OW78253   3.647   0.897   2.105 -0.2663 -0.3683 -0.2885
25892SOL    HW178254   3.660   0.802   2.106 -0.8327 -0.4679 -1.4843
25892SOL    HW278255   3.735   0.933   2.118 -0.2708 -1.0163  2.1123
25893SOL     OW78256   0.410   0.392   3.976 -0.1102  0.1482  0.2775
25893SOL    HW178257   0.369   0.463   4.025  0.3340 -1.5101  3.2991
25893SOL    HW278258   0.490   0.431   3.940 -0.5207  1.4795  0.7517
25894SOL     OW78259   0.579   1.680   6.089  0.4370 -0.0587  0.2136
25894SOL    HW178260   0.659   1.641   6.052  1.3241  1.6282  0.2429
25894SOL    HW278261   0.611   1.752   6.143 -1.1485  1.0463 -0.2580
25895SOL     OW78262   2.377   5.303   9.654 -0.3399 -0.1890 -0.3635
25895SOL    HW178263   2.332   5.336   9.731  1.2947  0.9512  0.1722
25895SOL    HW278264   2.438   5.374   9.629  0.2790 -1.1481 -1.7497
25896SOL     OW78265   6.321   9.517   3.441 -0.2355  0.0496 -0.1003
25896SOL    HW178266   6.339   9.465   3.362 -0.8254 -0.2228 -0.0591
25896SOL    HW278267   6.256   9.466   3.489 -1.3799  1.1666 -0.4032
25897SOL     OW78268   4.310   5.386   8.497  0.0981  0.0319  0.6002
25897SOL    HW178269   4.355   5.384   8.413 -1.5713  2.0562 -0.4268
25897SOL    HW278270   4.270   5.300   8.506 -0.5671  0.1072 -1.2164
25898SOL     OW78271   4.100   1.268   9.188  0.0336  0.5882 -0.3445
25898SOL    HW178272   4.044   1.202   9.148 -0.5566  0.4608  0.6754
25898SOL    HW278273   4.173   1.219   9.225 -0.5081  0.4743  0.5918
25899SOL     OW78274   9.036   7.099   6.786 -0.0498 -1.1607 -0.2116
25899SOL    HW178275   9.115   7.077   6.736  1.3664 -0.8065  1.7566
25899SOL    HW278276   9.062   7.176   6.837 -2.1468 -0.1653 -0.5421
25900SOL     OW78277   2.290   8.495   5.452  0.6060 -0.0127 -0.0439
25900SOL    HW178278   2.237   8.420   5.425  1.1735 -0.0419 -1.1120
25900SOL    HW278279   2.295   8.487   5.547 -0.3129 -0.6701 -0.0330
25901SOL     OW78280   8.237   2.741   3.391  0.2083  0.2233 -0.4883
25901SOL    HW178281   8.178   2.817   3.389  0.5423  0.4873 -0.3463
25901SOL    HW278282   8.191   2.674   3.341 -1.7245 -0.6681  2.2188
25902SOL     OW78283   2.217   2.721   5.306 -1.0684 -0.1533 -0.0255
25902SOL    HW178284   2.296   2.744   5.258 -0.0390 -0.9176  1.2386
25902SOL    HW278285   2.248   2.679   5.386 -2.7752 -2.2896 -0.3762
25903SOL     OW78286   7.038   4.587   4.886  0.0136 -0.1242 -0.8069
25903SOL    HW178287   7.021   4.504   4.930 -0.4672  1.2886  1.8616
25903SOL    HW278288   7.013   4.571   4.795  0.2939 -2.9722 -0.4649
25904SOL     OW78289   3.473   5.078   8.901  0.4202 -0.4935  0.9730
25904SOL    HW178290   3.381   5.096   8.923 -0.3132 -1.4370 -1.0780
25904SOL    HW278291   3.469   5.011   8.833  2.5908  0.2411  0.0361
25905SOL     OW78292   4.601   6.347   3.634  0.3513  0.3799 -0.3442
25905SOL    HW178293   4.672   6.285   3.650 -0.8396 -0.9412  0.0025
25905SOL    HW278294   4.567   6.324   3.548 -0.0392  0.6264 -0.2590
25906SOL     OW78295   8.647   8.888   2.041 -0.3074 -0.3056  0.3366
25906SOL    HW178296   8.668   8.959   2.101  1.5798 -2.0998  1.9272
25906SOL    HW278297   8.553   8.875   2.052 -0.6511  1.7357  0.1762
25907SOL     OW78298   7.189   0.290   9.136 -0.0279  0.3389  0.6070
25907SOL    HW178299   7.222   0.367   9.089  0.9254 -0.4182 -0.0013
25907SOL    HW278300   7.135   0.244   9.072 -0.6846  0.5451  1.0032
25908SOL     OW78301   2.421   4.489   7.171 -1.2009 -0.0916  0.4069
25908SOL    HW178302   2.451   4.411   7.218  0.3813  0.9905  1.3206
25908SOL    HW278303   2.448   4.562   7.227 -1.2793  1.1770 -1.1297
25909SOL     OW78304   1.091   5.063   1.143 -1.0158 -0.2376 -0.3766
25909SOL    HW178305   1.036   5.116   1.085  0.7025  0.5055 -1.4041
25909SOL    HW278306   1.166   5.038   1.089 -1.1545 -2.7276  0.4513
25910SOL     OW78307   3.377   7.560   7.969 -0.0888 -0.2784 -0.6508
25910SOL    HW178308   3.460   7.549   8.015 -0.8626 -0.4805  0.7471
25910SOL    HW278309   3.320   7.493   8.006 -1.0844  0.2941 -1.1065
25911SOL     OW78310   7.581   4.667   8.147  0.0704 -0.3476 -0.2412
25911SOL    HW178311   7.564   4.588   8.198  0.8086  0.4849  1.3541
25911SOL    HW278312   7.675   4.683   8.159 -0.3120  1.4836  0.5172
25912SOL     OW78313   6.736   9.389   7.395  0.5994  0.1934  0.5426
25912SOL    HW178314   6.773   9.457   7.338 -0.3738  1.4270  1.3355
25912SOL    HW278315   6.812   9.349   7.437  1.1802  0.9455  0.2308
25913SOL     OW78316   3.385   3.549   0.161  0.4863 -0.2044  0.2430
25913SOL    HW178317   3.479   3.564   0.176 -0.0603  2.6228  1.6136
25913SOL    HW278318   3.357   3.625   0.110 -1.5896  0.7781  2.6317
25914SOL     OW78319   5.262   5.501   0.400  0.7786 -0.6836 -0.1376
25914SOL    HW178320   5.237   5.497   0.492  0.5887  1.3166 -0.0517
25914SOL    HW278321   5.329   5.569   0.396  2.3810 -2.2450 -1.1821
25915SOL     OW78322   1.614   2.596   1.049  0.5373  0.1032  0.2824
25915SOL    HW178323   1.547   2.635   0.992 -0.7965 -3.4873 -0.9000
25915SOL    HW278324   1.694   2.598   0.997  0.3962  0.7876  0.0766
25916SOL     OW78325   7.089   3.370   3.808 -0.3741  0.6720 -0.2697
25916SOL    HW178326   7.168   3.398   3.760  0.0412 -0.1312 -0.0716
25916SOL    HW278327   7.123   3.334   3.890 -0.8013 -1.2466 -0.8892
25917SOL     OW78328   5.461   5.805   3.984 -0.0838 -0.6051 -0.6767
25917SOL    HW178329   5.454   5.764   4.069  0.4665 -0.9551 -0.7923
25917SOL    HW278330   5.505   5.888   4.001 -1.2177 -0.0357 -0.4405
25918SOL     OW78331   2.934   6.987   1.900  0.2826  0.1991  0.0521
25918SOL    HW178332   2.999   7.030   1.955  0.2526  2.5195 -1.5631
25918SOL    HW278333   2.978   6.909   1.867  1.7891  1.0234  0.0331
25919SOL     OW78334   2.374   0.431   9.998 -1.0086 -0.1582  0.1040
25919SOL    HW178335   2.291   0.435   9.951 -1.0101 -0.4417  0.0805
25919SOL    HW278336   2.414   0.517   9.984 -1.6600  0.2704  0.7930
25920SOL     OW78337   1.669   3.057   8.822  0.4064  0.6711 -0.2584
25920SOL    HW178338   1.670   3.111   8.900  0.0089 -0.6568  0.6963
25920SOL    HW278339   1.578   3.055   8.794  0.4947  0.8654 -0.5739
25921SOL     OW78340   2.786   4.223   9.886 -0.1111 -0.1438 -0.1887
25921SOL    HW178341   2.825   4.310   9.877 -0.0916  0.1936  2.2623
25921SOL    HW278342   2.860   4.165   9.901 -0.2788  0.0992  1.9773
25922SOL     OW78343   3.667   5.287   0.280 -0.0321 -0.5689 -0.0346
25922SOL    HW178344   3.619   5.259   0.358  0.3688 -0.8948  0.0960
25922SOL    HW278345   3.695   5.206   0.238  0.8057 -0.3823  0.1421
25923SOL     OW78346   6.403   5.147   5.635  0.1441 -0.1505 -0.6959
25923SOL    HW178347   6.449   5.230   5.626 -0.8485  0.5500  0.4116
25923SOL    HW278348   6.327   5.155   5.578 -0.7290  0.2947  0.5033
25924SOL     OW78349   2.852   2.807   6.516  0.5903  0.2938  0.1211
25924SOL    HW178350   2.766   2.846   6.501 -0.0964 -1.6612 -1.3727
25924SOL    HW278351   2.845   2.764   6.601  0.0970  0.1285 -0.0020
25925SOL     OW78352   6.823   5.126   9.255 -0.5499 -0.9049 -0.1664
25925SOL    HW178353   6.791   5.042   9.222 -0.0535 -0.9250 -0.6066
25925SOL    HW278354   6.877   5.161   9.184  0.2791 -0.8016  0.4907
25926SOL     OW78355   0.344   7.258   0.645 -0.0851 -0.5276 -0.1502
25926SOL    HW178356   0.359   7.327   0.579 -1.8693  0.8775  0.8322
25926SOL    HW278357   0.430   7.247   0.686 -0.0034  2.2369  0.6546
25927SOL     OW78358   2.538   4.241   0.016  0.0043 -0.0248  0.5474
25927SOL    HW178359   2.535   4.312   0.080  0.5181 -0.0195  0.5689
25927SOL    HW278360   2.628   4.244  -0.018  0.5283 -1.6512  1.6722
25928SOL     OW78361   7.807   7.223   6.000 -0.4381 -0.2962 -0.1900
25928SOL    HW178362   7.757   7.201   6.079  0.0642  0.7049  0.4280
25928SOL    HW278363   7.898   7.215   6.028 -0.2575  0.7777 -0.4564
25929SOL     OW78364   5.265   5.521   7.025  0.0620  0.1572 -0.4847
25929SOL    HW178365   5.190   5.461   7.027  0.1505  0.0067 -1.2198
25929SOL    HW278366   5.285   5.531   6.932  0.0433  1.3532 -0.3740
25930SOL     OW78367   7.028   5.857   8.165 -0.2634 -0.2597 -0.2696
25930SOL    HW178368   6.937   5.869   8.138 -0.2189 -1.3190 -0.9615
25930SOL    HW278369   7.068   5.944   8.157 -0.7145 -0.1816 -1.9397
25931SOL     OW78370   5.078   3.705   0.766  0.0267 -0.2896  0.4295
25931SOL    HW178371   5.108   3.631   0.819  0.2978  0.3692  1.2253
25931SOL    HW278372   5.098   3.782   0.820 -2.1316  0.2655  0.5417
25932SOL     OW78373   3.795   6.263   9.467 -0.0226 -0.2775 -0.0502
25932SOL    HW178374   3.862   6.197   9.448 -1.8668 -2.4641  0.7637
25932SOL    HW278375   3.783   6.308   9.383  0.2849 -1.9151 -1.0201
25933SOL     OW78376   9.837   5.700   1.471 -0.0880 -0.0745  0.1556
25933SOL    HW178377   9.799   5.648   1.401  0.9569 -0.4636 -0.1427
25933SOL    HW278378   9.869   5.779   1.428  0.6432 -0.3580  0.1594
25934SOL     OW78379   9.055   1.171   3.308  0.1072 -0.1935 -0.0251
25934SOL    HW178380   9.020   1.179   3.396  1.4512 -0.2787  0.5317
25934SOL    HW278381   9.136   1.221   3.309  1.1647 -1.8041 -0.6219
25935SOL     OW78382   5.592   1.342   8.825  0.5001  0.0361 -0.7047
25935SOL    HW178383   5.526   1.380   8.768  2.0785  2.1832 -1.2458
25935SOL    HW278384   5.666   1.402   8.819  1.6391 -0.9830  1.7162
25936SOL     OW78385   7.772   6.871   0.514  0.6420  0.4563 -0.4871
25936SOL    HW178386   7.728   6.917   0.585 -1.1670 -1.6899 -0.0856
25936SOL    HW278387   7.840   6.819   0.557 -0.9280 -1.4135 -0.1023
25937SOL     OW78388   7.273   8.697   9.602 -0.3193 -0.2130  0.6747
25937SOL    HW178389   7.212   8.715   9.530  2.1190  0.7304 -1.3191
25937SOL    HW278390   7.263   8.771   9.661  0.5839  1.2092 -0.8964
25938SOL     OW78391   9.916   9.672   2.288 -0.0586  0.4011 -0.2726
25938SOL    HW178392   9.908   9.642   2.197  0.2321  1.4597 -0.6677
25938SOL    HW278393  10.005   9.706   2.294 -0.1425  0.5226  0.3555
25939SOL     OW78394   6.987   8.642   0.978 -0.0038  0.4569 -0.4342
25939SOL    HW178395   6.959   8.731   0.955 -1.6775  1.0510  3.2064
25939SOL    HW278396   6.956   8.588   0.906 -1.0518  2.5350 -1.6378
25940SOL     OW78397   6.607   0.096   6.892  0.3219  0.9698 -0.1976
25940SOL    HW178398   6.615   0.140   6.977  0.9799  1.2203 -0.3872
25940SOL    HW278399   6.636   0.161   6.828  0.3526  0.5949 -0.5686
25941SOL     OW78400   2.606   2.013   2.194  0.0940  0.6707  0.0050
25941SOL    HW178401   2.664   1.955   2.145 -0.4624 -0.4521  0.6306
25941SOL    HW278402   2.606   2.094   2.144 -1.2544 -0.7306 -2.4793
25942SOL     OW78403   3.782   5.962   7.973  0.4305 -0.0974 -0.3111
25942SOL    HW178404   3.861   5.975   8.024  0.1995 -0.6550  0.2005
25942SOL    HW278405   3.779   5.867   7.956  1.4520  0.2675 -2.9163
25943SOL     OW78406   5.762   4.958   3.691  0.1545 -0.2647  0.5236
25943SOL    HW178407   5.724   4.870   3.689 -0.9343  0.2063 -0.3583
25943SOL    HW278408   5.690   5.016   3.666  0.3614  1.0802  2.7734
25944SOL     OW78409   4.635   8.313   3.554  0.0433 -0.2026  0.2494
25944SOL    HW178410   4.646   8.269   3.638  1.6975 -2.2819 -0.9724
25944SOL    HW278411   4.718   8.358   3.539 -0.7251  1.3016  0.2906
25945SOL     OW78412   3.057   5.160   4.345  0.2109 -0.5785 -1.4135
25945SOL    HW178413   2.998   5.235   4.353 -0.6498 -1.4209  0.6704
25945SOL    HW278414   3.144   5.199   4.333 -0.2057  0.7713 -0.3228
25946SOL     OW78415   4.371   8.365   0.102 -0.1795  0.2150  0.0117
25946SOL    HW178416   4.296   8.423   0.090 -0.6939 -0.7093 -1.5094
25946SOL    HW278417   4.351   8.289   0.048  1.4828 -0.4221  0.2421
25947SOL     OW78418   3.753   7.438   7.057 -0.3978 -0.4323  0.2115
25947SOL    HW178419   3.718   7.425   7.145  1.1602 -0.7687  0.8107
25947SOL    HW278420   3.848   7.447   7.070  0.1023 -2.4013 -1.5957
25948SOL     OW78421   3.046   8.326   6.593 -0.3559 -0.1704 -0.4177
25948SOL    HW178422   3.131   8.305   6.633 -1.5034 -1.4474  1.5109
25948SOL    HW278423   3.067   8.391   6.527  1.7396  1.9387  2.0745
25949SOL     OW78424   7.636   1.936   3.544  0.3585 -0.0309  0.2912
25949SOL    HW178425   7.622   2.023   3.508  2.1614  0.3336  0.3657
25949SOL    HW278426   7.559   1.919   3.599 -0.2719  1.2676 -0.1596
25950SOL     OW78427   0.919   3.832   7.763  0.1561 -0.1212 -0.5505
25950SOL    HW178428   0.836   3.804   7.801  0.4270 -0.1178  0.0500
25950SOL    HW278429   0.951   3.756   7.715  0.0289 -0.2647 -0.4070
25951SOL     OW78430   6.000   3.918   1.376 -0.3980 -0.5736  0.0865
25951SOL    HW178431   5.969   3.886   1.460 -0.6314  0.4558  0.3975
25951SOL    HW278432   5.993   4.013   1.381 -0.7190 -0.5038 -1.2110
25952SOL     OW78433   5.234   8.176   3.893  0.2961  0.4802  0.0445
25952SOL    HW178434   5.280   8.206   3.815 -0.0537 -1.1265 -0.8301
25952SOL    HW278435   5.143   8.164   3.864 -0.2559  1.6483  1.2044
25953SOL     OW78436   8.679   7.864   1.953  0.6847 -0.5601 -0.0163
25953SOL    HW178437   8.637   7.916   2.021 -0.4866  0.1949 -1.2644
25953SOL    HW278438   8.743   7.923   1.914 -0.9747  0.1912 -1.7520
25954SOL     OW78439   8.595   0.793   3.102  0.7371 -0.0827 -0.1051
25954SOL    HW178440   8.522   0.734   3.122  0.8718 -1.0558 -2.1928
25954SOL    HW278441   8.554   0.867   3.057  0.8823  0.0575 -0.0074
25955SOL     OW78442   0.955   4.147   0.183 -0.5966  0.2116 -0.1412
25955SOL    HW178443   0.998   4.220   0.140 -0.3929 -0.7850 -1.6908
25955SOL    HW278444   0.946   4.175   0.274  0.7109  1.5916 -0.4035
25956SOL     OW78445   3.330   2.542   0.653  0.1977  0.2624  0.2898
25956SOL    HW178446   3.251   2.572   0.698  1.0736  0.6034  1.6612
25956SOL    HW278447   3.401   2.593   0.692  1.7406 -3.1589  2.4485
25957SOL     OW78448   4.119   7.637   6.126  0.5774 -0.2565  0.0667
25957SOL    HW178449   4.119   7.609   6.217  1.0189 -1.1681 -0.2022
25957SOL    HW278450   4.029   7.662   6.108  0.4875 -0.0713  0.7515
25958SOL     OW78451   1.087   1.888   4.925 -0.4692  0.3288  0.7131
25958SOL    HW178452   1.097   1.855   5.015  1.8892 -0.9018  0.0784
25958SOL    HW278453   1.025   1.961   4.933  1.1923  1.6076  3.6916
25959SOL     OW78454   0.529   0.745   4.336 -0.2194 -0.1046 -0.4402
25959SOL    HW178455   0.447   0.792   4.322  0.4099  1.7023  1.4043
25959SOL    HW278456   0.596   0.805   4.303  0.5066 -0.4500  0.3695
25960SOL     OW78457   5.009   6.866   5.468  0.5316 -0.2148  0.1239
25960SOL    HW178458   5.002   6.771   5.479 -0.5947 -0.2871 -0.9341
25960SOL    HW278459   4.920   6.894   5.447  0.8495  1.0828  0.4157
25961SOL     OW78460   2.107   1.621   9.638 -0.0579  0.0350  0.2601
25961SOL    HW178461   2.109   1.651   9.547  0.5030 -0.2096  0.1847
25961SOL    HW278462   2.029   1.567   9.644  0.2261 -0.4473 -0.2472
25962SOL     OW78463   3.856   3.304   2.769  0.8617  0.4853  0.4157
25962SOL    HW178464   3.932   3.345   2.729  0.6606  1.7969  1.3075
25962SOL    HW278465   3.877   3.211   2.770  0.8021  0.3263 -2.8214
25963SOL     OW78466   2.451   2.812   5.202 -0.0287 -0.3109 -0.3439
25963SOL    HW178467   2.500   2.738   5.238 -1.1586 -1.2183 -0.5872
25963SOL    HW278468   2.518   2.877   5.180  0.8979 -0.8055  0.8930
25964SOL     OW78469   2.082   3.924   5.399 -0.0032  0.1643  0.0313
25964SOL    HW178470   2.028   3.905   5.475 -0.2598  0.6023 -0.0398
25964SOL    HW278471   2.086   3.842   5.351  1.6367 -0.6338  1.4232
25965SOL     OW78472   9.158   9.681   9.230 -0.0269 -0.2079  0.1518
25965SOL    HW178473   9.092   9.703   9.296 -0.6079 -0.7678 -0.2287
25965SOL    HW278474   9.241   9.705   9.270 -0.4282  0.1494  0.7922
25966SOL     OW78475   7.074   8.972   9.095 -0.7984  0.1164  0.3286
25966SOL    HW178476   7.025   8.890   9.094  1.5083 -1.3725  0.5643
25966SOL    HW278477   7.020   9.032   9.147 -2.8700 -1.0043 -0.4295
25967SOL     OW78478   2.045   2.588   9.220  0.0623  0.1368  0.8119
25967SOL    HW178479   1.988   2.513   9.237 -0.5336  0.2495 -0.5301
25967SOL    HW278480   2.125   2.569   9.269 -0.6127 -0.6687  1.6523
25968SOL     OW78481  -0.014   5.938   6.793  0.0164 -0.4552  0.1605
25968SOL    HW178482   0.045   5.870   6.760  0.1635 -0.9720  1.4169
25968SOL    HW278483   0.012   5.949   6.885  0.2616  1.5905 -0.0990
25969SOL     OW78484   4.359   5.943   5.643 -0.9183  0.2672  0.0617
25969SOL    HW178485   4.376   5.850   5.629 -0.9650  0.2122  0.3567
25969SOL    HW278486   4.264   5.950   5.644 -0.9251  0.1160  1.3024
25970SOL     OW78487   2.201   7.425   3.767  0.2650 -0.3648 -0.5227
25970SOL    HW178488   2.262   7.361   3.803 -1.1864 -2.0860 -1.0234
25970SOL    HW278489   2.158   7.380   3.694 -1.6269  0.7491 -0.1702
25971SOL     OW78490   4.233   1.075   4.986  0.0056  0.2247 -0.0811
25971SOL    HW178491   4.192   1.158   5.010  0.1941  0.5468 -0.8388
25971SOL    HW278492   4.259   1.086   4.895  0.4318 -0.5121 -0.0625
25972SOL     OW78493   9.731   1.398   1.043 -0.3093 -0.1636  0.4366
25972SOL    HW178494   9.749   1.466   0.979 -0.0702 -1.3501 -0.8197
25972SOL    HW278495   9.714   1.445   1.125  0.3240  1.3536 -0.2647
25973SOL     OW78496   1.070   2.076   6.545  0.8500 -0.0058 -0.2971
25973SOL    HW178497   1.079   2.137   6.472  2.1893 -0.6646 -0.7289
25973SOL    HW278498   1.062   2.132   6.622 -1.0151  0.7085 -0.9562
25974SOL     OW78499   7.405   4.681   4.240  0.4284 -0.1457  0.4516
25974SOL    HW178500   7.491   4.641   4.254  0.3732 -1.1287 -1.6428
25974SOL    HW278501   7.357   4.662   4.320  1.8385 -0.4246  1.2814
25975SOL     OW78502   1.792   4.575   2.261 -0.4850  0.2718  0.5434
25975SOL    HW178503   1.822   4.486   2.282 -0.4052  0.5554  1.6641
25975SOL    HW278504   1.726   4.562   2.193 -1.0200 -0.7038  1.2312
25976SOL     OW78505   5.185   1.479   1.620  0.1111 -0.1300  0.2877
25976SOL    HW178506   5.240   1.459   1.544 -0.2841 -0.5946  0.1190
25976SOL    HW278507   5.131   1.552   1.591 -0.3684 -0.6104 -0.0463
25977SOL     OW78508   4.740   3.431   2.060  0.3298  0.7429  0.2880
25977SOL    HW178509   4.792   3.510   2.048  0.9307  0.3286  0.0943
25977SOL    HW278510   4.731   3.422   2.154  2.1610 -0.1378  0.4326
25978SOL     OW78511   3.154   5.688   5.696  0.3852 -0.0133 -0.0839
25978SOL    HW178512   3.068   5.725   5.719 -0.4503 -1.7299 -0.3206
25978SOL    HW278513   3.149   5.597   5.725  1.5826 -0.5496 -1.4882
25979SOL     OW78514   4.229   7.231   7.863  0.1840 -0.0896  1.0248
25979SOL    HW178515   4.193   7.221   7.775  0.4704 -0.9275  0.9915
25979SOL    HW278516   4.158   7.204   7.921  0.7712 -1.9254  0.9534
25980SOL     OW78517   9.308  -0.002   3.895  0.2371  0.3028 -0.1812
25980SOL    HW178518   9.275   0.081   3.931  1.7919  0.5497  0.7696
25980SOL    HW278519   9.379   0.024   3.836 -1.0702 -0.2233 -2.0942
25981SOL     OW78520   2.292   7.196   2.152  0.5469 -0.5876  0.4792
25981SOL    HW178521   2.307   7.226   2.062 -1.4741 -1.1523 -0.1020
25981SOL    HW278522   2.356   7.245   2.204  1.3929  0.1726 -1.1754
25982SOL     OW78523   0.785   5.541   7.858 -0.1524 -0.6975  0.1505
25982SOL    HW178524   0.841   5.562   7.783 -0.6675 -0.0693 -0.0670
25982SOL    HW278525   0.793   5.447   7.869  2.9494 -0.3696  1.6979
25983SOL     OW78526   3.895   6.300   4.022 -0.5495 -0.1223 -0.1345
25983SOL    HW178527   3.824   6.249   3.983 -0.1455 -0.4375 -0.4668
25983SOL    HW278528   3.930   6.244   4.091 -1.8759  0.8105  1.3521
25984SOL     OW78529   9.420   3.766   3.291  0.3480 -0.5076  0.5311
25984SOL    HW178530   9.458   3.765   3.379 -1.0967 -0.3530  1.1860
25984SOL    HW278531   9.332   3.730   3.303 -0.4310  0.9181 -0.5706
25985SOL     OW78532   5.834   4.034   1.710 -0.0248  0.1997 -0.6177
25985SOL    HW178533   5.864   3.947   1.682  1.9207  0.8136 -0.5334
25985SOL    HW278534   5.750   4.046   1.665  0.6661 -0.8682 -2.2530
25986SOL     OW78535   8.622   4.908   2.474  0.0155  0.6486  0.5149
25986SOL    HW178536   8.553   4.946   2.528 -1.4081 -0.4912 -0.4288
25986SOL    HW278537   8.593   4.920   2.384  1.6513  1.2172  0.0329
25987SOL     OW78538   3.553   9.308   6.634  0.4852  0.4874 -0.1417
25987SOL    HW178539   3.602   9.235   6.673  1.5175  1.0136 -0.4335
25987SOL    HW278540   3.536   9.367   6.708 -0.4078 -0.0634  0.1072
25988SOL     OW78541   1.828   0.556   1.307  0.5108 -0.2978  0.9838
25988SOL    HW178542   1.783   0.474   1.286  1.0233 -0.4629  0.5208
25988SOL    HW278543   1.858   0.544   1.397  1.7231 -1.1510  0.4954
25989SOL     OW78544   2.965   7.620   3.386 -0.5480  0.1719  0.0119
25989SOL    HW178545   2.900   7.659   3.444  0.7239 -0.0546  1.6558
25989SOL    HW278546   2.913   7.580   3.316 -2.1811 -0.0289  1.2712
25990SOL     OW78547   8.375   6.195   6.639  0.2760  0.2001 -0.2083
25990SOL    HW178548   8.410   6.142   6.711  0.1516  0.3588 -0.0304
25990SOL    HW278549   8.431   6.174   6.564 -0.0932 -0.5738 -0.2750
25991SOL     OW78550   6.865   6.967   8.043  0.3576 -0.2005  0.3661
25991SOL    HW178551   6.852   7.041   8.103 -0.0823  0.7622 -0.8592
25991SOL    HW278552   6.943   6.990   7.992 -0.4060 -0.0110 -0.7737
25992SOL     OW78553   7.607   4.640   9.174 -0.2798  0.1387 -0.4167
25992SOL    HW178554   7.540   4.573   9.164 -1.2016  0.9746 -0.0203
25992SOL    HW278555   7.650   4.644   9.089 -0.1628 -0.9923 -0.4207
25993SOL     OW78556   0.824   1.486   9.404 -0.2764  0.5140 -0.4637
25993SOL    HW178557   0.730   1.488   9.386 -0.0192  0.5755 -1.9318
25993SOL    HW278558   0.858   1.421   9.342  0.6814  0.6668 -0.1022
25994SOL     OW78559   1.425   8.694   1.292 -0.4805 -0.3877 -0.3944
25994SOL    HW178560   1.412   8.688   1.386  0.1560 -0.3789 -0.3036
25994SOL    HW278561   1.340   8.721   1.257 -0.8957 -0.9995  0.1124
25995SOL     OW78562   4.653   6.199   7.880 -0.2110  0.4816 -0.2881
25995SOL    HW178563   4.744   6.213   7.908 -0.2750  0.9494 -0.3199
25995SOL    HW278564   4.651   6.230   7.790 -0.3655  0.3139 -0.3430
25996SOL     OW78565   0.478   6.234   6.404 -0.2650  0.0669  0.2791
25996SOL    HW178566   0.399   6.199   6.363  0.9720  0.8499 -3.1778
25996SOL    HW278567   0.515   6.160   6.453 -2.0613 -0.8864  0.2668
25997SOL     OW78568   9.221   8.979   8.571  0.1301  0.4291 -0.1188
25997SOL    HW178569   9.148   8.918   8.580  1.7063 -1.6500 -0.6889
25997SOL    HW278570   9.198   9.034   8.496 -0.7586 -0.3259 -0.4082
25998SOL     OW78571   1.342   2.641   3.734  0.4803 -0.4927 -0.2138
25998SOL    HW178572   1.346   2.730   3.768 -1.1825 -0.6613  0.5748
25998SOL    HW278573   1.310   2.650   3.644 -1.9329 -0.3282  0.5752
25999SOL     OW78574   4.596   3.349   9.881  0.3178  0.2016 -0.3388
25999SOL    HW178575   4.576   3.298   9.803 -1.4219  0.5543 -0.1557
25999SOL    HW278576   4.648   3.422   9.849  1.0148 -0.5209 -0.9100
26000SOL     OW78577   2.428   6.438   6.134 -0.2469  0.1336  0.2503
26000SOL    HW178578   2.521   6.437   6.111 -0.4188  0.8840 -0.5632
26000SOL    HW278579   2.407   6.531   6.143 -1.2269  0.0533 -0.9594
26001SOL     OW78580   0.814   6.335   5.706  0.2848  0.2571 -0.7308
26001SOL    HW178581   0.895   6.387   5.707  1.4793 -1.5094 -0.2990
26001SOL    HW278582   0.843   6.247   5.681 -0.9667 -1.1897  2.4055
26002SOL     OW78583   9.296   1.410   2.066 -0.0795  0.1854  0.2776
26002SOL    HW178584   9.281   1.484   2.008  1.3105  0.6952  0.5342
26002SOL    HW278585   9.247   1.432   2.146 -1.3852 -0.1813 -0.3851
26003SOL     OW78586   2.565   2.332   3.592 -0.7523  0.0971  0.0515
26003SOL    HW178587   2.598   2.244   3.611  0.4975  0.4953 -0.1566
26003SOL    HW278588   2.505   2.321   3.519  0.6435 -0.3892 -1.0535
26004SOL     OW78589   2.637   5.540   5.449 -0.0726  0.4748  0.1906
26004SOL    HW178590   2.726   5.510   5.467 -0.4661 -0.0880  1.2836
26004SOL    HW278591   2.582   5.489   5.509 -1.1649  0.5901 -0.6806
26005SOL     OW78592   3.645   3.093   6.918 -0.0281 -0.3388  0.1584
26005SOL    HW178593   3.556   3.099   6.952  0.6211  0.6624  1.8030
26005SOL    HW278594   3.642   3.141   6.835 -0.3836  2.5399  1.7050
26006SOL     OW78595   3.784   0.971   2.707  0.1454 -0.9449  0.0359
26006SOL    HW178596   3.879   0.983   2.706  0.4703 -2.9099  1.1638
26006SOL    HW278597   3.755   1.024   2.782  0.3505 -0.4233 -0.2463
26007SOL     OW78598   2.003   7.594   1.959 -0.0308 -0.6114  0.0938
26007SOL    HW178599   1.989   7.500   1.972  1.4526 -1.0398 -1.0869
26007SOL    HW278600   1.918   7.628   1.933 -0.4475 -1.7439 -0.0704
26008SOL     OW78601   8.466   9.567   0.479  0.4917 -0.1351 -0.0006
26008SOL    HW178602   8.462   9.563   0.383 -0.7198 -1.0790  0.0731
26008SOL    HW278603   8.536   9.630   0.497  0.3434  0.5010 -1.5050
26009SOL     OW78604   7.636   3.827   4.217  0.0837  0.0525 -0.2539
26009SOL    HW178605   7.696   3.787   4.280  2.3843  1.0540 -1.6803
26009SOL    HW278606   7.607   3.754   4.162 -1.3041 -0.6935  1.4018
26010SOL     OW78607   3.242   1.052   7.039 -0.5399  0.5323 -0.5624
26010SOL    HW178608   3.231   1.147   7.031 -1.1956  0.4862 -0.2163
26010SOL    HW278609   3.162   1.015   7.002  0.6688  0.0164 -2.9048
26011SOL     OW78610   7.178   6.154   3.247 -0.1822 -0.1668  0.5306
26011SOL    HW178611   7.167   6.078   3.190 -1.5267  1.6766 -1.8544
26011SOL    HW278612   7.273   6.164   3.255  0.0634 -2.8402  2.1046
26012SOL     OW78613   6.898   1.074   7.154  0.5338 -0.2203  0.6879
26012SOL    HW178614   6.950   0.999   7.179  0.5500  0.0295  1.4582
26012SOL    HW278615   6.888   1.068   7.059 -0.6048 -1.9332  0.8794
26013SOL     OW78616   6.648   3.258   6.974 -0.4267  0.8324 -0.4443
26013SOL    HW178617   6.679   3.254   7.065  1.1852  2.1655 -0.8861
26013SOL    HW278618   6.682   3.341   6.941 -0.4012  0.0675 -2.4640
26014SOL     OW78619   9.087   3.018   6.394 -1.0034 -0.1078 -0.4157
26014SOL    HW178620   9.110   2.977   6.311 -0.5623 -1.6204  0.4178
26014SOL    HW278621   9.170   3.044   6.433 -1.0837 -0.7198  0.1917
26015SOL     OW78622   4.055   0.833   3.301 -0.4430 -0.5001 -0.0029
26015SOL    HW178623   4.071   0.746   3.338 -2.5778 -0.8060  0.3816
26015SOL    HW278624   4.080   0.825   3.209 -1.2244 -1.7484 -0.1308
26016SOL     OW78625   1.291   2.964   0.936  0.1499  0.7754 -0.6649
26016SOL    HW178626   1.292   2.965   1.032  2.4813 -1.0699 -0.5779
26016SOL    HW278627   1.214   2.913   0.913  0.2194  0.2279  0.2778
26017SOL     OW78628   1.902   1.703   0.487  0.2719  0.4596 -0.1468
26017SOL    HW178629   1.869   1.758   0.416  0.6863 -0.3479 -0.9857
26017SOL    HW278630   1.992   1.682   0.462 -0.0897 -1.1828 -0.2312
26018SOL     OW78631   8.758   0.823   0.812 -0.5858  0.1848 -0.6376
26018SOL    HW178632   8.663   0.807   0.809 -0.6114 -0.5204  2.0093
26018SOL    HW278633   8.768   0.895   0.874  0.6907 -0.9736  0.5689
26019SOL     OW78634   2.748   3.471   6.928 -0.6896  0.1999 -0.1406
26019SOL    HW178635   2.789   3.533   6.867  0.6660  0.2492  0.7663
26019SOL    HW278636   2.656   3.496   6.929 -1.0073 -0.5030 -2.9875
26020SOL     OW78637   1.477   4.980   5.014 -0.4297 -0.0528  0.1021
26020SOL    HW178638   1.424   5.006   5.089 -1.3368  0.8904 -0.8245
26020SOL    HW278639   1.510   4.893   5.037 -0.9622  0.0713  1.4395
26021SOL     OW78640   4.681   5.151   0.264  0.1940 -0.0776 -0.3811
26021SOL    HW178641   4.666   5.070   0.216  1.9175 -0.8259  0.2688
26021SOL    HW278642   4.647   5.134   0.352  1.2812 -0.3960 -0.0151
26022SOL     OW78643   0.641   5.046   9.126  0.2989  0.6751 -0.7509
26022SOL    HW178644   0.589   5.042   9.045  0.8484  0.0678 -1.0926
26022SOL    HW278645   0.582   5.083   9.191 -0.6929 -0.3376 -1.0375
26023SOL     OW78646   3.929   2.907   2.091 -0.6257  0.7287  0.1979
26023SOL    HW178647   4.005   2.891   2.034 -2.6580 -0.2661 -2.4210
26023SOL    HW278648   3.967   2.941   2.171  2.5020  1.7469 -1.5292
26024SOL     OW78649   4.042   8.062   1.412  0.7683 -0.3125  0.3686
26024SOL    HW178650   4.014   8.037   1.324  0.4457 -2.5640  1.0261
26024SOL    HW278651   4.088   7.985   1.445 -1.2541 -0.5522  3.0490
26025SOL     OW78652   1.681   4.986   1.439 -0.0238 -0.0858  0.6608
26025SOL    HW178653   1.740   4.991   1.514 -1.3310  0.9059  1.6875
26025SOL    HW278654   1.730   4.938   1.372  1.4908 -0.2697  1.8518
26026SOL     OW78655   8.004   0.962   8.548 -0.4978 -0.4384 -0.1889
26026SOL    HW178656   7.923   0.964   8.497 -0.8589  0.3861  0.3818
26026SOL    HW278657   7.975   0.968   8.639  0.2284  1.1423 -0.0255
26027SOL     OW78658   8.546   0.526   6.911  0.0629  0.1997  0.5399
26027SOL    HW178659   8.457   0.491   6.901  0.9643 -2.3977  0.6903
26027SOL    HW278660   8.546   0.566   6.998 -1.1695  0.9953  0.1969
26028SOL     OW78661   1.054   6.621   8.216  0.3095  0.2884 -0.2494
26028SOL    HW178662   0.967   6.624   8.256  0.9556 -0.3061  1.2535
26028SOL    HW278663   1.037   6.596   8.125 -1.1449  1.0224 -0.2146
26029SOL     OW78664   5.123   7.272   4.850  0.0317  0.3274 -0.2861
26029SOL    HW178665   5.095   7.363   4.859 -0.4683  0.1591 -0.1117
26029SOL    HW278666   5.116   7.236   4.938  1.1153  0.3683 -0.1800
26030SOL     OW78667   8.167   9.163   4.286  0.0524 -0.0179  0.5993
26030SOL    HW178668   8.153   9.241   4.341  0.9497  0.9791 -0.5437
26030SOL    HW278669   8.262   9.151   4.285  0.1157  0.4171 -1.3010
26031SOL     OW78670   9.879   7.250   4.735  0.0230 -0.4771  0.0171
26031SOL    HW178671   9.829   7.268   4.655 -1.0828  0.7653  0.9558
26031SOL    HW278672   9.948   7.316   4.736  0.5484 -1.0046 -0.3004
26032SOL     OW78673   8.147   9.621   7.806  0.5584 -0.6525 -0.1327
26032SOL    HW178674   8.207   9.546   7.805  1.2817 -0.2048  2.3590
26032SOL    HW278675   8.178   9.675   7.879 -1.9850  0.3563  0.3098
26033SOL     OW78676   7.719   8.559   9.856  0.0092  0.3080 -0.2544
26033SOL    HW178677   7.773   8.625   9.812 -0.6710  1.4742  0.6239
26033SOL    HW278678   7.634   8.601   9.867 -1.0219 -1.3777 -1.3148
26034SOL     OW78679   4.420   9.695   2.223  0.3666 -0.2921  0.2494
26034SOL    HW178680   4.360   9.714   2.152 -0.3657  0.1527  0.9755
26034SOL    HW278681   4.486   9.637   2.184  0.2048  0.2586 -0.8814
26035SOL     OW78682   8.942   7.667   1.731  0.0011  0.0326 -0.1848
26035SOL    HW178683   8.995   7.742   1.760  0.6388 -0.3327 -0.3724
26035SOL    HW278684   8.965   7.597   1.792 -0.0015 -0.2289 -0.4818
26036SOL     OW78685   5.901   6.244   2.051  0.1578  0.4194  0.0765
26036SOL    HW178686   5.858   6.271   1.970  0.6476  1.1438  0.0422
26036SOL    HW278687   5.928   6.153   2.035 -1.5095 -0.1125  0.1828
26037SOL     OW78688   7.715   6.942   2.555 -0.0049  0.3816 -0.4132
26037SOL    HW178689   7.634   6.940   2.606  0.7166 -0.1747  0.7775
26037SOL    HW278690   7.747   6.852   2.556  0.4196  0.5125 -1.2241
26038SOL     OW78691   9.411   1.194   5.183  0.5576  0.1052  0.3084
26038SOL    HW178692   9.324   1.229   5.164  0.2719 -0.6262  0.2135
26038SOL    HW278693   9.427   1.131   5.113  2.0668  1.7040 -0.8667
26039SOL     OW78694   6.172   2.147   7.631  0.3584 -0.0751  0.2155
26039SOL    HW178695   6.120   2.104   7.563 -0.0208 -0.7099  0.8944
26039SOL    HW278696   6.263   2.138   7.603  0.2737 -1.2400  0.3070
26040SOL     OW78697   6.413   4.165   8.644  0.2284  0.1351 -0.0381
26040SOL    HW178698   6.368   4.189   8.725  1.6908  2.5602  0.1701
26040SOL    HW278699   6.354   4.196   8.575 -0.9528 -1.8048  0.0376
26041SOL     OW78700   4.527   6.462   6.856 -0.0954  0.1582  0.0772
26041SOL    HW178701   4.521   6.502   6.942  0.4418 -1.6682  1.0113
26041SOL    HW278702   4.475   6.381   6.863 -0.6189  0.3094 -1.5342
26042SOL     OW78703   9.417   9.942   0.559  0.4023 -0.6630  0.0398
26042SOL    HW178704   9.369   9.859   0.552  0.9236 -0.8558 -1.6389
26042SOL    HW278705   9.497   9.929   0.508  0.5137  0.8547 -0.2416
26043SOL     OW78706   4.248   4.155   5.765 -0.0983 -0.2057  0.2400
26043SOL    HW178707   4.239   4.091   5.695  0.8628  0.8393 -0.8867
26043SOL    HW278708   4.164   4.152   5.812 -1.8646  0.9638 -2.5956
26044SOL     OW78709   8.721   2.542   5.156 -0.0186  0.0971 -0.2179
26044SOL    HW178710   8.722   2.638   5.161  1.3610  0.0537  1.2895
26044SOL    HW278711   8.812   2.519   5.135 -0.1267 -0.9086  0.3609
26045SOL     OW78712   6.979   3.368   3.403  1.3450  0.2595 -0.0201
26045SOL    HW178713   6.949   3.291   3.354  2.1970  0.1815 -0.4349
26045SOL    HW278714   7.068   3.347   3.430  1.9097  1.4295 -0.8759
26046SOL     OW78715   2.273   5.397   3.414  0.1471  0.4431  0.2872
26046SOL    HW178716   2.270   5.370   3.323 -0.2172  1.5364 -0.0415
26046SOL    HW278717   2.335   5.471   3.415  0.7416 -0.0497  1.0622
26047SOL     OW78718   7.474   3.292   3.969 -0.2645  0.2447  0.4240
26047SOL    HW178719   7.455   3.360   3.905 -0.1733 -2.3139 -2.6002
26047SOL    HW278720   7.394   3.287   4.023 -1.6711  0.4790 -1.5359
26048SOL     OW78721   1.233   5.679   3.560 -0.2798  0.2762  0.1199
26048SOL    HW178722   1.315   5.667   3.608  0.3447  1.9308 -0.4911
26048SOL    HW278723   1.244   5.626   3.481 -0.4586 -0.7381  0.7416
26049SOL     OW78724   3.354   6.122   8.788  0.2144  0.3646  0.3861
26049SOL    HW178725   3.300   6.046   8.769  1.8713 -1.2491  1.7998
26049SOL    HW278726   3.351   6.174   8.708 -0.8515 -1.2400 -0.6695
26050SOL     OW78727   0.486   7.456   1.666 -0.5306 -0.0864 -0.0004
26050SOL    HW178728   0.575   7.475   1.635 -0.8524  2.2143  0.2940
26050SOL    HW278729   0.465   7.371   1.627  1.0167  0.2777 -1.8065
26051SOL     OW78730   2.715   1.311   8.955 -0.3014 -0.2483  0.1342
26051SOL    HW178731   2.755   1.235   8.911 -0.5472 -0.2485 -0.0933
26051SOL    HW278732   2.707   1.376   8.886  0.8175  0.3549  0.5426
26052SOL     OW78733   8.545   8.820   3.374 -0.4259  0.9529  0.1436
26052SOL    HW178734   8.518   8.729   3.366 -1.4114  1.2890 -0.5856
26052SOL    HW278735   8.570   8.845   3.285  2.6418  0.5953  0.8182
26053SOL     OW78736   4.198   7.216   1.819  0.0117  0.1485  0.3404
26053SOL    HW178737   4.181   7.310   1.829  0.0374  0.1093  0.7844
26053SOL    HW278738   4.199   7.202   1.724 -1.3843  0.3403  0.2744
26054SOL     OW78739   4.289   2.883   7.928  0.0774  0.1451  0.2939
26054SOL    HW178740   4.289   2.788   7.940 -0.1672  0.0272 -0.5484
26054SOL    HW278741   4.300   2.918   8.016 -0.5327 -0.6603  0.7137
26055SOL     OW78742   4.786   9.394   2.817  0.0752 -0.1054 -0.2126
26055SOL    HW178743   4.769   9.483   2.849  1.3060 -0.1931  0.7600
26055SOL    HW278744   4.864   9.402   2.763 -1.6773 -0.0601 -2.9297
26056SOL     OW78745   3.542   0.793   3.653  0.5228  0.0706 -0.4302
26056SOL    HW178746   3.592   0.722   3.612  1.0699  0.0997  0.1690
26056SOL    HW278747   3.588   0.873   3.628 -0.2848  0.2623 -1.3789
26057SOL     OW78748   6.619   9.153   2.740 -0.7899 -0.3041  0.2824
26057SOL    HW178749   6.555   9.110   2.797 -0.2863 -1.0429  0.2940
26057SOL    HW278750   6.603   9.114   2.654 -0.6958 -0.1130  0.1781
26058SOL     OW78751   2.664   8.182   2.371 -0.0006  0.1903  0.3250
26058SOL    HW178752   2.673   8.114   2.438 -0.2966 -0.9774 -0.7662
26058SOL    HW278753   2.587   8.231   2.397 -1.1198 -1.3075 -0.0043
26059SOL     OW78754   2.141   4.485   6.496  0.0517  0.2761 -0.1642
26059SOL    HW178755   2.160   4.579   6.504  1.8429 -0.1255  0.8408
26059SOL    HW278756   2.068   4.481   6.435  1.0005  2.2163 -1.5471
26060SOL     OW78757   8.166   8.082   7.361 -0.3911  0.2088 -0.0308
26060SOL    HW178758   8.191   8.156   7.416  5.1103 -1.6551  0.6231
26060SOL    HW278759   8.181   8.005   7.416 -0.8637 -1.5492 -2.2084
26061SOL     OW78760   4.984   2.865   9.176 -0.0376  0.5032 -0.0732
26061SOL    HW178761   4.893   2.885   9.151 -0.0666  1.0641  0.4440
26061SOL    HW278762   4.997   2.914   9.257  0.8356  0.6883 -0.3174
26062SOL     OW78763   1.621   1.248   4.841  0.2650  0.4426  0.1620
26062SOL    HW178764   1.618   1.339   4.812  0.3318  0.8362  1.3448
26062SOL    HW278765   1.682   1.248   4.914 -0.5750 -0.3347  0.8913
26063SOL     OW78766   3.172   9.432   6.691  0.4479  0.5066  0.4577
26063SOL    HW178767   3.146   9.522   6.669  0.7121  0.3655 -0.4862
26063SOL    HW278768   3.141   9.380   6.617  0.7434 -0.1078  0.7623
26064SOL     OW78769   2.469   7.672   2.757 -0.2580 -0.8938 -0.0195
26064SOL    HW178770   2.527   7.696   2.685 -0.5849 -1.5412 -0.5090
26064SOL    HW278771   2.508   7.591   2.793 -0.5056 -0.9812  0.0531
26065SOL     OW78772   6.847   1.803   8.713 -0.0759  0.1537  0.4251
26065SOL    HW178773   6.823   1.749   8.789 -0.5506  0.3545  0.4203
26065SOL    HW278774   6.879   1.885   8.750  0.3273  0.0031  0.4224
26066SOL     OW78775   2.864   5.690   7.433  0.2992  0.3063  0.4695
26066SOL    HW178776   2.935   5.702   7.371  1.7721  0.1147  2.0325
26066SOL    HW278777   2.889   5.743   7.509 -0.7835 -0.4614  1.4160
26067SOL     OW78778   3.757   0.244   7.165  0.2469 -0.1345 -0.6706
26067SOL    HW178779   3.661   0.236   7.172  0.1488  0.1648 -1.5066
26067SOL    HW278780   3.771   0.287   7.081  1.0586  1.6433  0.3228
26068SOL     OW78781   6.950   7.540   4.026 -0.2244  0.5219  0.1479
26068SOL    HW178782   6.856   7.527   4.018 -0.2820  1.3629 -0.6660
26068SOL    HW278783   6.987   7.453   4.014 -0.8432  0.3629 -0.7134
26069SOL     OW78784   5.210   8.891   5.106 -0.5272  0.2516  0.1483
26069SOL    HW178785   5.259   8.823   5.153 -0.9945 -1.3549 -1.5946
26069SOL    HW278786   5.118   8.865   5.114 -0.7089  0.6352 -0.5839
26070SOL     OW78787   1.146   2.705   8.935  0.1561 -0.7407  0.1462
26070SOL    HW178788   1.084   2.644   8.896 -1.1992  0.0395  0.9954
26070SOL    HW278789   1.126   2.703   9.028  0.2682  0.7843  0.2246
26071SOL     OW78790   9.189   4.527   1.024 -0.4246 -0.2516  0.3044
26071SOL    HW178791   9.151   4.491   0.944  0.0081 -0.1168  0.0344
26071SOL    HW278792   9.269   4.570   0.995 -0.0239 -0.5968  0.8770
26072SOL     OW78793   4.556   7.556   0.225 -0.7930  0.2480  0.3458
26072SOL    HW178794   4.571   7.504   0.304 -0.0226  0.0032  0.0502
26072SOL    HW278795   4.642   7.591   0.203 -1.2441  1.4019  0.3648
26073SOL     OW78796   6.976   1.764   5.511 -0.5108 -0.0367  0.6647
26073SOL    HW178797   6.914   1.828   5.477  0.5468  2.1289  2.5384
26073SOL    HW278798   7.029   1.813   5.574  1.5995 -2.3279  0.8376
26074SOL     OW78799   8.644   3.989   8.951  0.0386  0.0989  0.1605
26074SOL    HW178800   8.670   4.003   8.860 -0.3474  0.0696  0.0424
26074SOL    HW278801   8.676   3.901   8.972  0.3385  0.2019  0.1270
26075SOL     OW78802   1.634   9.565   3.212 -0.0614  0.1577  0.1982
26075SOL    HW178803   1.710   9.520   3.249  0.0870  1.2843  1.3678
26075SOL    HW278804   1.671   9.625   3.147 -0.0378  0.1068  0.1647
26076SOL     OW78805   4.786   4.319   5.689  0.1448  0.0883  0.0297
26076SOL    HW178806   4.717   4.323   5.622  0.2759 -2.0366 -0.3151
26076SOL    HW278807   4.828   4.405   5.685 -1.2940  0.8023 -1.0391
26077SOL     OW78808   5.789   7.412   1.698 -0.4663  0.4905 -0.0386
26077SOL    HW178809   5.795   7.499   1.660  0.8273 -0.4490 -2.1949
26077SOL    HW278810   5.711   7.373   1.659  1.9510 -1.2230 -3.8028
26078SOL     OW78811   0.675   5.942   9.210 -0.2595  0.4395  0.7734
26078SOL    HW178812   0.771   5.943   9.208 -0.2239 -0.6188  1.2782
26078SOL    HW278813   0.651   5.856   9.176 -1.0730  1.0601 -0.2759
26079SOL     OW78814   8.492   5.898   4.456  0.3976 -0.5472  0.0009
26079SOL    HW178815   8.419   5.877   4.515 -0.2654 -0.1833 -0.6842
26079SOL    HW278816   8.568   5.906   4.515 -0.3277  0.2210  0.8598
26080SOL     OW78817   4.180   1.030  -0.001 -0.3410  0.4204  0.0457
26080SOL    HW178818   4.202   0.975   0.074 -0.4095  0.9799  0.4884
26080SOL    HW278819   4.264   1.063  -0.032 -0.1304 -1.1997 -1.2459
26081SOL     OW78820   8.518   7.284   3.772  0.1570 -0.7545  0.2156
26081SOL    HW178821   8.534   7.217   3.706  0.2638 -1.7142  1.1890
26081SOL    HW278822   8.572   7.258   3.847  0.7295  0.7850  0.3879
26082SOL     OW78823   5.278   4.770   9.325 -0.0452  0.3755  0.3211
26082SOL    HW178824   5.323   4.853   9.313  0.7468 -0.0389  0.3049
26082SOL    HW278825   5.348   4.705   9.325 -0.6165 -0.2605  0.6566
26083SOL     OW78826   2.389   9.278   1.113  0.2151 -0.1415  0.0819
26083SOL    HW178827   2.432   9.347   1.062  1.0428 -0.2864  0.5698
26083SOL    HW278828   2.429   9.197   1.082 -0.0442 -0.3196  0.2112
26084SOL     OW78829   5.710   4.506   9.071  0.0429  0.2483  0.2884
26084SOL    HW178830   5.791   4.496   9.021  1.1505  1.2054  1.8038
26084SOL    HW278831   5.735   4.485   9.161 -1.5328  0.0437  0.7063
26085SOL     OW78832   4.773   7.224   0.113 -0.5043  0.3708  0.2938
26085SOL    HW178833   4.727   7.176   0.181 -1.7148  0.2030 -0.5978
26085SOL    HW278834   4.828   7.158   0.070 -0.8331  0.1547  0.1971
26086SOL     OW78835   3.006   3.017   9.942 -0.0951 -0.5430 -0.4378
26086SOL    HW178836   3.033   3.073  10.015 -1.5169 -0.1844 -0.1519
26086SOL    HW278837   2.920   2.983   9.968 -1.3742  0.8194 -2.5504
26087SOL     OW78838   7.001   7.353   2.925 -0.3299 -0.0918 -0.3360
26087SOL    HW178839   7.009   7.445   2.899  0.1958 -0.2998 -0.9481
26087SOL    HW278840   7.044   7.305   2.854  2.2430 -0.6236  1.4495
26088SOL     OW78841   9.932   5.251   3.866 -0.4412  0.1981  0.2983
26088SOL    HW178842   9.978   5.231   3.948  0.9521 -1.2543 -0.7635
26088SOL    HW278843   9.867   5.182   3.857  1.2633 -1.3618 -1.0901
26089SOL     OW78844   3.237   9.065   2.194  0.6470 -0.1492 -0.3634
26089SOL    HW178845   3.152   9.063   2.237  1.4622 -3.3047  1.4226
26089SOL    HW278846   3.239   9.150   2.149 -2.1626  1.4025  2.0586
26090SOL     OW78847   4.352   8.843   2.573 -0.0271 -0.0178 -0.3511
26090SOL    HW178848   4.376   8.929   2.607 -0.4663  0.1593 -0.4918
26090SOL    HW278849   4.320   8.795   2.650  0.7141 -0.2422 -0.1692
26091SOL     OW78850   1.815   6.511   1.996 -0.1910 -0.1394  0.2219
26091SOL    HW178851   1.894   6.475   2.037  1.2863  0.9396 -1.5186
26091SOL    HW278852   1.836   6.603   1.979 -2.3799  0.5686  0.9315
26092SOL     OW78853   8.369   4.177   6.118 -0.0654  0.1077 -0.1701
26092SOL    HW178854   8.335   4.187   6.029 -0.2916 -1.6363 -0.3129
26092SOL    HW278855   8.462   4.200   6.111 -0.0294 -0.2435 -0.9160
26093SOL     OW78856   4.186   5.761   3.590  0.2527 -0.2405  0.0384
26093SOL    HW178857   4.254   5.701   3.558 -0.4801 -0.8699 -0.3891
26093SOL    HW278858   4.233   5.841   3.613  1.0313 -0.3584 -1.0585
26094SOL     OW78859   6.587   4.088   6.945  0.3828 -0.1031  0.0625
26094SOL    HW178860   6.563   4.095   7.038  0.2360 -0.7892  0.0858
26094SOL    HW278861   6.674   4.128   6.940  1.4164 -2.0645  0.9583
26095SOL     OW78862   2.735   7.107   6.340  0.4119 -0.0530 -0.2113
26095SOL    HW178863   2.656   7.059   6.364  1.3741 -1.4582  0.2021
26095SOL    HW278864   2.727   7.190   6.387 -1.3204  0.2932 -1.0162
26096SOL     OW78865   5.774   1.176   0.385  0.2716 -0.1563  0.1907
26096SOL    HW178866   5.829   1.108   0.345  1.1354  1.3377 -1.2719
26096SOL    HW278867   5.835   1.238   0.424 -0.4862  0.0630  1.0694
26097SOL     OW78868   4.273   7.465   8.895 -0.0326 -0.1629 -0.0286
26097SOL    HW178869   4.213   7.514   8.838 -0.0495  0.6822  0.6848
26097SOL    HW278870   4.224   7.388   8.922 -0.8598  0.5597  0.6105
26098SOL     OW78871   0.634   0.186   1.575 -0.2099 -0.2381 -0.1532
26098SOL    HW178872   0.645   0.192   1.670 -1.1017  1.6384 -0.1201
26098SOL    HW278873   0.704   0.240   1.539  0.1894 -1.0298 -0.5788
26099SOL     OW78874   3.358   2.274   4.881 -0.2282 -0.0627 -0.1337
26099SOL    HW178875   3.338   2.245   4.970 -1.0706 -1.1865 -0.6699
26099SOL    HW278876   3.391   2.363   4.892  1.9917 -0.9918  1.5421
26100SOL     OW78877   3.905   9.772   4.758 -0.1992 -0.5759 -0.1096
26100SOL    HW178878   3.842   9.763   4.829 -0.5208  0.9657 -0.1812
26100SOL    HW278879   3.879   9.705   4.694 -1.0926 -0.6732  0.3406
26101SOL     OW78880   6.684   6.541   4.533 -0.3225 -0.1468  0.5101
26101SOL    HW178881   6.744   6.559   4.606  1.5430 -2.3432 -0.3569
26101SOL    HW278882   6.736   6.557   4.454 -0.8421 -1.9928 -0.2731
26102SOL     OW78883   4.322   5.735   5.343 -0.4652 -0.6828  0.0690
26102SOL    HW178884   4.328   5.698   5.256  0.3555 -2.8951  1.0006
26102SOL    HW278885   4.412   5.737   5.375 -0.4401  2.1358  0.1479
26103SOL     OW78886   1.656   9.614   0.808  0.2566 -0.2796  0.3954
26103SOL    HW178887   1.574   9.662   0.820  0.3158  0.0172 -0.3603
26103SOL    HW278888   1.666   9.606   0.714  1.8146  0.9543  0.4023
26104SOL     OW78889   8.394   6.264   9.955 -0.5077  0.6422 -0.3408
26104SOL    HW178890   8.343   6.187   9.932 -0.1636 -0.1055  1.2473
26104SOL    HW278891   8.355   6.295  10.037  1.0392  0.5337  0.4775
26105SOL     OW78892   0.213   7.271   2.295 -0.1334  0.5010  0.7396
26105SOL    HW178893   0.235   7.178   2.285 -0.8905  0.3888 -0.0477
26105SOL    HW278894   0.187   7.280   2.386 -0.8954 -0.2524  0.6052
26106SOL     OW78895   1.512   2.879   9.872 -0.0452  0.0617 -0.4610
26106SOL    HW178896   1.606   2.868   9.860 -0.2034 -1.8089 -0.2146
26106SOL    HW278897   1.474   2.797   9.842 -1.3401 -0.4836  2.3636
26107SOL     OW78898   1.169   6.887   2.120 -0.1754  0.5141 -0.3370
26107SOL    HW178899   1.157   6.960   2.180 -0.2759 -0.4021  0.7950
26107SOL    HW278900   1.113   6.909   2.045  0.4510  1.9765 -0.4169
26108SOL     OW78901   0.276   9.398   0.121 -0.0381  0.3339 -0.3654
26108SOL    HW178902   0.308   9.382   0.210  2.3388  2.2380 -0.7643
26108SOL    HW278903   0.208   9.465   0.132 -0.1642  0.1403  0.0535
26109SOL     OW78904   9.491   1.429   5.621 -0.1108  0.1694 -0.3965
26109SOL    HW178905   9.488   1.358   5.684 -1.7641  0.4769 -0.0862
26109SOL    HW278906   9.508   1.386   5.537 -1.1239 -0.6035 -0.2190
26110SOL     OW78907   8.703   4.418   1.477 -0.1331 -0.3432  0.2237
26110SOL    HW178908   8.748   4.476   1.539  2.5108 -0.2173 -1.6397
26110SOL    HW278909   8.727   4.330   1.506 -1.4308 -0.4281  1.1152
26111SOL     OW78910   6.091   8.437   3.239 -0.1304 -1.0267  0.6979
26111SOL    HW178911   6.081   8.390   3.322  2.1399  1.7193  2.7170
26111SOL    HW278912   6.175   8.406   3.205  0.5898  0.3034  1.2155
26112SOL     OW78913   3.031   7.793   3.162  0.5297  0.0025  0.6437
26112SOL    HW178914   3.065   7.751   3.241  1.7377 -2.2222 -0.9557
26112SOL    HW278915   2.968   7.730   3.126  1.3296  0.1383 -1.0949
26113SOL     OW78916   7.394   5.058   3.572  0.0943 -0.2031 -0.2631
26113SOL    HW178917   7.347   5.112   3.636  0.9782 -1.8213  1.9156
26113SOL    HW278918   7.325   5.010   3.526 -0.5777  1.0724 -0.6202
26114SOL     OW78919   5.368   6.064   2.482  0.4993 -0.0886 -0.3783
26114SOL    HW178920   5.413   5.980   2.482 -1.6269 -1.3129 -1.5312
26114SOL    HW278921   5.326   6.069   2.396  0.8867  2.3690 -0.4943
26115SOL     OW78922   1.670   4.929   4.639 -0.0361  0.0633  0.1308
26115SOL    HW178923   1.678   5.021   4.663  0.3645  0.2300 -0.6193
26115SOL    HW278924   1.736   4.884   4.693  0.7885  0.4186 -0.5621
26116SOL     OW78925   8.171   9.657   0.194  0.0025  0.3045  0.0106
26116SOL    HW178926   8.223   9.692   0.122 -1.0126 -0.2367 -1.0065
26116SOL    HW278927   8.123   9.732   0.228 -0.6715  0.2893 -0.8808
26117SOL     OW78928   6.965   5.434   9.696  0.6006 -0.4054 -0.1372
26117SOL    HW178929   7.049   5.477   9.682 -0.0677  1.1170  0.2797
26117SOL    HW278930   6.900   5.498   9.666 -0.5149 -0.4547  1.9942
26118SOL     OW78931   8.501   2.244   6.580 -0.0202  0.3555 -0.3335
26118SOL    HW178932   8.446   2.186   6.526 -1.1328  1.6354 -0.6362
26118SOL    HW278933   8.439   2.303   6.622  1.0134  0.7174  0.7193
26119SOL     OW78934   0.709   8.429   9.292 -0.0362  0.1056 -0.1194
26119SOL    HW178935   0.755   8.346   9.298 -0.5490 -0.3095 -1.4473
26119SOL    HW278936   0.771   8.489   9.251  0.6740  0.6929  1.6978
26120SOL     OW78937   2.153   2.479   6.992  0.6471  0.4763  0.3074
26120SOL    HW178938   2.140   2.440   6.906  3.4350  0.4703 -0.1956
26120SOL    HW278939   2.162   2.573   6.975 -0.4260  0.7005  0.8456
26121SOL     OW78940   4.388   3.159   7.421  0.2714 -0.6478 -0.2661
26121SOL    HW178941   4.449   3.232   7.425 -0.2154 -0.1824 -0.9136
26121SOL    HW278942   4.406   3.118   7.336 -1.1846  0.3159 -1.0896
26122SOL     OW78943   2.623   3.947   8.644  0.1670 -0.4099 -0.7371
26122SOL    HW178944   2.567   4.011   8.599 -2.0878 -1.6317  0.1437
26122SOL    HW278945   2.648   3.884   8.577  0.5380  0.1576 -1.1440
26123SOL     OW78946   5.468   5.182   2.205  0.8634  0.6452 -0.1918
26123SOL    HW178947   5.412   5.136   2.267  0.2597  1.1784 -0.3291
26123SOL    HW278948   5.489   5.265   2.247  3.0480 -0.2394  0.6304
26124SOL     OW78949   4.734   5.656   3.996 -0.6089 -0.1290 -0.0402
26124SOL    HW178950   4.724   5.591   4.065 -2.6234 -1.2164 -1.2339
26124SOL    HW278951   4.789   5.612   3.930 -1.1232 -0.2492 -0.3967
26125SOL     OW78952   1.140   1.625   3.162  0.0610 -0.0320 -0.2394
26125SOL    HW178953   1.115   1.673   3.082 -1.3131  1.9857  1.2896
26125SOL    HW278954   1.234   1.610   3.152 -0.1058 -0.0611 -2.3231
26126SOL     OW78955   1.538   4.721   5.528 -0.5821 -0.0795  0.5563
26126SOL    HW178956   1.591   4.740   5.450 -0.8774 -0.9805  0.1246
26126SOL    HW278957   1.599   4.731   5.601 -0.1823  0.3163  0.1781
26127SOL     OW78958   8.085   3.041   3.863  0.9461  0.3875 -0.0386
26127SOL    HW178959   8.108   2.991   3.941  0.1650  2.1684  1.3984
26127SOL    HW278960   8.006   3.090   3.887  1.5120  2.1044 -1.4326
26128SOL     OW78961   8.989   9.664   7.484  0.0033  0.1421  0.2469
26128SOL    HW178962   8.942   9.724   7.426 -0.8615  0.5084  1.2939
26128SOL    HW278963   8.958   9.577   7.458 -0.2745  0.2939  0.0667
26129SOL     OW78964   9.467   2.817   8.000 -0.3596  0.1610 -0.2298
26129SOL    HW178965   9.546   2.850   8.044 -1.1093  1.3157  0.2991
26129SOL    HW278966   9.473   2.722   8.009  0.9767  0.2259 -0.2199
26130SOL     OW78967   8.681   9.311   5.056  0.8826 -0.4946 -0.3168
26130SOL    HW178968   8.612   9.263   5.102 -0.9964  1.4134 -0.9857
26130SOL    HW278969   8.715   9.248   4.992 -0.7976 -1.2765 -0.4930
26131SOL     OW78970   6.796   8.827   1.165  0.2986  0.3178 -0.2553
26131SOL    HW178971   6.819   8.869   1.247  3.1678 -0.9382 -0.3160
26131SOL    HW278972   6.748   8.748   1.191 -0.2549  0.7631  0.0960
26132SOL     OW78973   7.501   8.297   0.034  0.6022  0.6784  0.4051
26132SOL    HW178974   7.416   8.338   0.050  0.1410 -0.1810  0.2111
26132SOL    HW278975   7.491   8.254  -0.051  1.6719  1.6726 -0.2637
26133SOL     OW78976   7.021   3.710   3.749  0.1599  0.2994  0.2284
26133SOL    HW178977   7.024   3.760   3.830  2.5430 -2.4594  2.0483
26133SOL    HW278978   7.100   3.737   3.702  0.1387  0.0496  0.0458
26134SOL     OW78979   4.469   7.808   8.232 -0.2730 -0.4514  0.4592
26134SOL    HW178980   4.462   7.852   8.147  1.4999 -1.4758 -0.2541
26134SOL    HW278981   4.533   7.860   8.280  1.3033 -1.7462 -0.1318
26135SOL     OW78982   2.493   8.188   8.333  0.6200  0.3877 -0.0679
26135SOL    HW178983   2.456   8.173   8.420  0.5748 -1.0710 -0.3180
26135SOL    HW278984   2.496   8.102   8.293 -0.6571  1.2024 -2.0681
26136SOL     OW78985   1.604   3.650   4.309  0.1445 -0.1027  0.2735
26136SOL    HW178986   1.560   3.594   4.373  0.1823  1.0448  1.3353
26136SOL    HW278987   1.557   3.635   4.227 -1.1999 -0.1008  1.0259
26137SOL     OW78988   9.950   8.891   6.612  0.1261 -0.8031 -0.0722
26137SOL    HW178989   9.970   8.948   6.537 -0.9650  0.2698  0.4235
26137SOL    HW278990   9.949   8.803   6.575  2.1106 -0.5609 -0.8046
26138SOL     OW78991   8.583   2.074   8.215  0.2417 -0.2345 -0.3771
26138SOL    HW178992   8.566   2.056   8.308  0.5167 -2.2360 -0.6881
26138SOL    HW278993   8.513   2.135   8.190 -0.2956 -0.2784  0.9465
26139SOL     OW78994   3.307   4.859   7.072 -0.6154 -0.2056 -0.2976
26139SOL    HW178995   3.387   4.809   7.060  0.0782  0.5367  1.0380
26139SOL    HW278996   3.304   4.918   6.996  0.1063 -0.2408 -0.3578
26140SOL     OW78997   5.239   2.057   7.242 -0.2228  0.4305 -0.2348
26140SOL    HW178998   5.320   2.109   7.239  1.3757 -1.7756  1.0840
26140SOL    HW278999   5.187   2.098   7.311  0.8356  0.5289  0.5371
26141SOL     OW79000   5.107   1.547   7.710  0.2347 -0.0657 -0.2959
26141SOL    HW179001   5.187   1.576   7.668  1.4227 -1.1172  1.1101
26141SOL    HW279002   5.102   1.453   7.691  0.9727 -0.6487  2.0090
26142SOL     OW79003   0.887   5.596   4.657 -0.3075  0.3069 -0.2656
26142SOL    HW179004   0.952   5.652   4.698 -0.1521  0.3040 -0.5094
26142SOL    HW279005   0.937   5.526   4.616 -0.4850  0.1260 -0.1782
26143SOL     OW79006   3.418   7.949   5.518  0.1991 -0.2575 -0.1928
26143SOL    HW179007   3.387   7.862   5.491 -0.7057  0.1221 -0.4216
26143SOL    HW279008   3.365   8.010   5.467  1.6138  0.4378 -0.8930
26144SOL     OW79009   2.228   6.487   5.735  0.2763  0.4166 -0.2118
26144SOL    HW179010   2.145   6.514   5.773  1.6095  0.0617  3.3066
26144SOL    HW279011   2.230   6.392   5.746  0.8387  0.3265 -0.9965
26145SOL     OW79012   9.526   0.542   0.444 -0.2657  0.4142 -0.0709
26145SOL    HW179013   9.569   0.462   0.476 -3.3592 -0.6413  1.9201
26145SOL    HW279014   9.535   0.604   0.517  1.9542  1.9582 -1.5352
26146SOL     OW79015   8.248   3.360   1.646 -0.3638 -0.1191 -0.4083
26146SOL    HW179016   8.337   3.326   1.637  0.3850  1.5954  0.1661
26146SOL    HW279017   8.224   3.386   1.557 -0.1182 -0.1631 -0.4891
26147SOL     OW79018   0.304   6.109   9.022  0.6401 -0.1446 -0.0512
26147SOL    HW179019   0.264   6.032   8.982 -1.6328  0.6613  0.4874
26147SOL    HW279020   0.262   6.184   8.979 -0.8264  0.7493  2.6575
26148SOL     OW79021   5.103   2.890   2.477  0.0890  0.5295 -0.0754
26148SOL    HW179022   5.132   2.963   2.423 -0.9555  0.3829 -0.8586
26148SOL    HW279023   5.096   2.816   2.416 -0.4937  0.2028  0.3792
26149SOL     OW79024   6.030   9.552   3.760  0.1973 -0.7159  0.6373
26149SOL    HW179025   5.945   9.589   3.786  1.1915  1.2574  1.3121
26149SOL    HW279026   6.068   9.619   3.703  1.3407 -1.5290  0.4151
26150SOL     OW79027   1.942   6.941   7.206 -0.3538  0.1885  0.0135
26150SOL    HW179028   2.017   6.943   7.147 -1.2613 -0.1062 -1.1840
26150SOL    HW279029   1.895   7.023   7.188 -0.8428 -0.0803  0.0426
26151SOL     OW79030   0.997   0.283   1.585  0.1251  0.5865 -0.5028
26151SOL    HW179031   1.060   0.228   1.539 -1.5638 -0.1314 -2.0788
26151SOL    HW279032   0.986   0.359   1.528 -1.1216  0.2385 -0.7607
26152SOL     OW79033   6.365   1.856   6.723  0.2927 -0.2986  0.0381
26152SOL    HW179034   6.334   1.938   6.685  0.1916 -0.3014  0.1127
26152SOL    HW279035   6.295   1.830   6.784 -0.1829 -1.0005 -0.7793
26153SOL     OW79036   1.421   7.057   0.471  0.1166  0.1144  0.1192
26153SOL    HW179037   1.423   7.053   0.566 -0.6367 -1.7925  0.0817
26153SOL    HW279038   1.405   6.967   0.443 -4.1913  1.1945 -1.6563
26154SOL     OW79039   8.169   3.054   3.576  0.4198  0.3712  0.2367
26154SOL    HW179040   8.099   3.032   3.638 -0.1153 -0.0091 -0.4797
26154SOL    HW279041   8.124   3.061   3.491  1.3358 -0.4175 -0.3294
26155SOL     OW79042   6.345   2.999   6.855 -0.3255  0.2437  0.6803
26155SOL    HW179043   6.331   3.053   6.932 -0.1832  2.1555 -0.5692
26155SOL    HW279044   6.382   3.059   6.790 -0.4232 -1.2995 -0.8762
26156SOL     OW79045   2.356   3.367   0.808 -0.6027  0.2346 -0.3424
26156SOL    HW179046   2.356   3.387   0.714 -1.1725  0.5081 -0.2887
26156SOL    HW279047   2.372   3.451   0.850  0.2904  0.0011 -0.2089
26157SOL     OW79048   4.403   1.917   3.050 -0.1014 -0.8989 -0.3167
26157SOL    HW179049   4.491   1.913   3.011 -0.4474  2.6675 -1.8797
26157SOL    HW279050   4.345   1.936   2.977 -0.9626  4.9137  1.3019
26158SOL     OW79051   4.747   2.481   6.561 -0.3448 -0.1486 -0.6399
26158SOL    HW179052   4.799   2.497   6.639 -0.3808  0.2376 -0.6917
26158SOL    HW279053   4.773   2.550   6.500 -2.1943  1.1572 -0.0214
26159SOL     OW79054   5.908   5.367   7.660  0.0328  0.1844 -0.0126
26159SOL    HW179055   5.985   5.334   7.706  1.2313  1.0830 -1.2968
26159SOL    HW279056   5.901   5.312   7.582 -0.6975  0.0469  0.1453
26160SOL     OW79057   7.684   5.685   3.242  0.0123 -0.7931 -0.2779
26160SOL    HW179058   7.683   5.660   3.335  0.2702  0.8977  0.2198
26160SOL    HW279059   7.629   5.619   3.199 -0.8679 -1.1005  1.2165
26161SOL     OW79060   4.552   3.030   6.900 -0.3353  0.1288  0.1094
26161SOL    HW179061   4.483   3.095   6.888 -0.0371  0.0024 -3.0437
26161SOL    HW279062   4.505   2.948   6.915 -0.8002  0.4367  0.3540
26162SOL     OW79063   3.271   7.321   2.498 -0.0883 -0.1843 -0.0398
26162SOL    HW179064   3.232   7.408   2.497  0.8699  0.2711  0.5428
26162SOL    HW279065   3.204   7.265   2.539 -0.7280  0.2559 -0.4649
26163SOL     OW79066   7.406   5.810   5.043 -0.4329 -0.3370  0.2913
26163SOL    HW179067   7.440   5.847   5.124  0.3560 -0.6487  0.1171
26163SOL    HW279068   7.459   5.850   4.974 -2.7600  1.9037 -0.3353
26164SOL     OW79069   4.125   3.126   3.331 -0.3015  0.0417  0.0850
26164SOL    HW179070   4.189   3.185   3.371  1.5906  1.0113 -3.8471
26164SOL    HW279071   4.160   3.039   3.346 -0.1029  0.2943  1.1588
26165SOL     OW79072   4.937   6.454   3.800 -0.0949  0.1120  0.2032
26165SOL    HW179073   4.878   6.463   3.875 -0.8323  2.2049 -0.5523
26165SOL    HW279074   4.882   6.474   3.724  1.0001 -0.4216 -0.7591
26166SOL     OW79075   3.435   3.145   7.094  0.4585  0.1091 -0.8562
26166SOL    HW179076   3.376   3.220   7.086 -1.2311 -0.8551  1.3880
26166SOL    HW279077   3.481   3.159   7.176  0.0389 -1.3254 -0.3393
26167SOL     OW79078   6.595   2.353   5.766 -0.3366 -0.5637 -0.1246
26167SOL    HW179079   6.632   2.265   5.753  1.1639  0.0316 -0.1121
26167SOL    HW279080   6.596   2.365   5.861 -1.0178 -0.7101 -0.0927
26168SOL     OW79081   8.967   6.976   4.916 -0.2211  0.3925  0.0521
26168SOL    HW179082   8.906   7.037   4.958  1.1633 -1.1027  4.8729
26168SOL    HW279083   9.050   7.024   4.912  0.4145 -0.4347  2.1369
26169SOL     OW79084   3.604   1.578   0.384  0.7531  0.0870 -0.0098
26169SOL    HW179085   3.580   1.620   0.467  0.4441  0.1025 -0.1092
26169SOL    HW279086   3.570   1.489   0.392  1.5637 -0.2112  0.2758
26170SOL     OW79087   9.936   7.928   5.228  0.2098 -0.0215 -0.1471
26170SOL    HW179088   9.872   7.901   5.294  0.1950  1.0855  0.3039
26170SOL    HW279089   9.938   7.855   5.166  0.0707 -0.9890  0.9611
26171SOL     OW79090   8.529   1.581   5.651 -0.5769  0.3816 -0.1445
26171SOL    HW179091   8.613   1.625   5.665 -1.4163  2.1683 -0.4766
26171SOL    HW279092   8.465   1.635   5.698 -1.9417  0.7208 -2.2247
26172SOL     OW79093   1.826   1.752   1.922 -0.1372  0.3645  0.0843
26172SOL    HW179094   1.862   1.825   1.871  2.1239 -0.1869  0.7830
26172SOL    HW279095   1.860   1.674   1.879 -0.2735 -0.1858  0.9545
26173SOL     OW79096   6.715   7.299   7.331  0.0365  0.5252  0.1286
26173SOL    HW179097   6.728   7.284   7.238 -0.2022 -0.9290  0.3087
26173SOL    HW279098   6.679   7.388   7.336  0.9180  0.9715 -1.0737
26174SOL     OW79099   9.211   6.482   5.409 -0.4622 -0.6264  0.1676
26174SOL    HW179100   9.165   6.401   5.431 -1.7550  0.2324  0.7923
26174SOL    HW279101   9.290   6.481   5.462  0.7248 -2.5298 -1.5273
26175SOL     OW79102   6.764   0.909   0.681  0.2269 -0.6206  0.0221
26175SOL    HW179103   6.717   0.992   0.674 -2.4471 -1.9601  0.8661
26175SOL    HW279104   6.728   0.867   0.759  0.6271 -3.0889 -1.0134
26176SOL     OW79105   6.231   7.047   4.544  0.0639 -0.4237  0.2753
26176SOL    HW179106   6.137   7.049   4.560 -0.0084 -0.5329 -0.1222
26176SOL    HW279107   6.251   7.135   4.511 -0.1784 -0.8565 -1.1222
26177SOL     OW79108   2.950   2.844   1.110  0.0561 -0.1323  0.6600
26177SOL    HW179109   2.998   2.773   1.152 -0.5338 -0.0638  1.4720
26177SOL    HW279110   2.953   2.916   1.173  2.0561  1.1751 -0.8150
26178SOL     OW79111   5.691   8.103   3.010  0.0864 -0.5552  0.1200
26178SOL    HW179112   5.740   8.178   3.041  0.4451 -0.6959 -0.0952
26178SOL    HW279113   5.654   8.063   3.089  0.1167 -0.3081  0.2575
26179SOL     OW79114   6.633   1.912   4.174  0.0076  0.4181 -0.5434
26179SOL    HW179115   6.663   1.921   4.264 -0.5835  0.2545 -0.3266
26179SOL    HW279116   6.710   1.879   4.127  0.9893  2.5010 -0.5399
26180SOL     OW79117   5.086   7.241   5.124  0.2042 -0.5974 -0.0199
26180SOL    HW179118   5.047   7.317   5.167  0.5857 -0.8515  0.7905
26180SOL    HW279119   5.146   7.205   5.189  0.4297 -1.2777 -0.5959
26181SOL     OW79120   5.931   2.135   8.379  0.7335 -0.2097  0.2666
26181SOL    HW179121   5.960   2.155   8.468 -0.6315 -0.5468  0.8219
26181SOL    HW279122   5.951   2.214   8.329  3.0200 -0.6131  0.4521
26182SOL     OW79123   5.245   3.249   9.778 -0.0772 -0.1542  0.0704
26182SOL    HW179124   5.320   3.304   9.801 -1.4442  1.1648  1.7132
26182SOL    HW279125   5.230   3.195   9.855 -1.8634  0.9221  0.5481
26183SOL     OW79126   7.545   1.585   3.179  0.2946  0.2180  0.0457
26183SOL    HW179127   7.605   1.584   3.253 -0.2367  0.2579  0.4843
26183SOL    HW279128   7.580   1.652   3.121  1.6938 -0.9938 -0.5765
26184SOL     OW79129   4.734   2.898   3.919 -0.2571 -0.3812 -0.1766
26184SOL    HW179130   4.723   2.972   3.859 -0.0658 -0.2465 -0.0444
26184SOL    HW279131   4.677   2.919   3.993 -0.6707 -0.6555 -0.4085
26185SOL     OW79132   4.967   6.739   0.107 -0.1788  0.7432 -0.4251
26185SOL    HW179133   4.934   6.650   0.095  2.3131 -0.4297  0.7237
26185SOL    HW279134   5.031   6.750   0.036 -1.2252  2.0725 -1.2060
26186SOL     OW79135   1.549   2.626   6.180 -0.4641 -0.4441 -0.8123
26186SOL    HW179136   1.627   2.634   6.235 -1.0733 -1.1508  0.2058
26186SOL    HW279137   1.497   2.557   6.222 -2.2283  0.8591 -0.7161
26187SOL     OW79138   0.339   5.273   9.046 -0.7757 -0.3009 -0.0070
26187SOL    HW179139   0.264   5.308   8.997  0.3815  1.2530 -0.7607
26187SOL    HW279140   0.340   5.179   9.024 -2.0492 -0.2085 -0.5508
26188SOL     OW79141   7.457   7.696   0.840  0.9287 -0.0989  0.1199
26188SOL    HW179142   7.396   7.624   0.831  0.6220  0.1292  0.3410
26188SOL    HW279143   7.458   7.739   0.755  0.2227  0.3353  0.3271
26189SOL     OW79144   1.555   7.323   4.365 -0.2498  0.1785 -0.3095
26189SOL    HW179145   1.647   7.313   4.388 -0.1530  1.1135 -0.2482
26189SOL    HW279146   1.540   7.418   4.363 -1.7842  0.0681  1.9807
26190SOL     OW79147   0.879   3.358   5.633  0.4156 -0.0092  0.1479
26190SOL    HW179148   0.959   3.342   5.684 -1.0701  0.0163  2.6685
26190SOL    HW279149   0.834   3.427   5.682 -0.0343  1.8174 -2.6089
26191SOL     OW79150   0.931   5.725   7.274  0.6367  0.3900  0.4196
26191SOL    HW179151   0.993   5.692   7.209 -0.4415  0.6584 -0.8126
26191SOL    HW279152   0.874   5.783   7.224  0.2749  1.2714  1.8042
26192SOL     OW79153   3.460   5.978   9.637  0.2933 -0.3502  0.2041
26192SOL    HW179154   3.383   6.035   9.646  0.1196 -0.4495 -0.6207
26192SOL    HW279155   3.522   6.029   9.585  0.4599 -0.5983  0.1583
26193SOL     OW79156   5.521   2.676   9.124 -0.3849  0.3856 -0.5167
26193SOL    HW179157   5.515   2.673   9.029 -2.1270 -2.5091 -0.4313
26193SOL    HW279158   5.441   2.720   9.152 -0.2870  0.4737 -0.3739
26194SOL     OW79159   7.359   9.416   3.987  0.2468 -0.2282  0.4455
26194SOL    HW179160   7.388   9.475   4.056 -1.2820 -0.8942  1.7163
26194SOL    HW279161   7.266   9.434   3.977  0.1838 -1.0326 -0.5434
26195SOL     OW79162   7.402   6.600   3.262 -0.1989  0.3588 -0.0129
26195SOL    HW179163   7.415   6.505   3.251  0.5580  0.4609 -0.0763
26195SOL    HW279164   7.417   6.616   3.355 -1.2484  0.2882  0.1779
26196SOL     OW79165   1.701   3.096   1.086  0.3507 -0.3905  0.0856
26196SOL    HW179166   1.672   3.031   1.149  2.1377 -0.7490  0.5915
26196SOL    HW279167   1.781   3.133   1.124  1.7461 -0.9288 -2.1139
26197SOL     OW79168   3.931   2.036   1.627  0.0259 -0.2405 -0.1057
26197SOL    HW179169   3.940   2.096   1.553 -0.7878  0.6918  0.5258
26197SOL    HW279170   3.837   2.027   1.639  0.1470 -0.5598  0.6725
26198SOL     OW79171   3.370   4.902   7.776 -0.6418  0.2952 -0.2884
26198SOL    HW179172   3.442   4.929   7.718 -0.8003  0.5065 -0.3893
26198SOL    HW279173   3.413   4.871   7.855 -0.4517  0.7906 -0.1937
26199SOL     OW79174   5.489   0.346   8.950  0.6106 -0.4654  0.0685
26199SOL    HW179175   5.564   0.310   8.997  0.5912 -0.8377 -0.1872
26199SOL    HW279176   5.443   0.399   9.015  1.5283  0.4175  0.0383
26200SOL     OW79177   6.467   9.722   8.133  0.4796 -0.2382 -0.5963
26200SOL    HW179178   6.513   9.780   8.073 -0.6749 -0.4829 -1.7506
26200SOL    HW279179   6.487   9.634   8.102  1.4022 -0.4467  0.5356
26201SOL     OW79180   0.042   4.092   0.224 -0.3207 -0.0426 -0.1384
26201SOL    HW179181  -0.024   4.114   0.290 -0.4441  0.6020 -0.4705
26201SOL    HW279182   0.089   4.017   0.261 -1.8018 -1.0905 -0.2791
26202SOL     OW79183   1.127   2.709   5.046 -0.2886 -0.2973 -0.2563
26202SOL    HW179184   1.206   2.656   5.039 -0.7094 -0.7029 -2.5855
26202SOL    HW279185   1.089   2.683   5.130  1.1165 -1.3975  0.0811
26203SOL     OW79186   8.489   0.216   4.919 -0.3170  0.2787  0.2466
26203SOL    HW179187   8.419   0.225   4.983 -1.1468  0.2792 -0.6309
26203SOL    HW279188   8.481   0.126   4.887  1.2429 -0.3170  1.4145
26204SOL     OW79189   5.382   0.842   8.394  0.5169  0.5376 -0.4788
26204SOL    HW179190   5.321   0.797   8.451  0.9583  1.3263  0.6585
26204SOL    HW279191   5.447   0.775   8.371 -0.2156 -0.0461 -0.9153
26205SOL     OW79192   6.657   1.671   0.525 -0.2911  0.2621 -0.0336
26205SOL    HW179193   6.662   1.750   0.578 -0.6113 -0.8471  1.7389
26205SOL    HW279194   6.566   1.642   0.535 -0.2565 -0.1773 -0.9054
26206SOL     OW79195   7.619   8.154   3.674 -0.4182 -0.3243 -0.1640
26206SOL    HW179196   7.627   8.120   3.763  0.2126  0.0028 -0.0902
26206SOL    HW279197   7.660   8.087   3.619  0.7880  0.2805 -0.0227
26207SOL     OW79198   7.184   5.344   4.715 -0.0018  0.9819  0.1344
26207SOL    HW179199   7.210   5.321   4.626 -0.4368 -1.9461  0.6573
26207SOL    HW279200   7.259   5.321   4.770 -0.0529  1.9564  0.6505
26208SOL     OW79201   7.442   5.414   8.203 -0.0016  0.2841  0.4051
26208SOL    HW179202   7.512   5.353   8.181  0.4757  0.3662  1.6455
26208SOL    HW279203   7.395   5.426   8.120 -0.6252 -2.3950  0.2665
26209SOL     OW79204   6.842   7.538   4.836  0.1948  0.1237 -0.8248
26209SOL    HW179205   6.863   7.489   4.916 -2.1451 -0.6969 -0.6264
26209SOL    HW279206   6.801   7.474   4.778  0.5113  1.0328 -2.0970
26210SOL     OW79207   7.571   5.609   0.861 -0.0836 -0.2455  0.1938
26210SOL    HW179208   7.619   5.632   0.782  1.0959  1.5951  1.3810
26210SOL    HW279209   7.618   5.653   0.932 -2.0059 -0.5188  1.7314
26211SOL     OW79210   8.437   2.600   1.965  0.3672 -0.1146 -0.4416
26211SOL    HW179211   8.532   2.602   1.972  0.3089 -0.4768  0.4618
26211SOL    HW279212   8.406   2.655   2.037 -0.1037  0.7402 -1.2561
26212SOL     OW79213   2.393   8.850   3.768 -0.0024 -0.1459 -0.8377
26212SOL    HW179214   2.298   8.860   3.759  0.0178 -0.5971 -1.7021
26212SOL    HW279215   2.427   8.939   3.768 -0.4110  0.0139 -0.7096
26213SOL     OW79216   2.316   2.238   4.932  0.6851  0.5549 -0.3194
26213SOL    HW179217   2.270   2.293   4.868 -0.4607 -0.9776 -0.8573
26213SOL    HW279218   2.282   2.266   5.017 -1.8223 -0.9845 -0.7395
26214SOL     OW79219   3.340   4.250   2.058  0.4719 -0.4114 -0.4720
26214SOL    HW179220   3.280   4.228   2.130 -3.1286 -0.6260 -3.2260
26214SOL    HW279221   3.336   4.345   2.052  0.6942 -0.4005 -0.4334
26215SOL     OW79222   1.544   1.574   7.218 -0.3578 -0.0268  0.5977
26215SOL    HW179223   1.471   1.629   7.189  0.0478  0.5197  0.6128
26215SOL    HW279224   1.505   1.517   7.285 -0.9984 -0.4136 -0.0853
26216SOL     OW79225   1.356   8.063   5.742 -0.5255  0.2825  0.1632
26216SOL    HW179226   1.441   8.094   5.711 -0.4868 -0.7325 -0.7632
26216SOL    HW279227   1.294   8.094   5.676 -1.0439  1.7923  1.2751
26217SOL     OW79228   0.797   3.951   2.672 -0.3922 -0.0377  0.0906
26217SOL    HW179229   0.881   3.980   2.708  1.1767 -0.7865 -2.6328
26217SOL    HW279230   0.754   3.906   2.745  2.7559 -1.9365  0.9923
26218SOL     OW79231   8.719   0.941   4.873  0.7480  0.0902 -0.2956
26218SOL    HW179232   8.676   0.927   4.788  0.5613  0.3333 -0.2425
26218SOL    HW279233   8.701   1.033   4.894  1.3816  0.2227 -0.3179
26219SOL     OW79234   9.563   5.308   3.923  0.1121  0.4786  0.3091
26219SOL    HW179235   9.505   5.282   3.851 -1.0053  0.9393  1.0197
26219SOL    HW279236   9.629   5.238   3.927  1.5004  1.4905 -2.5264
26220SOL     OW79237   3.175   5.088   1.526 -0.2713  0.1061  0.1362
26220SOL    HW179238   3.245   5.047   1.577 -0.5517 -1.7683 -0.9205
26220SOL    HW279239   3.138   5.017   1.474 -1.9521  1.3724 -0.4828
26221SOL     OW79240   2.325   7.952   4.989  0.4983  0.4752 -0.0193
26221SOL    HW179241   2.393   8.012   4.960 -0.4921  1.4248 -0.4298
26221SOL    HW279242   2.340   7.872   4.939  1.1073  0.7812 -0.3340
26222SOL     OW79243   4.637   5.030   8.797 -0.1409 -0.0029 -0.1363
26222SOL    HW179244   4.718   5.033   8.846  1.4297  1.2516 -2.5893
26222SOL    HW279245   4.593   5.113   8.818  0.5414  0.5470 -0.8540
26223SOL     OW79246   5.882   1.370   1.756 -0.0048 -0.2252  0.5592
26223SOL    HW179247   5.964   1.379   1.804 -0.7857 -0.7062  2.0547
26223SOL    HW279248   5.904   1.319   1.678  0.8189 -1.8313  1.7882
26224SOL     OW79249   0.759   5.104   3.994  0.8826  0.4817 -0.1246
26224SOL    HW179250   0.809   5.022   4.001  1.6070  0.9540  0.4034
26224SOL    HW279251   0.811   5.159   3.935  0.0121  0.2964 -1.0851
26225SOL     OW79252   2.619   7.880   4.453 -0.9223  0.0157  0.0726
26225SOL    HW179253   2.709   7.900   4.429 -0.9658  0.3751  0.1929
26225SOL    HW279254   2.593   7.810   4.393 -0.1214 -1.0604  0.9411
26226SOL     OW79255   5.988   0.735   0.869 -0.3872 -0.0936 -0.1009
26226SOL    HW179256   6.074   0.773   0.887 -0.6903 -0.0284  1.3873
26226SOL    HW279257   6.004   0.671   0.799  0.5025  1.2493 -1.1665
26227SOL     OW79258   0.153   2.520   1.594  0.1244  0.5450  0.0756
26227SOL    HW179259   0.075   2.514   1.649 -1.2817 -0.4558 -1.9294
26227SOL    HW279260   0.144   2.603   1.548  0.9058  1.0060  0.7096
26228SOL     OW79261   1.930   0.507   7.773 -0.1449 -0.0783 -0.4212
26228SOL    HW179262   2.024   0.501   7.757  0.2785  0.3566  1.6205
26228SOL    HW279263   1.895   0.422   7.744  1.0339 -0.5988 -0.3514
26229SOL     OW79264   0.896   0.591   1.219 -0.0826  0.6846 -0.2533
26229SOL    HW179265   0.915   0.542   1.299 -0.1429  1.3567  0.1826
26229SOL    HW279266   0.808   0.562   1.195 -0.1021  0.5434 -0.0241
26230SOL     OW79267   4.883   4.914   2.333 -0.1605 -0.1933 -0.1962
26230SOL    HW179268   4.933   4.986   2.370 -0.1107  0.0578 -0.7422
26230SOL    HW279269   4.824   4.955   2.270 -3.3809 -0.0089  2.5911
26231SOL     OW79270   3.334   3.020   9.921  0.6893  0.1013  0.1951
26231SOL    HW179271   3.267   3.082   9.949  0.1863 -1.0936  1.8139
26231SOL    HW279272   3.417   3.060   9.949  0.5075  0.7339 -0.1552
26232SOL     OW79273   7.293   1.083   3.043  0.1354  0.7706 -0.4155
26232SOL    HW179274   7.282   1.002   3.093  1.2286  0.6608 -0.3170
26232SOL    HW279275   7.377   1.072   2.998  0.1069  1.6882 -0.7165
26233SOL     OW79276   9.271   2.300   3.507 -0.2710 -0.4227 -0.4445
26233SOL    HW179277   9.205   2.330   3.570  0.7449  0.1474  0.3826
26233SOL    HW279278   9.303   2.217   3.542  1.8218  0.9038  1.0293
26234SOL     OW79279   0.441   1.963   4.024  0.6562  0.1102 -0.0246
26234SOL    HW179280   0.347   1.959   4.042  0.6239  0.3632 -0.1239
26234SOL    HW279281   0.483   1.936   4.106  0.4846 -1.1728 -0.3428
26235SOL     OW79282   6.195   5.620   0.426  0.3812 -0.7652 -0.2582
26235SOL    HW179283   6.264   5.671   0.383  1.2639  1.1044  3.0641
26235SOL    HW279284   6.242   5.556   0.480 -0.5422 -0.8734  0.4377
26236SOL     OW79285   5.270   6.317   4.234  0.1489 -0.4419 -0.1652
26236SOL    HW179286   5.284   6.223   4.220 -0.0365 -0.4721 -0.1399
26236SOL    HW279287   5.256   6.352   4.146 -0.3832 -0.5332 -0.1196
26237SOL     OW79288   3.384   0.778   4.952  0.6679 -0.9994  0.2068
26237SOL    HW179289   3.313   0.837   4.928 -0.3133 -2.2118 -0.0110
26237SOL    HW279290   3.451   0.834   4.991  0.4072  0.4442 -1.3023
26238SOL     OW79291   1.014   8.403   8.487 -0.3381 -0.1687 -0.0299
26238SOL    HW179292   1.017   8.464   8.414  1.9256 -1.3136 -0.9716
26238SOL    HW279293   1.025   8.316   8.447  2.2321 -0.7477  1.6929
26239SOL     OW79294   7.900   7.246   7.246 -0.5620 -0.1021  0.4433
26239SOL    HW179295   7.922   7.162   7.286 -0.5926  0.9082  2.6829
26239SOL    HW279296   7.807   7.258   7.265 -0.1435  1.2449  1.7554
26240SOL     OW79297   3.205   6.371   4.405 -0.0816  0.2252  0.6945
26240SOL    HW179298   3.149   6.432   4.358  0.0550 -0.7981 -0.8546
26240SOL    HW279299   3.145   6.321   4.461 -0.5338  0.0519  0.0538
26241SOL     OW79300   1.392   4.825   1.123 -0.7584  0.1609  0.5965
26241SOL    HW179301   1.368   4.859   1.209 -1.5619 -0.5112  0.6547
26241SOL    HW279302   1.311   4.829   1.072 -0.9354 -1.7117  0.6450
26242SOL     OW79303   2.730   1.541   4.605  0.0086 -0.5568 -0.2146
26242SOL    HW179304   2.822   1.566   4.596 -0.1410 -0.2856 -1.2147
26242SOL    HW279305   2.715   1.481   4.531 -1.5102  2.2300 -2.3558
26243SOL     OW79306   6.264   4.353   5.314 -0.5914  0.0327  0.3127
26243SOL    HW179307   6.242   4.266   5.281 -2.0865  0.9009 -1.1120
26243SOL    HW279308   6.189   4.377   5.369  1.1246 -0.7112  3.1758
26244SOL     OW79309   2.931   2.226   2.071 -0.1930 -0.0061  0.5520
26244SOL    HW179310   2.918   2.250   2.163 -3.0361  0.7206  0.0505
26244SOL    HW279311   2.911   2.306   2.023 -0.2619 -0.8020 -0.7720
26245SOL     OW79312   7.217   7.125   2.050  0.1066 -0.6909 -0.0356
26245SOL    HW179313   7.196   7.216   2.071 -0.3787 -0.6355 -0.7643
26245SOL    HW279314   7.151   7.074   2.095 -1.0276 -0.5637 -1.4848
26246SOL     OW79315   5.450   6.431   3.735 -0.0648  0.6074  0.2727
26246SOL    HW179316   5.358   6.457   3.739 -0.1959  0.2742 -0.5009
26246SOL    HW279317   5.486   6.479   3.660 -0.3450 -1.4777 -1.2699
26247SOL     OW79318   1.632   2.396   9.741  0.1665 -0.0282  0.0339
26247SOL    HW179319   1.589   2.340   9.806 -0.2138 -0.0759 -0.2562
26247SOL    HW279320   1.724   2.372   9.745  0.2053  0.2357  0.8242
26248SOL     OW79321   0.604   7.374   8.433  0.0945  0.3659 -0.8912
26248SOL    HW179322   0.650   7.457   8.424 -2.3593  1.6731 -2.3158
26248SOL    HW279323   0.554   7.382   8.514  2.4123 -1.1766  0.8283
26249SOL     OW79324   7.046   5.294   1.188  0.2022  0.0892  0.4971
26249SOL    HW179325   7.020   5.296   1.280  2.0790 -2.1771  1.1724
26249SOL    HW279326   7.002   5.218   1.151 -0.7533  1.1280 -0.6176
26250SOL     OW79327   5.685   6.176   5.719  0.2535  0.0399  0.1799
26250SOL    HW179328   5.746   6.146   5.786  0.2035 -0.8208 -0.1437
26250SOL    HW279329   5.710   6.267   5.702  0.1322  0.3327  1.5093
26251SOL     OW79330   0.977   6.300   3.792 -0.7943  0.1292  0.1835
26251SOL    HW179331   1.018   6.318   3.877  1.0886  0.7737 -0.7917
26251SOL    HW279332   1.017   6.218   3.763  1.2430  1.6034 -1.5309
26252SOL     OW79333   8.195   7.169   0.198  0.3515  0.1843 -0.2697
26252SOL    HW179334   8.217   7.229   0.127 -0.9189 -0.1036 -0.9404
26252SOL    HW279335   8.125   7.114   0.162  1.0148 -1.2598  0.5532
26253SOL     OW79336   3.200   8.438   1.480 -0.1915 -0.6087 -0.4012
26253SOL    HW179337   3.112   8.420   1.446  0.1164 -0.9353 -1.0530
26253SOL    HW279338   3.243   8.352   1.483  0.0006 -0.4992  0.2324
26254SOL     OW79339   3.808   6.699   0.908  0.3063  0.2981  0.3818
26254SOL    HW179340   3.896   6.663   0.921  0.3034  0.8644  2.1245
26254SOL    HW279341   3.794   6.757   0.982 -0.4806  2.3937 -1.2929
26255SOL     OW79342   1.683   7.364   9.161 -0.1307  0.1445 -0.1658
26255SOL    HW179343   1.670   7.453   9.129  1.8095  0.5159 -0.0432
26255SOL    HW279344   1.683   7.372   9.256  3.7696  0.7799 -0.0387
26256SOL     OW79345   7.779   8.726   8.429 -0.1724  0.8613  0.2976
26256SOL    HW179346   7.818   8.644   8.459  2.2284  2.2790  1.2861
26256SOL    HW279347   7.827   8.747   8.349 -0.8355  1.2818  0.0046
26257SOL     OW79348   4.846   6.742   5.881  0.6882 -0.7494  0.0931
26257SOL    HW179349   4.832   6.769   5.972  0.0521 -0.0138 -0.2147
26257SOL    HW279350   4.898   6.812   5.842  1.4487 -1.3356  0.0316
26258SOL     OW79351   3.504   1.288   9.739  0.2512  0.3316  0.2438
26258SOL    HW179352   3.477   1.280   9.831  1.1323 -0.9857  0.4190
26258SOL    HW279353   3.593   1.323   9.743  0.3056  0.2364 -0.1072
26259SOL     OW79354   8.930   2.986   2.225 -0.3002  0.1796  0.5473
26259SOL    HW179355   8.922   3.025   2.312  0.4953  1.5171  0.0566
26259SOL    HW279356   8.979   3.050   2.174  0.2753 -1.0941 -0.5776
26260SOL     OW79357   3.771   2.889   6.781  0.0643  0.3879  0.2543
26260SOL    HW179358   3.742   2.968   6.826  1.0003  0.0723  1.4876
26260SOL    HW279359   3.863   2.906   6.761  0.1984 -0.2783  0.2880
26261SOL     OW79360   4.698   1.848   2.186  0.3941 -0.7396 -0.2201
26261SOL    HW179361   4.621   1.815   2.139  1.9199 -1.3072 -2.4743
26261SOL    HW279362   4.694   1.943   2.173 -0.3802 -0.6639  0.4625
26262SOL     OW79363   9.645   1.269   4.734 -0.1082 -0.0731 -0.3030
26262SOL    HW179364   9.554   1.259   4.760 -0.0298  1.1084  0.5235
26262SOL    HW279365   9.695   1.255   4.814  0.3357  0.6864 -0.4340
26263SOL     OW79366   5.235   1.116   3.605  0.3167  0.1576  0.0489
26263SOL    HW179367   5.158   1.142   3.657  1.4202 -1.1805  2.5053
26263SOL    HW279368   5.301   1.181   3.628  0.2861  0.6612 -1.2174
26264SOL     OW79369   3.878   0.050   8.987 -0.1112  0.3898 -0.3691
26264SOL    HW179370   3.913   0.105   9.057 -1.5877  0.5253  0.2974
26264SOL    HW279371   3.812  -0.004   9.030 -0.5933  0.0127 -1.5524
26265SOL     OW79372   4.768   2.396   5.364 -0.3925 -0.4467  0.1569
26265SOL    HW179373   4.725   2.400   5.450  0.6075 -0.4290  0.6742
26265SOL    HW279374   4.808   2.309   5.362  1.1492  0.2063  0.5137
26266SOL     OW79375   6.672   3.341   1.510 -0.3328  0.2766 -0.3291
26266SOL    HW179376   6.716   3.306   1.587  1.8334  0.3062 -1.4724
26266SOL    HW279377   6.583   3.359   1.539  0.1093 -0.7408  1.8449
26267SOL     OW79378   3.772   3.072   8.302  0.2074  0.2865  0.3352
26267SOL    HW179379   3.817   2.991   8.280  1.6892  1.3151 -0.5280
26267SOL    HW279380   3.771   3.074   8.398  3.0778  0.7580  0.4391
26268SOL     OW79381   6.830   7.712   7.632  0.5831  0.0020  0.1112
26268SOL    HW179382   6.860   7.625   7.606  1.6973  0.6300 -0.7984
26268SOL    HW279383   6.893   7.739   7.700 -0.4426 -0.3490  1.2347
26269SOL     OW79384   6.140   3.895   2.498  0.1224  0.1141 -0.0019
26269SOL    HW179385   6.233   3.912   2.516 -0.4085  1.0838  2.1353
26269SOL    HW279386   6.114   3.833   2.566 -0.5308 -1.1628 -1.3698
26270SOL     OW79387   1.183   7.550   3.658  0.0361 -0.0249 -0.0598
26270SOL    HW179388   1.212   7.459   3.659 -0.5990 -0.2427  1.7315
26270SOL    HW279389   1.152   7.566   3.747  0.9850  2.2167 -0.0772
26271SOL     OW79390   2.629   2.833   2.524  0.3684  0.1194  0.1012
26271SOL    HW179391   2.554   2.810   2.469 -0.0469 -1.1195  1.1389
26271SOL    HW279392   2.606   2.801   2.611  1.4735  1.0803  0.7786
26272SOL     OW79393   8.772  -0.011   2.732 -0.1366  0.6312 -0.3735
26272SOL    HW179394   8.849  -0.003   2.676  0.5080  1.5655  0.5996
26272SOL    HW279395   8.702   0.034   2.684 -0.2962 -0.8696 -1.5981
26273SOL     OW79396   5.953   3.511   7.944  0.6214 -0.1878  0.6197
26273SOL    HW179397   6.021   3.488   7.881  0.5409  1.8503 -0.2900
26273SOL    HW279398   5.998   3.509   8.029  1.0847 -1.5646  0.3627
26274SOL     OW79399   1.028   4.763   1.640  0.6455  0.2252  0.0861
26274SOL    HW179400   0.935   4.770   1.615  1.1933  0.0701 -2.2213
26274SOL    HW279401   1.055   4.853   1.655  0.1391  0.2700  0.8066
26275SOL     OW79402   4.872   3.980   5.054  0.0417  0.2867 -0.5863
26275SOL    HW179403   4.902   4.014   5.139 -1.6260  3.2660 -1.0247
26275SOL    HW279404   4.926   4.025   4.990 -0.7120  0.3903 -1.1664
26276SOL     OW79405   3.850   9.235   2.892 -0.3933 -0.9785 -0.5037
26276SOL    HW179406   3.820   9.314   2.935  0.2865 -1.6021  1.1732
26276SOL    HW279407   3.928   9.208   2.940 -1.6537 -3.7004  0.2672
26277SOL     OW79408   8.429   6.419   1.284  0.6902  0.0530  0.2569
26277SOL    HW179409   8.420   6.510   1.312 -0.2296 -0.2569  1.0127
26277SOL    HW279410   8.340   6.385   1.283  0.9062 -0.5132 -1.1719
26278SOL     OW79411   1.056   1.709   8.710 -0.3063 -0.5766  0.0177
26278SOL    HW179412   1.104   1.790   8.690 -0.7554 -0.4144 -0.4426
26278SOL    HW279413   1.124   1.643   8.721  0.0600 -0.1650  0.2541
26279SOL     OW79414   3.987   2.858   6.296  0.3102 -0.2788 -0.1557
26279SOL    HW179415   4.042   2.893   6.226  0.7263  0.9134  0.7298
26279SOL    HW279416   3.963   2.935   6.348  1.0708 -1.2598  1.7495
26280SOL     OW79417   8.610   8.046   1.643  0.2688 -0.4339 -0.0912
26280SOL    HW179418   8.553   8.068   1.570 -2.0091 -0.9524  1.4251
26280SOL    HW279419   8.620   7.951   1.639 -0.7569 -0.6088  0.8092
26281SOL     OW79420   1.402   2.090   1.867  0.2300  0.3746 -0.0663
26281SOL    HW179421   1.470   2.094   1.934 -0.3811  1.0081  0.5333
26281SOL    HW279422   1.372   2.181   1.858 -0.5682  0.0975 -0.2921
26282SOL     OW79423   1.706   0.177   1.434  0.3183  0.0383  0.1309
26282SOL    HW179424   1.636   0.241   1.426  1.7378  1.5343 -1.5141
26282SOL    HW279425   1.689   0.113   1.364  1.0597  0.9572 -0.9317
26283SOL     OW79426   3.865   8.692   1.617  0.0167 -0.2947  0.2965
26283SOL    HW179427   3.772   8.709   1.633  0.4660  1.7053  1.0229
26283SOL    HW279428   3.866   8.614   1.562 -2.0429 -0.9847  1.1670
26284SOL     OW79429   0.305   2.163   8.000  0.7129  0.8605 -0.1705
26284SOL    HW179430   0.355   2.204   8.070  1.0800  1.8864 -1.0062
26284SOL    HW279431   0.214   2.182   8.022  0.7110 -0.2969  0.9147
26285SOL     OW79432   1.313   4.618   4.562 -0.0871  0.4711 -0.0478
26285SOL    HW179433   1.355   4.532   4.552  1.0169  1.0972 -1.0490
26285SOL    HW279434   1.238   4.601   4.620  0.0537 -1.1748 -0.2830
26286SOL     OW79435   7.702   9.543   1.709  0.1052 -0.4479 -0.1857
26286SOL    HW179436   7.744   9.518   1.627  0.4582  0.6000 -0.3426
26286SOL    HW279437   7.678   9.635   1.696 -1.3764 -0.7475  0.2618
26287SOL     OW79438   9.909   8.220   5.033 -0.9547  0.5517  0.1514
26287SOL    HW179439   9.942   8.216   5.123  1.3310 -0.3270 -0.6668
26287SOL    HW279440   9.937   8.305   5.000  0.8994 -0.2991 -0.6279
26288SOL     OW79441   7.297   1.316   1.063  0.3543  0.1820  0.5908
26288SOL    HW179442   7.366   1.351   1.007  0.6888  0.0305  0.9082
26288SOL    HW279443   7.217   1.329   1.012  0.5079  1.1419  0.5838
26289SOL     OW79444   1.240   6.837   5.257 -0.3156  0.3213 -0.3720
26289SOL    HW179445   1.208   6.887   5.181 -0.8736  1.2567  0.4514
26289SOL    HW279446   1.185   6.866   5.329 -1.0380 -1.9317  0.0496
26290SOL     OW79447   0.084   3.514   6.254 -0.9234 -0.6929  0.3014
26290SOL    HW179448   0.088   3.559   6.338  0.9686 -2.4624  1.2631
26290SOL    HW279449   0.107   3.580   6.189 -1.6164  0.5130  1.2517
26291SOL     OW79450   6.487   5.624   2.890  0.2718 -0.4484 -0.4013
26291SOL    HW179451   6.539   5.687   2.840  0.3697 -0.7523 -0.6865
26291SOL    HW279452   6.397   5.640   2.863 -0.3712  2.6226  2.7603
26292SOL     OW79453   3.773   0.329   3.103 -0.4479  0.1661 -0.2500
26292SOL    HW179454   3.845   0.364   3.050 -0.8034  2.0858  0.4629
26292SOL    HW279455   3.814   0.301   3.184 -0.0967 -1.5734 -0.9866
26293SOL     OW79456   2.577   7.701   9.169  0.4102 -0.0211 -0.1039
26293SOL    HW179457   2.504   7.642   9.188 -0.0629  0.4996 -0.2910
26293SOL    HW279458   2.609   7.729   9.255 -0.8438  1.2545 -0.0229
26294SOL     OW79459   5.133   3.602   3.233 -0.1504  0.0886 -0.1416
26294SOL    HW179460   5.206   3.652   3.197 -0.5552 -0.0934 -1.2255
26294SOL    HW279461   5.158   3.510   3.221 -0.9022  0.0166 -1.2580
26295SOL     OW79462   8.323   9.225   6.658  0.0405  0.2985 -0.2953
26295SOL    HW179463   8.350   9.272   6.737 -1.6615  0.0880  0.4517
26295SOL    HW279464   8.397   9.234   6.598  0.8294  1.6193  0.8234
26296SOL     OW79465   1.322   3.303   6.546  0.1506 -0.0011 -0.2338
26296SOL    HW179466   1.239   3.264   6.574  1.1642 -1.7444  0.4081
26296SOL    HW279467   1.350   3.355   6.621  0.2252 -0.3568 -0.0159
26297SOL     OW79468   3.188   2.738   4.415  0.7819 -0.6114  0.6749
26297SOL    HW179469   3.112   2.794   4.399  0.1426 -1.7357 -0.4209
26297SOL    HW279470   3.185   2.720   4.509 -0.3685 -0.7174  0.6374
26298SOL     OW79471   7.135   6.069   6.466  0.2664 -0.1706  0.0691
26298SOL    HW179472   7.197   6.002   6.495 -1.5783 -2.1185 -0.2353
26298SOL    HW279473   7.103   6.037   6.382 -1.5129  0.5042  0.4519
26299SOL     OW79474   5.176   4.464   3.891  0.7959  0.9368  0.1300
26299SOL    HW179475   5.141   4.408   3.822  0.6374  1.0649  0.1052
26299SOL    HW279476   5.139   4.550   3.873  0.9103  1.0140  0.2609
26300SOL     OW79477   7.934   8.795   6.211 -0.5683 -0.8704  0.2852
26300SOL    HW179478   7.867   8.854   6.178 -0.3477 -0.2829  0.8595
26300SOL    HW279479   7.981   8.846   6.277 -0.2729 -1.6342  0.6836
26301SOL     OW79480   4.877   3.457   5.979 -0.0199  0.4125 -0.0122
26301SOL    HW179481   4.855   3.399   5.906  0.3234 -0.4602  0.5586
26301SOL    HW279482   4.948   3.412   6.024 -1.4164  0.0299  1.9231
26302SOL     OW79483   9.102   7.163   8.736  0.2469 -0.1759 -0.3713
26302SOL    HW179484   9.118   7.107   8.812 -1.8767 -1.7536 -0.9885
26302SOL    HW279485   9.188   7.175   8.697  1.2367 -0.2339  1.6318
26303SOL     OW79486   1.303   0.279   1.893  0.4453  0.6003  0.5945
26303SOL    HW179487   1.393   0.250   1.909  0.4563  0.3945  0.1663
26303SOL    HW279488   1.249   0.205   1.920  0.3892  0.7981  1.0417
26304SOL     OW79489   3.665   0.480   5.962  0.9448  0.3835 -0.1578
26304SOL    HW179490   3.746   0.528   5.979  1.5069  0.2172 -2.0676
26304SOL    HW279491   3.596   0.539   5.992  1.6858  1.7981 -1.0869
26305SOL     OW79492   2.118   1.872   9.106 -0.1212 -0.1233  0.3378
26305SOL    HW179493   2.184   1.935   9.136 -1.3937  2.2368 -1.4938
26305SOL    HW279494   2.146   1.849   9.018 -0.8947 -0.3650  0.1548
26306SOL     OW79495   5.511   3.168   0.289  0.1476 -0.5288  0.8548
26306SOL    HW179496   5.542   3.226   0.359 -3.2964  0.2733  1.9417
26306SOL    HW279497   5.438   3.216   0.249 -0.0479 -2.3434 -1.1399
26307SOL     OW79498   3.655   4.138   4.086  0.3505 -0.2166  0.1670
26307SOL    HW179499   3.564   4.152   4.109 -0.2560 -0.5230 -1.8012
26307SOL    HW279500   3.654   4.123   3.991  2.1237 -2.7293  0.4163
26308SOL     OW79501   9.810   8.813   7.795 -0.2722 -0.0273 -0.1297
26308SOL    HW179502   9.779   8.872   7.727 -0.9739 -0.7947 -0.5047
26308SOL    HW279503   9.733   8.800   7.852 -0.1960 -0.7219 -0.1724
26309SOL     OW79504   9.389   1.457   3.003  0.1529  0.1006  0.0740
26309SOL    HW179505   9.480   1.430   3.009  0.2744  0.7479  1.4233
26309SOL    HW279506   9.392   1.553   3.000 -0.4797  0.1230 -0.0140
26310SOL     OW79507   8.322   5.463   1.708 -0.4287 -0.1891 -0.0497
26310SOL    HW179508   8.392   5.419   1.660 -0.0205  1.2621 -0.8761
26310SOL    HW279509   8.367   5.518   1.772 -0.9049 -0.7718  0.7953
26311SOL     OW79510   5.020   6.685   1.803 -0.0984  0.2314 -0.3798
26311SOL    HW179511   5.080   6.729   1.864  0.1147  0.4095 -0.7113
26311SOL    HW279512   4.933   6.704   1.837  0.0477 -1.3021  0.9891
26312SOL     OW79513   8.607   4.893   4.566 -0.3184  0.1037 -0.1392
26312SOL    HW179514   8.586   4.861   4.478 -0.2648 -0.7422  0.1519
26312SOL    HW279515   8.688   4.943   4.554 -0.1678 -0.2250 -0.5285
26313SOL     OW79516   7.392   6.087   0.739  0.2045  0.2630 -0.2554
26313SOL    HW179517   7.314   6.084   0.795 -0.4390  2.2596 -0.9640
26313SOL    HW279518   7.403   5.996   0.709 -0.4598 -0.4962  1.6668
26314SOL     OW79519   0.212   5.481   3.429 -0.4543  0.0377 -0.3082
26314SOL    HW179520   0.131   5.512   3.388  0.1877  0.2239 -1.4729
26314SOL    HW279521   0.183   5.421   3.498 -1.6354  1.3852  0.4087
26315SOL     OW79522   3.487   4.736   0.689 -0.1775 -0.0701 -0.2756
26315SOL    HW179523   3.420   4.677   0.653  0.1894 -1.2315  0.8958
26315SOL    HW279524   3.486   4.811   0.630  0.3204 -1.8258 -2.6767
26316SOL     OW79525   3.705   9.047   0.671  0.5072 -0.0252  0.3109
26316SOL    HW179526   3.684   9.112   0.739  0.6961 -1.1546  1.4986
26316SOL    HW279527   3.646   8.973   0.690  0.4196 -0.2760 -0.9028
26317SOL     OW79528   8.509   9.209   0.836 -0.3693 -0.1457  0.3736
26317SOL    HW179529   8.480   9.215   0.745 -0.8319  0.4665  0.5543
26317SOL    HW279530   8.604   9.208   0.831 -0.3961 -1.1179 -0.1738
26318SOL     OW79531   6.457   6.150   9.098 -0.0616  0.5762 -0.6700
26318SOL    HW179532   6.458   6.243   9.073  0.1287  1.0382  0.9126
26318SOL    HW279533   6.519   6.145   9.171 -0.9336 -0.5696  0.0147
26319SOL     OW79534   9.739   2.046   4.741 -0.4258 -0.3280 -0.3074
26319SOL    HW179535   9.769   1.976   4.799  0.1566 -0.6742 -1.0041
26319SOL    HW279536   9.645   2.055   4.760 -0.2256 -0.3458  0.7571
26320SOL     OW79537   8.931   7.184   2.558  0.0970 -0.5327  0.3092
26320SOL    HW179538   8.933   7.274   2.590 -0.2594 -0.7978  1.1040
26320SOL    HW279539   8.976   7.187   2.474 -1.0019  0.6184 -0.2575
26321SOL     OW79540   1.653   5.505   4.717  0.5168 -0.3137  0.0157
26321SOL    HW179541   1.582   5.540   4.664  0.9758  0.5488 -0.0452
26321SOL    HW279542   1.639   5.410   4.717  0.0815 -0.2610 -1.0248
26322SOL     OW79543   0.937   0.275   7.619 -0.6005  0.0897 -0.0579
26322SOL    HW179544   0.860   0.239   7.575 -2.1232 -0.1252  2.5619
26322SOL    HW279545   0.907   0.359   7.653  0.8597  0.7593 -0.3954
26323SOL     OW79546   6.583   3.470   4.981  0.1849  0.8633  0.1491
26323SOL    HW179547   6.627   3.526   4.917  2.5536 -1.0948 -0.0629
26323SOL    HW279548   6.525   3.415   4.930  0.4175  0.8065 -0.0569
26324SOL     OW79549   8.724   8.995   9.151 -1.4797  0.7260  0.0456
26324SOL    HW179550   8.651   8.959   9.100 -2.1065  0.1341  1.3182
26324SOL    HW279551   8.744   8.928   9.216  0.0372  0.9949 -0.1072
26325SOL     OW79552   2.607   7.836   8.901 -0.0309  0.3557  0.3480
26325SOL    HW179553   2.698   7.862   8.884 -0.3097  2.0646  1.3476
26325SOL    HW279554   2.607   7.807   8.992 -0.0048 -2.1262 -0.3604
26326SOL     OW79555   5.643   7.106   8.993  0.0645  0.1642  0.0778
26326SOL    HW179556   5.700   7.087   9.067 -1.8684  1.4231  2.0037
26326SOL    HW279557   5.661   7.198   8.972 -0.7427  0.3666  0.2452
26327SOL     OW79558   8.343   8.345   4.100 -0.1149  0.9777 -0.3545
26327SOL    HW179559   8.321   8.438   4.105 -0.1404  0.9546  0.0115
26327SOL    HW279560   8.426   8.342   4.053 -0.0872  1.1904 -0.3200
26328SOL     OW79561   9.538   7.089   4.727 -0.0367 -0.1180 -0.2266
26328SOL    HW179562   9.462   7.096   4.669 -0.1272  0.7000 -0.0305
26328SOL    HW279563   9.501   7.089   4.815  0.1792  0.1230 -0.1346
26329SOL     OW79564   8.241   0.846   7.025 -0.3317  0.1200  1.0538
26329SOL    HW179565   8.245   0.933   7.064  1.0760  1.1605 -1.2108
26329SOL    HW279566   8.328   0.808   7.042 -0.7883 -0.6898  1.6516
26330SOL     OW79567   5.470   5.269   0.433 -0.0203  0.0690  0.6470
26330SOL    HW179568   5.424   5.194   0.470 -1.0791  1.3487  2.0707
26330SOL    HW279569   5.402   5.323   0.394  0.4624  1.1600  1.2599
26331SOL     OW79570   4.633   8.161   8.317 -0.2935  0.1676 -0.6222
26331SOL    HW179571   4.662   8.076   8.351  0.9113  0.1272 -1.6740
26331SOL    HW279572   4.634   8.219   8.394 -0.6839 -0.6529  0.0115
26332SOL     OW79573   4.604   3.997   3.055 -0.3196  0.1569  0.4296
26332SOL    HW179574   4.627   3.966   3.142 -0.4962 -1.2088  0.0041
26332SOL    HW279575   4.612   4.093   3.061  2.9533 -0.0397  1.0326
26333SOL     OW79576   0.419   6.916   4.271 -0.0909  0.5754 -0.4107
26333SOL    HW179577   0.457   6.864   4.342 -1.0316 -0.4283 -0.6166
26333SOL    HW279578   0.459   6.882   4.191 -2.1376 -1.2777 -0.7463
26334SOL     OW79579   4.955   2.734   7.489  0.3497 -0.8039 -0.3396
26334SOL    HW179580   5.007   2.708   7.565  0.6572 -1.7417 -0.8441
26334SOL    HW279581   4.872   2.690   7.501  0.5427 -1.2843 -0.7416
26335SOL     OW79582   2.684   2.089   6.985  0.6595 -0.5992  0.8386
26335SOL    HW179583   2.710   2.131   6.902  0.2050  0.2526  1.1095
26335SOL    HW279584   2.684   1.996   6.966 -0.5716 -0.3661 -0.4772
26336SOL     OW79585   9.048   0.393   9.942  0.0825 -0.7690  0.7954
26336SOL    HW179586   9.017   0.304   9.925 -2.2041  0.0847  0.2398
26336SOL    HW279587   9.024   0.410  10.033  1.2627 -0.9700  1.1667
26337SOL     OW79588   2.068   8.849   4.037 -0.5351 -0.2920  0.1144
26337SOL    HW179589   2.113   8.780   3.987  0.5877  0.2224  0.3861
26337SOL    HW279590   2.020   8.801   4.104 -0.5892 -0.8791 -0.3279
26338SOL     OW79591   4.080   8.771   9.882  0.0352 -0.0290  0.1358
26338SOL    HW179592   4.030   8.755   9.803  1.2993  0.3068 -0.7630
26338SOL    HW279593   4.016   8.799   9.947 -0.9731 -0.0034 -0.8593
26339SOL     OW79594   9.913   8.494   6.003  0.1079 -0.4889 -0.1242
26339SOL    HW179595   9.838   8.538   6.044  0.5445 -1.2368  1.5990
26339SOL    HW279596   9.907   8.404   6.034  1.4462 -0.6672 -0.3426
26340SOL     OW79597   8.792   7.925   5.300  0.3253 -0.1851  0.4677
26340SOL    HW179598   8.726   7.871   5.257  0.4912 -0.0832  0.0773
26340SOL    HW279599   8.869   7.868   5.305  0.7742  0.2929 -0.7359
26341SOL     OW79600   1.715   1.476   5.561 -0.0654  0.5376 -0.0821
26341SOL    HW179601   1.759   1.391   5.560  1.0519  1.0626  1.4252
26341SOL    HW279602   1.784   1.539   5.541 -0.2252  1.3310  1.7485
26342SOL     OW79603   1.804   6.903   0.222 -0.1123 -0.0627 -0.5017
26342SOL    HW179604   1.766   6.931   0.306 -1.8070 -0.1362 -1.1899
26342SOL    HW279605   1.861   6.976   0.197 -0.7857  0.6678 -0.0011
26343SOL     OW79606   4.784   8.277   5.557 -0.3841 -0.2533  0.2422
26343SOL    HW179607   4.744   8.268   5.470 -0.2169 -0.5632  0.1955
26343SOL    HW279608   4.794   8.187   5.588 -0.7224 -0.1336  0.7143
26344SOL     OW79609   5.973   4.184   7.960  0.1271 -0.4907 -0.1893
26344SOL    HW179610   5.975   4.108   8.017 -1.0331 -0.0249  0.5046
26344SOL    HW279611   5.880   4.199   7.943  0.4353 -0.7983 -2.4670
26345SOL     OW79612   9.727   1.704   1.254  0.0771  0.6215 -0.2509
26345SOL    HW179613   9.649   1.760   1.253 -0.4133  0.0490  1.7075
26345SOL    HW279614   9.799   1.765   1.270 -0.0139  1.0722 -1.4168
26346SOL     OW79615   3.194   0.521   1.400 -0.0211  0.2305 -0.6592
26346SOL    HW179616   3.287   0.541   1.405  0.4191 -1.3401 -1.8497
26346SOL    HW279617   3.153   0.601   1.367  0.6677  1.3944  1.1256
26347SOL     OW79618   0.324   5.208   2.139  0.2354  0.3814  0.0666
26347SOL    HW179619   0.407   5.194   2.186 -1.2109 -3.3818  1.8598
26347SOL    HW279620   0.263   5.238   2.207 -0.4172  1.1492 -0.8258
26348SOL     OW79621   5.317   7.664   8.021 -0.3625  0.1535 -0.2568
26348SOL    HW179622   5.269   7.674   7.939 -1.3110  0.5186  0.3275
26348SOL    HW279623   5.408   7.677   7.997 -0.4528 -1.2942 -1.5307
26349SOL     OW79624   2.292   2.688   6.615  0.2860 -0.8222  0.5963
26349SOL    HW179625   2.319   2.596   6.610  0.4067 -0.9113  2.4113
26349SOL    HW279626   2.373   2.737   6.625  0.0745 -0.7713  2.2988
26350SOL     OW79627   0.316   6.568   5.902  0.2265  0.1000  0.2165
26350SOL    HW179628   0.350   6.556   5.990 -1.5741 -0.3018  0.8953
26350SOL    HW279629   0.320   6.481   5.862 -0.2465 -0.0071  0.3971
26351SOL     OW79630   9.900   1.839   7.543  0.1333  0.3912  0.1624
26351SOL    HW179631   9.873   1.921   7.584  1.1499  0.1940  1.2966
26351SOL    HW279632   9.915   1.863   7.451  1.9344  1.9094  0.7593
26352SOL     OW79633   6.914   1.307   1.271 -0.1611  0.3658 -0.5392
26352SOL    HW179634   6.823   1.320   1.297 -0.7426 -1.0711 -1.7239
26352SOL    HW279635   6.921   1.349   1.186  0.5723  1.3031 -0.0381
26353SOL     OW79636   9.655   8.345   8.961 -0.0926  0.0718 -0.0581
26353SOL    HW179637   9.697   8.260   8.968  1.5016  0.8928  0.9725
26353SOL    HW279638   9.662   8.368   8.868 -0.8875 -1.0529 -0.4191
26354SOL     OW79639   7.052   1.002   0.857 -0.0299  0.2943  0.3416
26354SOL    HW179640   7.068   0.982   0.949  1.5394 -1.2035 -0.1972
26354SOL    HW279641   7.042   0.916   0.815 -1.3556  0.9663 -0.7957
26355SOL     OW79642   7.274   3.239   0.335 -0.1913 -0.0716 -0.0909
26355SOL    HW179643   7.249   3.268   0.247 -1.3719 -1.1206 -0.1326
26355SOL    HW279644   7.338   3.170   0.320 -0.0142  0.0929 -0.1010
26356SOL     OW79645   4.123   4.832   3.533  0.0116 -0.1416  0.2553
26356SOL    HW179646   4.117   4.779   3.454  0.2416 -0.3232  0.3572
26356SOL    HW279647   4.155   4.771   3.600 -1.1197 -0.2351  0.7278
26357SOL     OW79648   2.530   2.138   8.920  0.2657  0.1395 -0.5336
26357SOL    HW179649   2.582   2.214   8.946  0.1429  0.2263 -0.5429
26357SOL    HW279650   2.542   2.130   8.826  0.4545  0.0163 -0.4992
26358SOL     OW79651   8.388   9.679   5.590 -0.4435 -0.0013 -0.4554
26358SOL    HW179652   8.442   9.668   5.512 -0.0929 -0.1378 -0.1964
26358SOL    HW279653   8.309   9.724   5.559 -0.6123 -0.6670 -1.0103
26359SOL     OW79654   2.026   7.033   6.599 -0.5834 -0.1928 -0.2690
26359SOL    HW179655   2.038   7.001   6.688 -1.0003 -0.1456 -0.1912
26359SOL    HW279656   2.053   6.961   6.543 -0.2857 -0.2093 -0.1036
26360SOL     OW79657   2.750   4.027   0.147  0.1579  0.3038 -0.1998
26360SOL    HW179658   2.700   4.069   0.216  1.0738  1.8232 -0.4129
26360SOL    HW279659   2.838   4.015   0.184  1.5120  3.7370 -1.8888
26361SOL     OW79660   9.489   3.851   6.468 -0.0835  0.0618  0.4229
26361SOL    HW179661   9.430   3.923   6.448  0.0036 -0.1337 -0.5771
26361SOL    HW279662   9.433   3.783   6.504 -0.8245 -0.8146 -2.1686
26362SOL     OW79663   3.569   5.782   9.437  0.0787  0.2798 -0.8040
26362SOL    HW179664   3.660   5.805   9.459  1.0125 -2.3986 -1.4286
26362SOL    HW279665   3.518   5.817   9.510  1.8739  0.1827  0.5920
26363SOL     OW79666   8.805   7.459   9.062  0.4533  0.2291 -0.5830
26363SOL    HW179667   8.769   7.389   9.007  0.3521  0.1425 -0.4075
26363SOL    HW279668   8.883   7.421   9.101  0.8936  0.5081 -1.1758
26364SOL     OW79669   3.880   5.618   5.885  0.0986 -0.6628  0.3437
26364SOL    HW179670   3.813   5.595   5.821  0.8206 -1.7116 -0.0659
26364SOL    HW279671   3.929   5.689   5.844  0.6155 -1.3910 -0.3409
26365SOL     OW79672   5.822   8.413   3.853  0.0170  0.2923 -0.1993
26365SOL    HW179673   5.810   8.381   3.943  1.8464 -0.2690 -0.1103
26365SOL    HW279674   5.794   8.340   3.798 -1.2964  0.7083 -0.1219
26366SOL     OW79675   4.021   4.793   7.046 -0.0562 -0.1895  0.2839
26366SOL    HW179676   3.956   4.771   6.980  1.9568  1.4346 -2.4622
26366SOL    HW279677   4.014   4.888   7.057  0.3313 -0.3019  1.6491
26367SOL     OW79678   3.228   5.099   8.776 -0.4384 -0.2577 -0.1720
26367SOL    HW179679   3.146   5.053   8.763 -0.6049 -0.3870  1.1513
26367SOL    HW279680   3.262   5.114   8.688 -2.5338  1.0054 -0.8390
26368SOL     OW79681   2.152   9.230   3.096  0.6598 -0.4729 -0.0281
26368SOL    HW179682   2.149   9.136   3.109  0.1875 -0.4347  0.1831
26368SOL    HW279683   2.227   9.245   3.039  0.8400 -0.9584  0.0835
26369SOL     OW79684   3.272   9.271   0.235 -0.0737  0.1723  0.1001
26369SOL    HW179685   3.262   9.364   0.257  1.4941  0.5350 -0.5683
26369SOL    HW279686   3.366   9.260   0.222 -0.3824 -1.1828 -1.2341
26370SOL     OW79687   2.934   9.964   1.594  0.8082  0.7189  0.0494
26370SOL    HW179688   3.019   9.968   1.551  0.4651  1.2109 -0.5949
26370SOL    HW279689   2.872   9.993   1.528 -0.3289 -2.7617 -0.6280
26371SOL     OW79690   8.343   7.556   6.600  0.4858 -0.0879 -0.2800
26371SOL    HW179691   8.409   7.487   6.601 -0.0863 -0.6788  1.8728
26371SOL    HW279692   8.394   7.637   6.594  1.5606 -0.4765  2.3576
26372SOL     OW79693   1.832   2.573   8.314 -0.1014  0.1566 -0.3211
26372SOL    HW179694   1.858   2.481   8.303  0.4202  0.3679 -0.9521
26372SOL    HW279695   1.915   2.620   8.323 -0.3853  0.5156  0.4987
26373SOL     OW79696   5.922   1.925   8.233 -0.2645 -0.2747 -0.0258
26373SOL    HW179697   5.907   2.014   8.266 -1.4029  0.1687 -1.6219
26373SOL    HW279698   5.841   1.878   8.253 -0.2946 -0.4829 -0.6183
26374SOL     OW79699   0.042   6.177   1.070 -0.0217  0.0547  0.1476
26374SOL    HW179700   0.066   6.116   1.000  2.1308  0.1427  0.7470
26374SOL    HW279701  -0.042   6.144   1.102  2.2346 -4.4796  2.3753
26375SOL     OW79702   8.285   1.337   8.742  0.3203 -0.3939 -0.4673
26375SOL    HW179703   8.370   1.349   8.700 -0.1233 -1.5563 -1.7767
26375SOL    HW279704   8.301   1.275   8.813  0.9621  1.1170  0.7638
26376SOL     OW79705   8.007   1.326   2.974 -0.1597 -0.1175 -0.0227
26376SOL    HW179706   7.978   1.415   2.993 -0.4901  0.0529 -1.2521
26376SOL    HW279707   8.100   1.335   2.951 -0.4119  0.0592 -1.0349
26377SOL     OW79708   7.281   8.341   8.476 -0.7397  0.3694  0.5401
26377SOL    HW179709   7.319   8.269   8.426 -0.5009 -0.0180  1.2615
26377SOL    HW279710   7.302   8.321   8.568 -0.3500  1.5377  0.7323
26378SOL     OW79711   6.334   5.033   9.117  0.2578 -0.6732  0.6904
26378SOL    HW179712   6.366   4.944   9.100  1.5622 -0.2143  0.6624
26378SOL    HW279713   6.345   5.043   9.212  0.3251 -0.4596  0.6587
26379SOL     OW79714   1.479   1.543   8.306 -0.0922  0.8172  0.1450
26379SOL    HW179715   1.559   1.574   8.264  0.5204  1.4446  1.7025
26379SOL    HW279716   1.409   1.593   8.263  0.0240 -1.1520 -2.6546
26380SOL     OW79717   5.973   5.954   0.181 -0.2795 -0.5834 -0.7601
26380SOL    HW179718   6.012   5.937   0.267 -0.0800 -0.6018 -0.8547
26380SOL    HW279719   5.970   6.049   0.175  1.3521 -0.5381 -1.4684
26381SOL     OW79720   9.854   1.826   3.185  0.0226  0.3484  0.0532
26381SOL    HW179721   9.838   1.834   3.091 -0.7374 -0.0353  0.1411
26381SOL    HW279722   9.941   1.863   3.198 -0.4575  1.7452 -0.5809
26382SOL     OW79723   2.759   9.929   8.570 -0.0487  0.4959 -1.1377
26382SOL    HW179724   2.729   9.877   8.645 -0.3180  0.9792 -0.9094
26382SOL    HW279725   2.693   9.912   8.502 -0.4042  0.9195 -0.9029
26383SOL     OW79726   3.819   4.205   1.782  0.4421  0.4218 -0.2149
26383SOL    HW179727   3.759   4.131   1.790  0.5253  0.1761 -1.6038
26383SOL    HW279728   3.906   4.167   1.795  0.4518  0.3644 -0.4492
26384SOL     OW79729   3.507   6.799   9.336  0.5656  0.3165 -0.5913
26384SOL    HW179730   3.484   6.779   9.427 -0.6561 -1.0773 -1.1646
26384SOL    HW279731   3.518   6.894   9.335 -0.9312  0.5554  0.6964
26385SOL     OW79732   5.692   7.755   5.362  0.2595  0.3176  0.2327
26385SOL    HW179733   5.607   7.789   5.334 -0.3010 -0.8770  0.4242
26385SOL    HW279734   5.675   7.715   5.447  1.4116  1.6455  1.1372
26386SOL     OW79735   5.158   3.112   1.663 -0.5720 -0.6104  0.6560
26386SOL    HW179736   5.191   3.098   1.752  1.1544  0.9861  0.3539
26386SOL    HW279737   5.217   3.061   1.607 -2.2663 -2.4329  0.4296
26387SOL     OW79738   1.975   5.219   1.558 -0.1177 -0.5416 -0.3166
26387SOL    HW179739   1.911   5.162   1.601 -0.1132  0.2862  0.8432
26387SOL    HW279740   1.996   5.286   1.624  1.1173 -0.1589 -1.0555
26388SOL     OW79741   4.058   2.177   0.431 -0.3373 -0.0091  0.3621
26388SOL    HW179742   4.103   2.237   0.490  0.9876  0.6562 -1.2620
26388SOL    HW279743   4.126   2.118   0.398 -1.5960 -2.5344  1.9314
26389SOL     OW79744   2.789   8.555   5.882  0.2499  0.4070  0.1112
26389SOL    HW179745   2.871   8.511   5.903  0.6481  1.1794  0.2010
26389SOL    HW279746   2.803   8.646   5.907 -0.1577  0.8246 -1.0902
26390SOL     OW79747   7.980   5.083   9.966 -0.2556  0.3915  0.6346
26390SOL    HW179748   8.017   5.056  10.050  0.9997 -0.2909 -0.1118
26390SOL    HW279749   7.957   5.001   9.923 -0.8171  0.7347  0.2658
26391SOL     OW79750   0.425   4.199   2.689  0.2036 -0.0914  0.4636
26391SOL    HW179751   0.370   4.214   2.766 -1.2766 -0.3861 -0.5078
26391SOL    HW279752   0.398   4.266   2.627 -0.4368 -1.4032 -0.7360
26392SOL     OW79753   3.128   2.985   2.072  0.4584  0.0861 -0.2980
26392SOL    HW179754   3.212   3.031   2.062  1.3413 -1.6058 -1.1831
26392SOL    HW279755   3.151   2.893   2.066 -1.2328 -0.5312  1.4496
26393SOL     OW79756   7.686   6.733   3.130 -0.0011 -0.3344  0.5880
26393SOL    HW179757   7.673   6.639   3.126  0.6581 -0.5059  1.9368
26393SOL    HW279758   7.623   6.763   3.197 -0.2237  0.1880  0.1540
26394SOL     OW79759   3.181   0.839   3.701  0.2801 -0.3789 -0.7787
26394SOL    HW179760   3.196   0.886   3.619  1.1321 -0.3113 -0.5953
26394SOL    HW279761   3.269   0.821   3.735  0.0177 -2.5594 -1.0966
26395SOL     OW79762   1.297   6.392   4.452  0.2115 -0.3216 -0.4732
26395SOL    HW179763   1.247   6.439   4.386  0.0310 -0.9136 -0.7619
26395SOL    HW279764   1.389   6.406   4.428  0.1594 -0.0641 -0.5185
26396SOL     OW79765   8.612   6.389   5.980  0.2911 -0.4311  0.2858
26396SOL    HW179766   8.525   6.403   5.944  0.4371  0.7177  0.3369
26396SOL    HW279767   8.612   6.297   6.007 -1.3031 -0.1805  1.3288
26397SOL     OW79768   4.694   0.926   7.925 -0.0386  0.0639  0.2780
26397SOL    HW179769   4.617   0.937   7.981  1.0162  0.0379  1.7918
26397SOL    HW279770   4.705   1.011   7.883 -0.5411  0.2502  0.5112
26398SOL     OW79771   5.401   8.799   6.579  0.3841 -0.1568 -0.2141
26398SOL    HW179772   5.309   8.825   6.578  0.1673 -0.6507  1.8390
26398SOL    HW279773   5.445   8.870   6.627  1.0332 -0.0891 -0.8927
26399SOL     OW79774   0.558   2.562   1.543  0.1099 -0.1490 -0.4099
26399SOL    HW179775   0.595   2.566   1.631 -0.4758 -1.2995 -0.0860
26399SOL    HW279776   0.525   2.472   1.536 -1.5590  0.4936 -1.1072
26400SOL     OW79777   8.332   9.861   1.199 -0.2587 -0.2482 -0.8397
26400SOL    HW179778   8.398   9.797   1.223  0.3551  0.7107  0.1349
26400SOL    HW279779   8.260   9.810   1.162  1.0841 -1.3000 -2.1237
26401SOL     OW79780   0.424   5.184   7.040 -0.5319 -0.6364 -0.3866
26401SOL    HW179781   0.412   5.215   7.130  0.3994 -1.4320  0.0380
26401SOL    HW279782   0.409   5.090   7.045 -0.8972 -0.6294 -1.1630
26402SOL     OW79783   8.202   3.694   6.381 -0.3825 -0.1057  0.6060
26402SOL    HW179784   8.206   3.787   6.358 -0.4287 -0.3541 -0.4978
26402SOL    HW279785   8.159   3.653   6.306 -0.5689 -0.9884  1.1808
26403SOL     OW79786   4.919   0.753   2.347 -0.3661  0.3549  0.0215
26403SOL    HW179787   4.867   0.721   2.420 -1.2991  1.3095 -0.2042
26403SOL    HW279788   4.982   0.814   2.387  0.3902 -0.5578  0.2533
26404SOL     OW79789   2.508   7.145   9.202  0.3499 -1.0011  0.3270
26404SOL    HW179790   2.513   7.143   9.106 -1.1608 -2.7461  0.2261
26404SOL    HW279791   2.527   7.054   9.228 -0.1512 -0.7503  1.6212
26405SOL     OW79792   3.421   1.249   8.921 -0.1402 -0.1138 -0.2160
26405SOL    HW179793   3.507   1.276   8.953 -0.1409  0.4402 -0.6766
26405SOL    HW279794   3.438   1.213   8.834 -0.3535 -0.1625 -0.2386
26406SOL     OW79795   7.275   5.041   4.300 -0.1442  0.0638 -0.5409
26406SOL    HW179796   7.200   5.038   4.359 -0.0070  1.0017 -0.3009
26406SOL    HW279797   7.345   5.079   4.352  0.1275  0.4024 -1.1374
26407SOL     OW79798   7.655   7.232   3.753  0.4220  0.3367 -0.3918
26407SOL    HW179799   7.621   7.242   3.664 -0.2440  0.1768 -0.1630
26407SOL    HW279800   7.726   7.167   3.744 -0.5463 -0.7284 -0.6060
26408SOL     OW79801   1.085   4.244   3.894 -0.3711 -0.3210 -0.4657
26408SOL    HW179802   1.057   4.328   3.858  1.9997  0.7854  0.0796
26408SOL    HW279803   1.070   4.253   3.988 -0.6592 -0.7391 -0.4713
26409SOL     OW79804   7.689   7.096   5.166 -0.5385 -0.5552  0.0921
26409SOL    HW179805   7.765   7.115   5.222 -1.9107  0.0844  1.8392
26409SOL    HW279806   7.659   7.182   5.136  0.0495 -0.8796 -1.5072
26410SOL     OW79807   3.526   3.942   0.356 -0.2049  0.4299 -0.0882
26410SOL    HW179808   3.478   3.945   0.273 -2.4298 -1.4773  1.0404
26410SOL    HW279809   3.572   3.858   0.354 -0.0058  0.5201  0.4850
26411SOL     OW79810   9.433   9.858   6.339  0.2041 -0.5428  0.2670
26411SOL    HW179811   9.404   9.892   6.424 -0.5975 -0.4488 -0.0396
26411SOL    HW279812   9.354   9.820   6.300  0.2478  0.6679 -1.0524
26412SOL     OW79813   9.567   3.135   9.862 -0.0426  0.1178 -0.0040
26412SOL    HW179814   9.543   3.078   9.935 -0.8713  0.3890 -0.0646
26412SOL    HW279815   9.562   3.079   9.785 -1.8697  0.4969 -0.2012
26413SOL     OW79816   0.414   0.484   6.256 -0.6554  0.0208 -0.0859
26413SOL    HW179817   0.459   0.475   6.340  0.4902  0.2085 -0.6511
26413SOL    HW279818   0.365   0.566   6.264  0.5323  0.7554 -0.0540
26414SOL     OW79819   3.400   7.424   5.981  0.9398 -0.1793  0.0930
26414SOL    HW179820   3.426   7.507   5.941 -1.3303  1.1457  1.2008
26414SOL    HW279821   3.452   7.419   6.061  1.7299 -0.3071 -0.4098
26415SOL     OW79822   5.807   7.593   1.465 -0.3365 -0.3286 -0.4487
26415SOL    HW179823   5.755   7.615   1.388  2.4852  1.8178 -1.9203
26415SOL    HW279824   5.882   7.544   1.431  1.3455  1.2678  0.7364
26416SOL     OW79825   9.040   5.929   0.764 -0.1900 -0.1334 -0.0106
26416SOL    HW179826   8.989   5.877   0.702  0.4105  0.1802 -0.7891
26416SOL    HW279827   9.105   5.975   0.709  0.5994 -0.1428  0.8853
26417SOL     OW79828   4.659   2.289   2.585 -0.0796  0.3071  0.0990
26417SOL    HW179829   4.595   2.350   2.622 -0.6359 -0.9970  1.4066
26417SOL    HW279830   4.609   2.237   2.522  0.2224  0.7197 -0.4876
26418SOL     OW79831   3.501   6.730   5.840 -0.7140  0.0398 -0.0411
26418SOL    HW179832   3.520   6.669   5.769  2.3307  0.3222  0.3918
26418SOL    HW279833   3.454   6.677   5.905 -1.1128 -0.9295 -1.1035
26419SOL     OW79834   5.685   3.371   4.155  0.2285 -0.0139 -0.4540
26419SOL    HW179835   5.673   3.311   4.228 -1.7391  1.3728  0.4469
26419SOL    HW279836   5.664   3.319   4.077  0.5799 -1.0138  0.0991
26420SOL     OW79837   1.772   5.767   2.292 -0.0935 -0.9229 -0.4131
26420SOL    HW179838   1.867   5.758   2.301  0.2226 -0.2439 -2.4586
26420SOL    HW279839   1.741   5.679   2.276  0.2927 -1.0520 -0.4722
26421SOL     OW79840   7.577   9.712   6.086 -0.1913 -0.0259  0.8635
26421SOL    HW179841   7.531   9.695   6.003  0.3157  0.4678  0.4783
26421SOL    HW279842   7.507   9.714   6.151 -0.7191  0.6515  0.2923
26422SOL     OW79843   8.514   8.069   5.345 -0.4045  0.3665  0.4734
26422SOL    HW179844   8.449   8.138   5.333  1.3532  2.0232 -0.1015
26422SOL    HW279845   8.596   8.107   5.314  0.5253 -2.3048 -0.6709
26423SOL     OW79846   1.105   0.954   6.073 -0.5333  0.4602 -0.3703
26423SOL    HW179847   1.046   1.029   6.062  0.6730  1.3038 -1.3162
26423SOL    HW279848   1.062   0.900   6.139 -1.8706  1.5392 -0.3043
26424SOL     OW79849   4.418   5.055   7.416 -0.2412 -0.2425  0.3682
26424SOL    HW179850   4.404   5.132   7.471 -1.8779  1.9031 -2.7398
26424SOL    HW279851   4.330   5.029   7.388  0.4163 -2.2663  0.0030
26425SOL     OW79852   1.607   1.591   8.618  0.1159 -0.3544 -0.1705
26425SOL    HW179853   1.600   1.505   8.661 -1.2255  0.5444  1.5247
26425SOL    HW279854   1.701   1.601   8.600  0.3595 -1.9353  0.0708
26426SOL     OW79855   9.559   2.681   2.441 -0.0332 -0.8023 -0.1626
26426SOL    HW179856   9.613   2.602   2.438  0.7464 -0.5128  2.7493
26426SOL    HW279857   9.618   2.751   2.416  0.8540 -0.5839  2.2755
26427SOL     OW79858   1.221   6.375   7.206 -0.3053 -0.3956  0.5451
26427SOL    HW179859   1.136   6.413   7.229  0.6328  1.4181  1.2241
26427SOL    HW279860   1.247   6.327   7.285 -1.1727 -1.9618 -0.0688
26428SOL     OW79861   9.014   3.622   4.770  0.2181 -0.6003 -0.3695
26428SOL    HW179862   8.960   3.693   4.736 -1.0253 -1.5078 -0.3889
26428SOL    HW279863   8.988   3.546   4.718  2.9336 -0.7182 -1.7150
26429SOL     OW79864   7.664   1.135   7.310 -0.2520 -0.1443 -0.4005
26429SOL    HW179865   7.629   1.047   7.324  0.3304 -0.1688  1.1376
26429SOL    HW279866   7.717   1.127   7.231 -0.0583 -1.2448 -0.1840
26430SOL     OW79867   3.862   0.566   7.677 -0.1597  0.2003  0.3041
26430SOL    HW179868   3.935   0.616   7.641 -1.0406 -0.5888 -2.9107
26430SOL    HW279869   3.891   0.475   7.672  0.3611  0.0825  3.5093
26431SOL     OW79870   1.025   7.037   8.323  0.1925 -0.5865 -0.4044
26431SOL    HW179871   1.058   7.123   8.347 -0.3052 -0.1182 -1.3067
26431SOL    HW279872   0.937   7.054   8.288  0.0735 -1.4582 -0.5654
26432SOL     OW79873   7.454   4.754   2.204 -0.3343 -0.3023 -0.1116
26432SOL    HW179874   7.462   4.708   2.120  0.3796 -0.1197 -0.1538
26432SOL    HW279875   7.412   4.838   2.180 -1.5748 -0.8797 -0.0412
26433SOL     OW79876   9.041   2.171   6.649  0.5686 -0.2354 -0.3532
26433SOL    HW179877   9.111   2.191   6.587  1.8309 -1.3318  0.6410
26433SOL    HW279878   9.003   2.089   6.617  1.6766 -1.1694  0.6433
26434SOL     OW79879   9.244   3.523   7.441 -0.0274  0.2115 -0.3423
26434SOL    HW179880   9.289   3.450   7.399  2.3113  1.7821 -0.7781
26434SOL    HW279881   9.151   3.506   7.428  0.5044 -1.8557 -1.7902
26435SOL     OW79882   8.831   0.789   8.492 -0.2442 -0.1213  0.0746
26435SOL    HW179883   8.853   0.839   8.571  3.1353  0.0430 -0.8015
26435SOL    HW279884   8.859   0.846   8.420 -1.4348 -1.0670 -1.1719
26436SOL     OW79885   0.821   9.870   8.449 -0.0548 -0.2665 -0.0293
26436SOL    HW179886   0.838   9.788   8.403  0.1880  0.0360 -0.4829
26436SOL    HW279887   0.887   9.873   8.519  1.0394  0.3467 -1.0577
26437SOL     OW79888   8.602   8.009   8.675  0.3789  0.0244 -0.4376
26437SOL    HW179889   8.629   7.990   8.585 -0.3146  1.5397 -1.0023
26437SOL    HW279890   8.562   7.928   8.706 -0.8297 -0.0467 -2.0800
26438SOL     OW79891   7.873   8.172   5.055  0.2002  0.1550 -0.2786
26438SOL    HW179892   7.874   8.149   5.148  1.8965 -0.1819 -0.3403
26438SOL    HW279893   7.966   8.185   5.033  0.1791 -2.6026 -2.6170
26439SOL     OW79894   4.855   0.595   4.237 -0.2153  0.5209  0.1776
26439SOL    HW179895   4.869   0.505   4.206  0.4748  0.7554 -0.2203
26439SOL    HW279896   4.785   0.629   4.181 -0.5644  0.1929  0.4101
26440SOL     OW79897   9.416   3.720   3.576 -0.0570 -0.4264 -0.0469
26440SOL    HW179898   9.501   3.764   3.577  0.0250 -0.5848  0.1818
26440SOL    HW279899   9.354   3.788   3.600  0.1629 -0.6162  1.1368
26441SOL     OW79900   1.646   5.201   6.086 -0.1531  0.4179  0.0265
26441SOL    HW179901   1.733   5.232   6.060  0.1698 -1.0542 -0.7708
26441SOL    HW279902   1.597   5.197   6.004  0.3726 -2.7302 -0.2718
26442SOL     OW79903   1.172   4.602   0.095 -0.1539 -0.1419 -0.3067
26442SOL    HW179904   1.107   4.672   0.089 -0.0517 -0.0996 -1.0121
26442SOL    HW279905   1.232   4.630   0.164  0.2961  0.8146 -1.0760
26443SOL     OW79906   9.745   7.096   2.473  0.1301 -0.4466  0.5568
26443SOL    HW179907   9.828   7.112   2.428  0.6317 -0.3605  1.4945
26443SOL    HW279908   9.712   7.183   2.495 -0.1843 -0.4827  0.2363
26444SOL     OW79909   6.077   7.272   7.705 -0.8480 -0.6837 -0.3378
26444SOL    HW179910   6.125   7.235   7.632  1.2407  0.8888  0.1405
26444SOL    HW279911   5.985   7.252   7.687 -0.4164 -0.3099 -3.4144
26445SOL     OW79912   4.505   8.082   3.514 -0.6587  0.0026 -0.1148
26445SOL    HW179913   4.542   8.170   3.508 -0.2669 -0.1866 -0.6124
26445SOL    HW279914   4.429   8.083   3.456 -1.8917  0.5955  1.4411
26446SOL     OW79915   4.954   4.115   9.093  0.6086 -0.0910 -0.5113
26446SOL    HW179916   4.944   4.197   9.045  0.8032  0.3841  0.2391
26446SOL    HW279917   5.047   4.094   9.085  0.6265 -0.0518 -0.4111
26447SOL     OW79918   4.707   8.436   7.103  0.3523  0.0326  0.0931
26447SOL    HW179919   4.800   8.457   7.109  0.5237 -0.5654 -0.3564
26447SOL    HW279920   4.676   8.486   7.027  0.1123  0.8848  0.7400
26448SOL     OW79921   5.892   7.968   9.070  0.5667  0.1913  0.0044
26448SOL    HW179922   5.843   8.018   9.135 -2.4073 -2.4165  0.0237
26448SOL    HW279923   5.887   8.020   8.990 -1.1502  0.6333  0.3626
26449SOL     OW79924   4.949   9.450   8.452  0.5636  0.4936  0.1399
26449SOL    HW179925   4.935   9.368   8.500 -1.5636 -0.9055 -2.5650
26449SOL    HW279926   4.893   9.514   8.496 -1.4410 -0.7810 -0.4051
26450SOL     OW79927   3.865   9.769   7.872 -0.0766 -0.3070  0.3564
26450SOL    HW179928   3.900   9.737   7.955  0.3061 -0.2934  0.2029
26450SOL    HW279929   3.778   9.802   7.894  0.2335  0.2040  0.8632
26451SOL     OW79930   3.755   1.534   7.219  0.5937 -0.0642  0.5388
26451SOL    HW179931   3.671   1.520   7.176  0.9759  1.7879 -0.9870
26451SOL    HW279932   3.743   1.500   7.307 -1.4012 -0.8008  0.0443
26452SOL     OW79933   1.510   1.854   2.533  0.5161 -0.3821 -0.0243
26452SOL    HW179934   1.415   1.857   2.517  0.3546 -1.5914  0.6157
26452SOL    HW279935   1.545   1.925   2.480 -0.8470  0.6852  0.4329
26453SOL     OW79936   2.704   0.426   4.459 -0.1580 -0.3051 -0.0192
26453SOL    HW179937   2.722   0.376   4.379 -1.9513 -0.7646 -0.1814
26453SOL    HW279938   2.665   0.508   4.427  2.6644  1.2722  0.2428
26454SOL     OW79939   8.651   2.002   1.392 -0.0507  0.1371 -0.3555
26454SOL    HW179940   8.663   1.952   1.472  1.3625  0.5149 -0.2987
26454SOL    HW279941   8.594   2.075   1.417  0.3071  0.1984  0.2922
26455SOL     OW79942   4.060   9.355   9.526 -0.1462  0.2475  0.6842
26455SOL    HW179943   4.016   9.281   9.567  0.4102 -0.6206 -0.2249
26455SOL    HW279944   4.058   9.424   9.591 -1.4916 -0.2715  1.2089
26456SOL     OW79945   7.940   9.838   2.010  0.1389  0.3316  0.3800
26456SOL    HW179946   7.958   9.843   1.916 -1.2642 -1.0437  0.0015
26456SOL    HW279947   7.912   9.747   2.024  1.3008  0.2032  2.3221
26457SOL     OW79948   8.112   4.449   9.951 -0.5111 -0.3209  0.0483
26457SOL    HW179949   8.052   4.388   9.993 -1.4417  1.5297  1.5997
26457SOL    HW279950   8.063   4.484   9.877 -1.4972  1.2192  1.3358
26458SOL     OW79951   1.930   5.261   2.053  0.0310 -0.3396  0.2573
26458SOL    HW179952   2.014   5.295   2.085  0.3167 -0.5717 -0.2338
26458SOL    HW279953   1.889   5.223   2.131 -0.5319  1.5589  0.9375
26459SOL     OW79954   2.757   8.661   5.495  0.0838  0.2800 -0.5383
26459SOL    HW179955   2.664   8.656   5.473 -0.4176  2.7175  0.7690
26459SOL    HW279956   2.765   8.737   5.552  2.6733 -0.7374  0.6209
26460SOL     OW79957   8.955   5.370   6.324  0.7268 -0.2616  0.3669
26460SOL    HW179958   8.981   5.304   6.388  1.8099 -1.9587 -1.6645
26460SOL    HW279959   8.901   5.321   6.260  1.9941  0.6426 -1.4791
26461SOL     OW79960   0.740   8.950   5.215 -0.1001  0.6210  0.4540
26461SOL    HW179961   0.799   8.959   5.291 -3.0485  3.1107  2.7365
26461SOL    HW279962   0.656   8.926   5.253 -1.2162 -0.2348 -2.3468
26462SOL     OW79963   5.989   2.757   7.384 -0.0701  0.4722 -0.1627
26462SOL    HW179964   5.986   2.809   7.465 -0.0766 -1.9668  1.5177
26462SOL    HW279965   5.905   2.776   7.341 -1.6659 -0.7275  2.1870
26463SOL     OW79966   2.584   4.709   3.910  0.4928 -0.5086  0.2322
26463SOL    HW179967   2.679   4.710   3.904  0.4316 -0.3819 -1.0872
26463SOL    HW279968   2.564   4.747   3.995  1.6139 -0.4325  0.4719
26464SOL     OW79969   6.803   2.060   6.643  0.1276  0.0107 -0.5739
26464SOL    HW179970   6.886   2.107   6.632  1.1578 -1.6557 -0.2087
26464SOL    HW279971   6.815   2.009   6.723 -0.6701 -1.4212 -1.3497
26465SOL     OW79972   7.818   0.165   9.332 -0.3104  0.4888 -0.0222
26465SOL    HW179973   7.858   0.088   9.373 -0.1412  1.5657  1.9957
26465SOL    HW279974   7.752   0.129   9.273 -1.4505 -1.2331  2.1222
26466SOL     OW79975   9.259   6.623   1.714 -0.2696 -0.7205  0.9423
26466SOL    HW179976   9.164   6.617   1.702 -0.3186  2.6389 -2.1931
26466SOL    HW279977   9.272   6.707   1.758  1.2318 -0.7556  0.6262
26467SOL     OW79978   2.955   4.318   0.947  0.0528 -0.1801 -0.6540
26467SOL    HW179979   2.968   4.224   0.954 -0.1344 -0.3231 -1.9418
26467SOL    HW279980   2.920   4.331   0.859  1.7909  1.2748 -1.2057
26468SOL     OW79981   2.794   1.838   6.503  0.2498  0.3457  0.3433
26468SOL    HW179982   2.769   1.748   6.521 -0.7673 -0.6619 -4.6743
26468SOL    HW279983   2.880   1.848   6.545 -0.4526 -2.1792  2.6542
26469SOL     OW79984   0.237   4.789   3.074 -0.0632 -0.9144  0.4986
26469SOL    HW179985   0.257   4.699   3.048 -0.4532 -0.5515 -1.1847
26469SOL    HW279986   0.242   4.839   2.992 -0.8957  0.4003  1.2248
26470SOL     OW79987   5.113   7.027   8.086  0.2355 -0.1222  0.0043
26470SOL    HW179988   5.061   6.962   8.039 -0.9693 -0.9561  2.2891
26470SOL    HW279989   5.061   7.107   8.084  0.2812 -0.0999 -0.2536
26471SOL     OW79990   6.789   4.886   0.764  0.2462 -0.1181 -0.2498
26471SOL    HW179991   6.838   4.892   0.846 -0.7835  1.2875  0.2934
26471SOL    HW279992   6.815   4.964   0.715 -0.5002 -0.0076 -0.4810
26472SOL     OW79993   5.918   4.461   8.882 -0.1052 -0.3506 -0.4443
26472SOL    HW179994   5.998   4.410   8.897  0.4519 -0.6297 -3.6669
26472SOL    HW279995   5.951   4.548   8.857 -0.9392  0.4368  1.0975
26473SOL     OW79996   2.436   9.955   5.453  0.3184  0.3052 -0.1341
26473SOL    HW179997   2.440   9.860   5.465  0.2472  0.4448  1.1614
26473SOL    HW279998   2.388   9.967   5.371 -0.5334 -0.7750  0.1873
26474SOL     OW79999   6.551   6.258   6.596  0.0492  0.7522 -0.2138
26474SOL    HW180000   6.599   6.309   6.531  1.0669 -0.4778 -0.4724
26474SOL    HW280001   6.466   6.301   6.603  1.2472  3.1559  0.4427
26475SOL     OW80002   2.885   0.742   4.093 -0.4565  0.2260 -0.3027
26475SOL    HW180003   2.894   0.761   4.186  0.2879 -0.3049 -0.2604
26475SOL    HW280004   2.874   0.828   4.052 -1.1663  0.4296  0.3108
26476SOL     OW80005   1.279   3.139   5.732  0.1570 -0.0091  0.2205
26476SOL    HW180006   1.278   3.044   5.717 -1.1503 -0.1991  1.3619
26476SOL    HW280007   1.370   3.157   5.757  0.8324 -0.6617 -1.5935
26477SOL     OW80008   8.619   3.664   7.437 -0.2728 -0.1807 -0.3829
26477SOL    HW180009   8.591   3.746   7.478  0.6115 -0.1957  0.2842
26477SOL    HW280010   8.668   3.619   7.506 -0.2779 -1.0192 -0.9184
26478SOL     OW80011   6.570   2.176   9.927 -0.2692  0.1278  0.4429
26478SOL    HW180012   6.654   2.220   9.915  0.1010  0.0950  2.5439
26478SOL    HW280013   6.506   2.246   9.919  0.0786  0.4579  0.5176
26479SOL     OW80014   3.545   5.637   8.718  0.2405  0.1920  0.4032
26479SOL    HW180015   3.584   5.562   8.762  0.8848 -1.5123 -2.8342
26479SOL    HW280016   3.471   5.661   8.774 -0.0446 -2.9131  1.5369
26480SOL     OW80017   7.580   3.207   2.500 -0.7187 -0.0087  0.2845
26480SOL    HW180018   7.612   3.276   2.558 -0.9295  0.6446 -0.3669
26480SOL    HW280019   7.631   3.130   2.526  1.0371  0.8762 -0.3645
26481SOL     OW80020   0.139   2.229   1.152 -0.0534 -0.0643 -0.3197
26481SOL    HW180021   0.100   2.227   1.239 -0.2692 -2.8739 -0.3897
26481SOL    HW280022   0.065   2.238   1.092 -0.0245  0.5065 -0.2761
26482SOL     OW80023   7.491   4.068   5.593 -0.1516 -0.5714 -0.1931
26482SOL    HW180024   7.485   4.157   5.558  0.1157 -0.0819  0.9491
26482SOL    HW280025   7.452   4.013   5.525  1.4419  0.1617 -1.8204
26483SOL     OW80026   7.084   4.359   0.175 -0.3927  0.0698 -0.0362
26483SOL    HW180027   7.085   4.388   0.084  3.4063  0.6955  0.0339
26483SOL    HW280028   7.066   4.438   0.226  1.7406  0.6778 -0.1549
26484SOL     OW80029   9.688   0.383   8.817  0.2415  0.3611 -0.5621
26484SOL    HW180030   9.654   0.345   8.736 -0.2645 -0.8654  0.1956
26484SOL    HW280031   9.779   0.354   8.820 -0.0407 -0.5263 -0.1691
26485SOL     OW80032   8.936   1.606   3.842 -0.2517  0.4975 -0.5294
26485SOL    HW180033   8.855   1.564   3.870  0.0375 -0.1270 -0.6009
26485SOL    HW280034   8.920   1.633   3.752 -0.4187  0.4910 -0.5015
26486SOL     OW80035   1.864   5.625   5.636  0.3878 -0.1494  0.2973
26486SOL    HW180036   1.853   5.682   5.561  0.6972  0.5225  0.7558
26486SOL    HW280037   1.778   5.622   5.677  0.5317  0.5239  0.6508
26487SOL     OW80038   0.069   1.187   5.044 -0.4087  0.0324  0.7992
26487SOL    HW180039   0.056   1.111   5.101 -0.7570 -1.0325 -0.6393
26487SOL    HW280040   0.068   1.151   4.955  0.6580  1.5556  0.1209
26488SOL     OW80041   8.747   9.034   0.776 -0.0719 -0.5647  0.2952
26488SOL    HW180042   8.738   8.994   0.690  0.8804  0.3990 -0.2639
26488SOL    HW280043   8.667   9.008   0.822 -1.3301  0.1432 -1.3823
26489SOL     OW80044   0.104   7.899   9.417  0.9467  0.1902  0.1176
26489SOL    HW180045   0.087   7.896   9.323 -0.7750  1.1772  0.3382
26489SOL    HW280046   0.116   7.808   9.442 -1.4755 -0.4259 -0.6392
26490SOL     OW80047   7.397   1.053   9.092 -0.1801  0.0023  0.3182
26490SOL    HW180048   7.334   1.119   9.119  0.3707  0.1722  1.2418
26490SOL    HW280049   7.345   0.974   9.078 -0.6069  0.1421  1.0684
26491SOL     OW80050   4.632   8.260   6.820  0.6530  0.4987 -0.2761
26491SOL    HW180051   4.653   8.299   6.735 -0.1550  0.4348 -0.5137
26491SOL    HW280052   4.713   8.215   6.846  1.0829  0.9829 -0.7442
26492SOL     OW80053   4.255   8.039   1.705  0.1757 -0.2403 -0.3052
26492SOL    HW180054   4.260   7.996   1.791  1.4867  0.0919 -0.2012
26492SOL    HW280055   4.169   8.013   1.671 -1.4866  1.5698  2.1110
26493SOL     OW80056   0.511   9.508   5.956 -0.5618  0.1155 -0.5186
26493SOL    HW180057   0.559   9.568   6.013  0.0076 -0.7803 -0.0390
26493SOL    HW280058   0.421   9.510   5.990 -0.7915  1.4279 -1.1220
26494SOL     OW80059   1.188   8.664   8.587  0.3591  0.0248 -0.5011
26494SOL    HW180060   1.227   8.579   8.608 -1.8466 -0.9882 -0.1932
26494SOL    HW280061   1.095   8.644   8.570  0.2003  2.0873 -2.4960
26495SOL     OW80062   4.257   1.953   8.793 -0.5743 -0.4673  0.2216
26495SOL    HW180063   4.237   2.046   8.803  0.6968 -0.0583 -0.7893
26495SOL    HW280064   4.297   1.927   8.876 -5.0257 -1.3751  2.4484
26496SOL     OW80065   2.626   8.372   1.985 -0.1363  0.2877  0.5253
26496SOL    HW180066   2.618   8.428   1.908  2.0564 -1.0132 -0.7423
26496SOL    HW280067   2.564   8.409   2.048 -0.4134  2.7201 -1.0527
26497SOL     OW80068   8.182   9.474   2.033 -0.9448  0.8011  0.3131
26497SOL    HW180069   8.255   9.460   2.093 -1.1395 -0.3539  0.3075
26497SOL    HW280070   8.111   9.507   2.088 -1.3286 -0.8605  0.8654
26498SOL     OW80071   5.317   9.884   3.523 -0.3950  0.1363 -0.4018
26498SOL    HW180072   5.324   9.853   3.613  1.5981  0.9326 -0.2366
26498SOL    HW280073   5.357   9.814   3.471 -0.1744  0.3422 -0.5078
26499SOL     OW80074   7.317   6.755   5.022  0.4893 -0.6611 -0.6275
26499SOL    HW180075   7.385   6.818   5.046 -2.0298  2.1076 -0.0215
26499SOL    HW280076   7.305   6.767   4.928 -0.2441  0.1179 -0.4495
26500SOL     OW80077   2.737   1.347   4.370 -0.4200 -0.0816 -0.0946
26500SOL    HW180078   2.652   1.387   4.351 -0.6735 -0.0056  1.1439
26500SOL    HW280079   2.729   1.258   4.337 -0.2599  0.5111 -1.8186
26501SOL     OW80080   8.230   2.847   5.810  0.1067  0.2970 -0.6317
26501SOL    HW180081   8.154   2.894   5.774  1.0050  1.2489 -1.3248
26501SOL    HW280082   8.252   2.895   5.889  0.0992  0.1224 -0.5230
26502SOL     OW80083   8.144   3.092   6.150 -0.6543 -0.4022 -0.0258
26502SOL    HW180084   8.100   3.112   6.067 -1.2176 -0.6647  0.2081
26502SOL    HW280085   8.078   3.108   6.217 -0.6895 -1.6776  0.2659
26503SOL     OW80086   3.967   6.920   2.294  0.4551 -0.0164 -0.0602
26503SOL    HW180087   3.933   7.001   2.257  0.6166  1.8762  3.5358
26503SOL    HW280088   3.895   6.884   2.345  1.0640 -0.9429  0.1773
26504SOL     OW80089   9.463   3.620   4.900  0.2465  0.2481 -0.0107
26504SOL    HW180090   9.375   3.583   4.888  0.5219 -0.2172 -0.6344
26504SOL    HW280091   9.466   3.644   4.993  0.7075 -3.1552  1.0168
26505SOL     OW80092   2.521   0.493   2.140 -0.0689 -0.1716 -0.0245
26505SOL    HW180093   2.559   0.464   2.056  0.0470 -1.4059  0.4233
26505SOL    HW280094   2.439   0.444   2.146 -1.0037  1.3185 -0.2662
26506SOL     OW80095   0.625   2.397   9.053 -0.4126  0.0993  0.1210
26506SOL    HW180096   0.696   2.374   9.112  0.1992 -1.8458 -1.2512
26506SOL    HW280097   0.621   2.492   9.055  0.6179  0.1366  2.0460
26507SOL     OW80098   1.152   9.681   8.301  0.5062 -0.4446 -0.1188
26507SOL    HW180099   1.142   9.691   8.206  2.1498 -0.9498 -0.3772
26507SOL    HW280100   1.162   9.770   8.334  0.0158 -0.2748 -0.4186
26508SOL     OW80101   3.252   1.028   5.341  0.3974  0.3489  0.3366
26508SOL    HW180102   3.220   0.955   5.289  2.1420 -0.9284  0.9580
26508SOL    HW280103   3.249   1.103   5.282 -1.5637 -0.1562 -0.2644
26509SOL     OW80104   1.117   5.261   0.707 -0.0631  0.1596  0.0442
26509SOL    HW180105   1.152   5.276   0.620 -0.7258  2.6848  0.1253
26509SOL    HW280106   1.194   5.255   0.764  0.4862 -3.6266 -0.8538
26510SOL     OW80107   2.064   6.667   5.875 -0.1846  0.2133 -0.3289
26510SOL    HW180108   2.083   6.705   5.961  1.7401 -0.5109 -0.3987
26510SOL    HW280109   2.082   6.738   5.813 -0.7588  0.4715 -0.2136
26511SOL     OW80110   5.563   7.629   7.690 -0.5374  0.5508 -0.7460
26511SOL    HW180111   5.620   7.552   7.683 -0.6773  0.4107 -0.3337
26511SOL    HW280112   5.554   7.644   7.784  1.0222  2.2038 -0.8052
26512SOL     OW80113   2.705   6.113   1.550  0.3069 -0.0649 -0.1187
26512SOL    HW180114   2.641   6.064   1.498 -1.9584  0.3329  2.0961
26512SOL    HW280115   2.733   6.184   1.491 -1.2568 -0.2812 -1.2033
26513SOL     OW80116   5.964   6.474   8.016  0.3403 -0.1241  0.6744
26513SOL    HW180117   5.914   6.459   7.937  1.1990 -2.7859  0.5390
26513SOL    HW280118   6.032   6.536   7.990 -1.0329  1.1902  0.1032
26514SOL     OW80119   1.768   8.220   7.208 -0.1092  0.4432  0.1626
26514SOL    HW180120   1.770   8.137   7.160  1.3912  1.1363 -1.0625
26514SOL    HW280121   1.681   8.224   7.246  0.0639 -2.1000  0.9899
26515SOL     OW80122   0.190   5.497   2.876 -0.3853 -0.2408 -0.3952
26515SOL    HW180123   0.178   5.466   2.786  4.0907  0.8064 -1.6199
26515SOL    HW280124   0.145   5.581   2.879 -0.8844 -0.4535 -1.5592
26516SOL     OW80125   2.894   3.677   6.436 -0.7246 -0.1355  0.2338
26516SOL    HW180126   2.921   3.749   6.493 -0.2139  0.3688 -0.6280
26516SOL    HW280127   2.864   3.719   6.356  1.1463 -0.8906 -0.9423
26517SOL     OW80128   0.937   1.246   6.339 -0.1410  0.2545  0.3148
26517SOL    HW180129   0.880   1.319   6.315 -2.3365 -1.4500  0.0771
26517SOL    HW280130   0.894   1.168   6.304  2.2849 -1.1832  0.2603
26518SOL     OW80131   0.300   4.178   0.130  0.0347 -0.2467  0.2462
26518SOL    HW180132   0.305   4.192   0.035  0.4339  0.6258  0.3894
26518SOL    HW280133   0.207   4.188   0.150 -0.0576 -0.4612 -0.0540
26519SOL     OW80134   3.510   8.823   2.420 -0.2366  0.2496  0.6814
26519SOL    HW180135   3.519   8.916   2.400 -0.8863 -0.1542 -1.7474
26519SOL    HW280136   3.600   8.790   2.423 -0.0575  0.6842  0.1376
26520SOL     OW80137   1.552   0.228   6.952 -0.3691  0.0007  0.0670
26520SOL    HW180138   1.560   0.163   6.882  2.1462 -0.7933  0.9952
26520SOL    HW280139   1.546   0.312   6.906 -0.7582 -0.6425 -1.1034
26521SOL     OW80140   9.313   4.833   1.312  0.1340 -0.3100  0.6611
26521SOL    HW180141   9.279   4.850   1.400  0.1911 -0.5346  0.7279
26521SOL    HW280142   9.236   4.833   1.256 -0.0192 -1.1387  0.8617
26522SOL     OW80143   0.326   9.640   4.030 -0.0464  0.1379  0.2952
26522SOL    HW180144   0.248   9.691   4.006 -0.1842 -0.2513 -0.1016
26522SOL    HW280145   0.345   9.666   4.120  0.7472  1.9998 -0.3509
26523SOL     OW80146   4.369   7.892   8.556  0.2793  0.1502  0.2042
26523SOL    HW180147   4.359   7.806   8.513 -0.1554  0.9743 -1.4467
26523SOL    HW280148   4.371   7.872   8.649 -0.4366 -1.6057 -0.1068
26524SOL     OW80149   9.905   8.290   9.740 -0.2271 -0.1174 -0.5509
26524SOL    HW180150   9.918   8.210   9.691  1.2074  0.3711 -1.0418
26524SOL    HW280151   9.820   8.323   9.713 -1.1814 -1.8309  0.2268
26525SOL     OW80152   9.056   7.625   2.790  0.2584 -0.3013 -0.3361
26525SOL    HW180153   9.080   7.601   2.879  1.0062  0.2271 -0.3874
26525SOL    HW280154   9.045   7.720   2.792  2.6917  0.0847 -1.3089
26526SOL     OW80155   9.620   5.697   4.985 -0.8528  0.3045 -0.1175
26526SOL    HW180156   9.672   5.763   4.939 -0.3424 -0.7153 -1.0558
26526SOL    HW280157   9.681   5.658   5.048 -1.1336  0.6821  0.3882
26527SOL     OW80158   3.308   1.618   8.190  0.4246  0.2186  0.1875
26527SOL    HW180159   3.327   1.549   8.254 -1.6943 -1.2320 -0.6428
26527SOL    HW280160   3.377   1.611   8.125  2.5018  1.5775  2.0865
26528SOL     OW80161   3.561   0.389   6.536  0.3890  0.1085 -0.3257
26528SOL    HW180162   3.528   0.385   6.626 -0.3065  1.7170 -0.4766
26528SOL    HW280163   3.491   0.350   6.484  1.4519 -2.3353 -0.0874
26529SOL     OW80164   0.957   3.917   3.444 -0.4173  0.5459  0.4164
26529SOL    HW180165   0.960   3.823   3.428 -4.1466  0.2555  0.5987
26529SOL    HW280166   1.001   3.956   3.369 -2.0254 -1.2882 -1.5868
26530SOL     OW80167   6.005   9.240   0.613  0.0660 -0.0675  0.0234
26530SOL    HW180168   5.944   9.249   0.540  0.9157 -2.6522 -1.1365
26530SOL    HW280169   6.091   9.234   0.572  0.7713  0.3205  1.3845
26531SOL     OW80170   8.013   1.250   2.606  0.2704  0.1291 -0.3636
26531SOL    HW180171   7.929   1.214   2.579  0.6882  0.6438 -2.6432
26531SOL    HW280172   7.993   1.335   2.644 -0.2667  0.1836 -0.7646
26532SOL     OW80173   4.473   4.789   2.083  0.1165 -0.3762  0.6317
26532SOL    HW180174   4.502   4.768   1.995 -1.2309  0.3145 -0.0117
26532SOL    HW280175   4.438   4.878   2.076 -0.6098 -0.5580  1.7021
26533SOL     OW80176   2.470   3.780   4.476 -0.3597  0.2611  0.5098
26533SOL    HW180177   2.449   3.819   4.391 -0.9012 -0.4652  0.2946
26533SOL    HW280178   2.476   3.854   4.536 -1.3236  0.6893  0.1058
26534SOL     OW80179   4.065   0.317   5.866  0.0287  0.3200 -0.1378
26534SOL    HW180180   4.124   0.243   5.882 -0.8738 -0.6736 -1.2171
26534SOL    HW280181   3.989   0.300   5.922  0.3426  1.1239  0.5673
26535SOL     OW80182   7.238   3.217   3.221 -0.0947  0.0565  0.1339
26535SOL    HW180183   7.243   3.293   3.164  0.4596  1.9657  2.5720
26535SOL    HW280184   7.195   3.150   3.168  1.2618  1.3421 -2.8146
26536SOL     OW80185   2.892   2.478   9.159 -0.2540  0.4420  0.0888
26536SOL    HW180186   2.915   2.440   9.244 -0.5037 -0.3529 -0.1943
26536SOL    HW280187   2.972   2.523   9.131  0.4258 -0.8525 -0.0984
26537SOL     OW80188   1.400   5.974   8.535 -0.2245 -0.2768  0.0624
26537SOL    HW180189   1.356   5.982   8.620  0.7365 -0.6442  0.6156
26537SOL    HW280190   1.336   6.006   8.471 -0.6866  0.7296  1.0005
26538SOL     OW80191   6.486   1.274   1.827 -0.3614 -0.0844 -0.1320
26538SOL    HW180192   6.546   1.200   1.818 -1.5132 -0.9759 -0.6226
26538SOL    HW280193   6.422   1.262   1.758 -1.9662  0.0352  1.2839
26539SOL     OW80194   1.134   8.519   1.644 -0.3682 -0.1669 -0.3561
26539SOL    HW180195   1.056   8.569   1.620  0.0610  0.8046  0.2411
26539SOL    HW280196   1.207   8.570   1.611  0.0711 -0.5320  0.0309
26540SOL     OW80197   9.904   0.256   4.047 -0.2362 -0.3318  0.5668
26540SOL    HW180198   9.929   0.289   3.961 -0.8679  1.5402  1.0665
26540SOL    HW280199   9.864   0.171   4.029 -0.2465 -0.0227 -0.9791
26541SOL     OW80200   9.822   0.877   7.218 -0.0081 -0.2907  0.6763
26541SOL    HW180201   9.840   0.844   7.130 -0.1223 -0.6312  0.7814
26541SOL    HW280202   9.789   0.966   7.204 -0.4031 -0.4873  0.3499
26542SOL     OW80203   8.420   4.240   0.482  0.0380 -0.5616  0.5576
26542SOL    HW180204   8.449   4.318   0.528  2.3849 -0.4578 -0.9082
26542SOL    HW280205   8.342   4.268   0.433  1.1011  1.0326 -0.3076
26543SOL     OW80206   1.837   5.781   0.464 -0.4671 -0.1474 -0.3436
26543SOL    HW180207   1.854   5.871   0.491 -1.4203 -0.3423  1.0125
26543SOL    HW280208   1.788   5.789   0.383 -0.2418  0.5456 -0.4190
26544SOL     OW80209   7.955   5.625   2.203 -0.4270  0.7342  0.3918
26544SOL    HW180210   8.035   5.669   2.175  1.0740 -1.4154  1.0770
26544SOL    HW280211   7.917   5.684   2.268  1.2680  1.2481  0.9833
26545SOL     OW80212   6.706   4.160   5.653 -0.3061  0.2739  0.3970
26545SOL    HW180213   6.736   4.070   5.665  1.4210  0.7950  0.2809
26545SOL    HW280214   6.621   4.163   5.697 -0.7261 -1.5685 -0.1777
26546SOL     OW80215   0.035   5.610   1.628  0.5987  0.2682  0.0758
26546SOL    HW180216   0.036   5.520   1.595 -0.0780  0.8462 -1.6232
26546SOL    HW280217  -0.028   5.655   1.573  0.6666  1.7234  1.1278
26547SOL     OW80218   8.311   0.002  10.005  0.1384 -0.5059  0.0190
26547SOL    HW180219   8.384   0.065  10.003  0.2970 -0.6848 -1.3736
26547SOL    HW280220   8.316  -0.042   9.920 -2.1496  0.1010 -0.4924
26548SOL     OW80221   8.916   8.986   6.869 -0.2429 -0.4248 -0.0090
26548SOL    HW180222   8.991   8.931   6.893  1.1669  1.1426 -0.6114
26548SOL    HW280223   8.929   9.006   6.777 -0.7144  0.8891  0.1869
26549SOL     OW80224   0.051   1.518   0.558  0.2062 -0.5131 -0.1019
26549SOL    HW180225  -0.040   1.529   0.584  0.2159 -3.1277  1.4217
26549SOL    HW280226   0.097   1.592   0.599 -1.2150  0.9961 -1.1273
26550SOL     OW80227   8.775   5.663   9.602 -0.3010 -0.0499  0.2974
26550SOL    HW180228   8.727   5.717   9.665 -0.4800 -0.6533  0.6863
26550SOL    HW280229   8.765   5.574   9.634 -0.2262 -0.3488 -0.4760
26551SOL     OW80230   6.062   7.111   3.139  0.1949  0.0314 -0.1334
26551SOL    HW180231   6.089   7.160   3.217  1.8021 -0.9128 -0.0527
26551SOL    HW280232   6.083   7.169   3.066  0.4653  0.1781  0.0559
26552SOL     OW80233   5.601   1.572   1.093 -0.1940  0.0780  0.6206
26552SOL    HW180234   5.571   1.497   1.041  0.5001  1.2196 -1.5587
26552SOL    HW280235   5.522   1.621   1.114 -0.3876  0.4226 -0.7861
26553SOL     OW80236   2.721   5.752   8.690  0.3862  0.1014 -0.7629
26553SOL    HW180237   2.746   5.744   8.598  2.3599 -0.6982 -0.2064
26553SOL    HW280238   2.771   5.827   8.722 -0.2558  0.3520 -0.3243
26554SOL     OW80239   7.910   5.043   7.856 -1.0841  0.0305  0.2208
26554SOL    HW180240   7.875   5.035   7.944  2.7413  0.2109  1.9804
26554SOL    HW280241   7.925   4.952   7.828 -1.4130 -0.0093  0.1764
26555SOL     OW80242   3.862   0.480   7.250 -0.0356 -0.3466  0.2286
26555SOL    HW180243   3.800   0.407   7.241  0.9649 -1.7482  3.2189
26555SOL    HW280244   3.946   0.438   7.269  1.2603  1.5737 -0.8977
26556SOL     OW80245   3.337   1.911   0.962 -0.4735 -0.3786  0.3418
26556SOL    HW180246   3.277   1.865   1.020  0.7999 -2.3204  0.1868
26556SOL    HW280247   3.351   1.996   1.005 -1.6432 -0.7158  1.4542
26557SOL     OW80248   4.224   0.330   7.738  0.8501 -0.4747  0.1812
26557SOL    HW180249   4.279   0.259   7.706  0.1179  0.0760 -2.5154
26557SOL    HW280250   4.247   0.406   7.684 -1.4097  0.1761 -0.0070
26558SOL     OW80251   6.212   6.874   9.907  0.1770 -0.0644  0.1297
26558SOL    HW180252   6.184   6.912   9.990 -0.9120 -0.0423 -0.2195
26558SOL    HW280253   6.305   6.856   9.918  0.5782  2.0359  0.5641
26559SOL     OW80254   9.928   6.453   5.670  0.2229  0.2240  0.1161
26559SOL    HW180255   9.954   6.361   5.670  1.8639  0.6451 -0.7498
26559SOL    HW280256  10.008   6.500   5.646 -0.7609  1.8238 -0.1543
26560SOL     OW80257   8.230   0.813   8.547  0.0194 -0.0683 -0.1032
26560SOL    HW180258   8.283   0.794   8.624  1.1336  0.0014 -0.8364
26560SOL    HW280259   8.164   0.875   8.578  0.1431 -0.4123  0.8955
26561SOL     OW80260   6.318   8.450   7.450 -0.1751 -0.1648  0.3773
26561SOL    HW180261   6.235   8.477   7.488 -0.7964 -1.6455  0.1376
26561SOL    HW280262   6.299   8.436   7.357 -0.2399 -2.6111  0.7083
26562SOL     OW80263   8.620   5.896   2.862  0.3582  0.2616 -0.1452
26562SOL    HW180264   8.537   5.900   2.909 -0.5235 -0.3969 -1.5779
26562SOL    HW280265   8.619   5.972   2.804  0.2895 -0.2733 -0.8664
26563SOL     OW80266   1.540   1.901   4.911  0.1615  0.4857  0.2369
26563SOL    HW180267   1.462   1.956   4.918  0.6605  1.2557 -0.0831
26563SOL    HW280268   1.509   1.820   4.871 -0.5703  0.5773  0.6072
26564SOL     OW80269   4.027   0.093   9.211  0.2135  0.2961 -0.3102
26564SOL    HW180270   3.977   0.100   9.292 -0.3556 -2.2226 -0.3683
26564SOL    HW280271   4.111   0.055   9.238  0.2273 -0.0542 -0.8379
26565SOL     OW80272   6.619   9.163   1.012 -0.1906 -0.2702 -0.1796
26565SOL    HW180273   6.698   9.158   0.958 -0.5420  1.9281 -1.0012
26565SOL    HW280274   6.648   9.206   1.093 -0.6975  1.5626 -0.9266
26566SOL     OW80275   7.035   3.146   7.796  0.2208  0.5909 -0.3474
26566SOL    HW180276   7.014   3.231   7.758  0.7836  0.5266 -0.8204
26566SOL    HW280277   7.105   3.165   7.859  0.1373  0.5203 -0.2329
26567SOL     OW80278   8.061   3.342   4.193  0.1984 -0.1645 -0.2365
26567SOL    HW180279   8.110   3.415   4.232  0.1040 -0.2642  0.0755
26567SOL    HW280280   8.126   3.294   4.142  0.4554 -0.3489  0.2490
26568SOL     OW80281   9.416   7.162   3.936  0.6253 -0.2584  0.6047
26568SOL    HW180282   9.376   7.116   3.863 -0.0363 -0.9975  1.4121
26568SOL    HW280283   9.455   7.241   3.897 -2.4354  1.0245 -0.0960
26569SOL     OW80284   2.647   4.121   1.420 -0.3938  0.1038 -0.0588
26569SOL    HW180285   2.732   4.116   1.463  0.3022  0.1485 -1.3793
26569SOL    HW280286   2.644   4.209   1.381 -1.3452  0.3641  0.5526
26570SOL     OW80287   7.924   5.688   2.627 -0.3754  0.6177  0.3635
26570SOL    HW180288   7.884   5.688   2.714  1.4671  1.3979  1.2563
26570SOL    HW280289   7.875   5.622   2.578  1.3890 -3.3589  3.3844
26571SOL     OW80290   2.268   6.972   3.024 -0.0211 -0.4806  0.3986
26571SOL    HW180291   2.256   7.007   2.936 -0.3841  1.2763  1.1079
26571SOL    HW280292   2.197   6.909   3.034  0.1679 -0.8841 -0.6316
26572SOL     OW80293   6.795   5.976   5.792 -0.5207 -0.1683 -0.3837
26572SOL    HW180294   6.719   5.918   5.784 -0.2763 -0.3318 -1.8948
26572SOL    HW280295   6.794   6.027   5.711  0.7442  0.1263 -0.2325
26573SOL     OW80296   2.747   1.224   3.203 -0.1449 -0.3240 -0.1714
26573SOL    HW180297   2.652   1.237   3.203 -0.1030  0.2102  1.2808
26573SOL    HW280298   2.759   1.135   3.170 -1.3155 -1.1831  1.5265
26574SOL     OW80299   5.312   4.605   1.990 -0.1555 -0.3473 -0.4664
26574SOL    HW180300   5.228   4.588   2.033  0.1005 -0.5976 -0.0498
26574SOL    HW280301   5.351   4.518   1.980  1.0949 -0.0977  1.5084
26575SOL     OW80302   1.407   6.481   3.675  0.4742 -1.1071 -0.0145
26575SOL    HW180303   1.455   6.432   3.609 -1.5526 -1.3672 -1.3972
26575SOL    HW280304   1.315   6.471   3.650 -0.3392 -0.7386  2.5426
26576SOL     OW80305   9.916   4.084   6.017  0.3735 -0.7053 -0.5312
26576SOL    HW180306   9.956   4.088   5.930 -0.5302 -1.2922 -0.9859
26576SOL    HW280307   9.831   4.124   6.005  0.1144 -1.0937  0.0063
26577SOL     OW80308   1.788   4.907   3.469  0.3119  0.5581  0.1627
26577SOL    HW180309   1.787   4.973   3.399  0.6113  0.5744  0.1729
26577SOL    HW280310   1.800   4.824   3.422  0.7931  0.5982  0.2197
26578SOL     OW80311   5.661   5.380   1.013  0.2156  0.2836 -0.6387
26578SOL    HW180312   5.698   5.322   0.947  0.9357  0.5968 -0.5144
26578SOL    HW280313   5.721   5.454   1.017 -0.9574  1.2906 -1.1615
26579SOL     OW80314   8.539   4.177   1.684  0.3077  0.3224  0.3255
26579SOL    HW180315   8.574   4.105   1.737  2.0488 -0.3154 -1.5603
26579SOL    HW280316   8.610   4.198   1.623 -1.2170  1.7495 -1.0414
26580SOL     OW80317   9.825   5.676   3.128  0.3933 -0.2385 -0.1600
26580SOL    HW180318   9.791   5.589   3.149 -0.7346  0.2051 -0.0346
26580SOL    HW280319   9.904   5.685   3.180  0.0324 -0.8522  0.5148
26581SOL     OW80320   8.126   7.913   3.807  0.3168 -0.0247 -0.3987
26581SOL    HW180321   8.209   7.875   3.778  0.9345  1.2162 -0.3136
26581SOL    HW280322   8.098   7.857   3.879  1.2720 -0.2296 -0.1772
26582SOL     OW80323   9.780   8.055   6.735 -0.1449 -0.3071  0.3624
26582SOL    HW180324   9.774   7.960   6.723  0.6218 -0.4841  1.2552
26582SOL    HW280325   9.873   8.072   6.748 -0.1569  0.6915 -0.6236
26583SOL     OW80326   8.878   0.320   2.660 -0.5027 -0.4706 -0.0393
26583SOL    HW180327   8.911   0.379   2.728 -1.3714  0.4311 -0.3750
26583SOL    HW280328   8.938   0.332   2.586  1.1306 -2.2926  0.8826
26584SOL     OW80329   5.122   4.109   5.563 -0.3495  0.5364 -0.3344
26584SOL    HW180330   5.157   4.191   5.597  1.7714 -0.6911  0.6022
26584SOL    HW280331   5.188   4.079   5.500  0.5114 -1.9572  1.6257
26585SOL     OW80332   0.196   2.156   2.253  0.2551 -0.8502 -0.0117
26585SOL    HW180333   0.182   2.201   2.170  0.1236 -1.3842 -0.2843
26585SOL    HW280334   0.228   2.070   2.228  0.1078 -1.0530  0.4916
26586SOL     OW80335   7.967   2.632   1.396  0.4104  0.0782  0.4171
26586SOL    HW180336   8.034   2.684   1.350 -1.1139  1.3367 -0.4817
26586SOL    HW280337   7.963   2.670   1.484  0.5700  0.3000  0.3307
26587SOL     OW80338   7.426   5.137   1.372  0.2589  0.2192  0.0699
26587SOL    HW180339   7.387   5.188   1.300 -0.9686 -1.7478 -0.7297
26587SOL    HW280340   7.466   5.062   1.329  2.0899  0.4828  1.2204
26588SOL     OW80341   6.102   0.104   0.831  0.1421 -0.4742  0.4621
26588SOL    HW180342   6.169   0.169   0.852 -0.4167  0.4713 -0.5917
26588SOL    HW280343   6.053   0.093   0.913 -0.7600  1.6630  0.2627
26589SOL     OW80344   8.613   4.752   5.694  0.1113 -0.1975  0.2322
26589SOL    HW180345   8.557   4.698   5.750 -0.6273  0.3791  0.0526
26589SOL    HW280346   8.569   4.753   5.609  0.9917 -0.6864 -0.2431
26590SOL     OW80347   7.170   8.935   0.837  0.3185  0.9032 -0.6980
26590SOL    HW180348   7.152   8.999   0.768 -0.4444  0.9935 -0.4258
26590SOL    HW280349   7.124   8.970   0.914  0.7085  0.5271 -0.2888
26591SOL     OW80350   9.349   7.094   9.269 -0.1334  0.0568  0.1384
26591SOL    HW180351   9.359   7.032   9.197  0.1632 -0.4585  0.6172
26591SOL    HW280352   9.391   7.174   9.238 -2.0910  0.6404 -1.2040
26592SOL     OW80353   5.920   5.559   2.410 -0.3678  0.2748  0.0849
26592SOL    HW180354   5.860   5.489   2.435 -0.2974 -0.0015 -0.5081
26592SOL    HW280355   5.943   5.541   2.319  1.4050 -0.2065  0.5801
26593SOL     OW80356   6.335   7.765   8.341 -0.0812 -0.0952  0.3181
26593SOL    HW180357   6.303   7.801   8.258 -0.6774 -2.9467 -0.7734
26593SOL    HW280358   6.425   7.798   8.347 -0.3651  1.0049 -0.9011
26594SOL     OW80359   9.371   2.933   0.983  0.5657  0.1239 -0.3636
26594SOL    HW180360   9.315   2.957   0.910  0.7855  0.0522 -0.5549
26594SOL    HW280361   9.336   2.850   1.014  2.0975 -1.2583 -2.0989
26595SOL     OW80362   5.373   7.282   8.133  0.1071  0.6554  0.5990
26595SOL    HW180363   5.454   7.323   8.162  0.2796  1.9669 -1.5316
26595SOL    HW280364   5.313   7.355   8.119 -1.0821 -0.2079  1.0294
26596SOL     OW80365   3.314   4.955   4.594 -0.2909  0.2123 -0.2964
26596SOL    HW180366   3.251   4.925   4.529 -2.3901  1.1858  1.1577
26596SOL    HW280367   3.360   4.875   4.621 -0.1731 -0.3729 -2.1044
26597SOL     OW80368   8.181   5.597   6.469 -0.4046 -0.5527 -0.2046
26597SOL    HW180369   8.241   5.655   6.423  0.2502  0.4081  1.7334
26597SOL    HW280370   8.094   5.622   6.436 -0.0908  1.2016  0.1683
26598SOL     OW80371   8.587   2.513   9.703  0.0739 -0.0216  0.3519
26598SOL    HW180372   8.648   2.558   9.762 -0.7854 -1.9593  2.8848
26598SOL    HW280373   8.643   2.479   9.633  1.0928  2.5430 -0.2113
26599SOL     OW80374   7.748   7.002   8.919  0.2654  0.5355  0.6065
26599SOL    HW180375   7.737   6.994   8.825  1.6165  1.3718  0.3651
26599SOL    HW280376   7.718   7.090   8.940  2.3586  1.3067  0.5504
26600SOL     OW80377   3.340   8.210   0.565  0.8742  0.0057  0.4342
26600SOL    HW180378   3.251   8.225   0.533  0.6702 -1.2872  0.3533
26600SOL    HW280379   3.336   8.124   0.608  1.8057  0.4710  1.4899
26601SOL     OW80380   9.366   2.846   9.054  0.7030 -0.1835  0.3081
26601SOL    HW180381   9.412   2.836   9.138  0.4040 -0.9345  0.3935
26601SOL    HW280382   9.300   2.777   9.055 -1.3106  1.6577  0.7478
26602SOL     OW80383   9.277   4.560   4.301  0.2450  0.0705  0.1076
26602SOL    HW180384   9.297   4.654   4.305  0.2079  0.0896 -0.1629
26602SOL    HW280385   9.210   4.552   4.233 -0.3500 -0.0531  0.6966
26603SOL     OW80386   1.540   5.857   8.790 -0.1430  0.3574 -0.3375
26603SOL    HW180387   1.468   5.919   8.778 -0.2676  0.0714 -1.1469
26603SOL    HW280388   1.507   5.774   8.755  0.0887 -0.1301  0.5564
26604SOL     OW80389   2.304   9.480   7.303  0.0714  0.1616 -0.0643
26604SOL    HW180390   2.249   9.416   7.348  1.0868 -1.5992 -1.1831
26604SOL    HW280391   2.317   9.443   7.216  1.3019  1.5566 -0.5174
26605SOL     OW80392   4.369   2.107   2.128 -0.1666  0.0228 -0.8647
26605SOL    HW180393   4.304   2.067   2.070 -1.4895  0.2625  0.3915
26605SOL    HW280394   4.325   2.184   2.164 -0.0608 -1.0122  1.7309
26606SOL     OW80395   5.888   9.875   2.789 -0.2314  0.4651 -0.1796
26606SOL    HW180396   5.947   9.911   2.855  2.9669  0.3525 -2.6834
26606SOL    HW280397   5.895   9.780   2.800  0.5267  0.4382 -0.7671
26607SOL     OW80398   9.206   4.195   1.375  0.2121  0.1391  0.0456
26607SOL    HW180399   9.137   4.184   1.309  0.1597 -0.1017  0.1421
26607SOL    HW280400   9.216   4.290   1.383 -0.3072  0.1800  0.2407
26608SOL     OW80401   9.529   4.762   3.484  0.6725 -0.3146  0.2460
26608SOL    HW180402   9.506   4.761   3.391 -0.0568  1.8294  0.3395
26608SOL    HW280403   9.512   4.673   3.514 -5.6653  0.2439 -0.2305
26609SOL     OW80404   4.976   3.376   0.337 -0.3417  0.0779 -0.7038
26609SOL    HW180405   4.889   3.336   0.337  0.2898 -1.3879  0.1092
26609SOL    HW280406   4.972   3.441   0.407 -0.8862  0.2317 -0.8785
26610SOL     OW80407   9.396   7.486   6.375 -0.3817  0.4820  0.2126
26610SOL    HW180408   9.341   7.503   6.452  0.1658  2.6161  0.1760
26610SOL    HW280409   9.467   7.430   6.408 -0.6164  0.6715  1.0579
26611SOL     OW80410   6.658   1.214   6.778  0.4290  0.5774 -0.2421
26611SOL    HW180411   6.725   1.147   6.792 -0.0321  0.2162  0.3214
26611SOL    HW280412   6.586   1.187   6.836 -0.5297  0.5038 -1.4391
26612SOL     OW80413   7.757   3.162   3.925  0.4486  0.1630  0.0495
26612SOL    HW180414   7.788   3.244   3.964 -0.2855  0.4050  0.1384
26612SOL    HW280415   7.704   3.190   3.850  0.5690 -0.2489 -0.1911
26613SOL     OW80416   4.678   9.994   1.127 -0.1505 -0.1097  0.3444
26613SOL    HW180417   4.712   9.905   1.121 -0.0618 -0.0662  0.1785
26613SOL    HW280418   4.756  10.048   1.144  0.0314  0.1165 -1.0818
26614SOL     OW80419   7.309   5.758   0.993  0.4025  0.6670 -0.0396
26614SOL    HW180420   7.370   5.710   0.937  0.2775  0.6581 -0.1687
26614SOL    HW280421   7.357   5.836   1.019  0.1400  1.1222 -0.8962
26615SOL     OW80422   9.124   5.076   0.024 -0.1232 -0.0842 -0.9024
26615SOL    HW180423   9.071   5.148  -0.010  0.2993  0.5164 -0.3213
26615SOL    HW280424   9.202   5.118   0.060  1.0377 -0.9900 -2.2438
26616SOL     OW80425   7.932   5.605   4.290 -0.3994 -0.0672  0.1336
26616SOL    HW180426   8.017   5.631   4.325  0.9573  0.0248 -2.9406
26616SOL    HW280427   7.869   5.648   4.348  1.5678 -0.1725  2.5373
26617SOL     OW80428   0.620   3.707   3.331  0.3410 -0.1964  0.0900
26617SOL    HW180429   0.598   3.644   3.263 -0.9502 -0.3043  0.5601
26617SOL    HW280430   0.588   3.791   3.297  0.0789 -0.1802  0.3677
26618SOL     OW80431   7.441   2.451   4.615  0.3946 -0.2840  0.1846
26618SOL    HW180432   7.353   2.431   4.646 -0.3167 -1.7802 -2.5256
26618SOL    HW280433   7.497   2.387   4.660 -0.5637 -2.2394 -1.2779
26619SOL     OW80434   7.725   2.957   6.720 -0.2403 -0.6286 -0.4512
26619SOL    HW180435   7.749   3.029   6.779 -0.8530 -1.0936  0.3901
26619SOL    HW280436   7.700   2.999   6.638  0.1371  0.0648 -0.2121
26620SOL     OW80437   9.104   7.949   7.105 -0.0662  0.1404  0.3548
26620SOL    HW180438   9.170   8.018   7.113 -0.3210  0.2855  1.4128
26620SOL    HW280439   9.153   7.868   7.119  0.1347  0.1345 -0.3308
26621SOL     OW80440   6.158   2.090   5.191 -0.4901  0.3767  0.4164
26621SOL    HW180441   6.172   2.056   5.102 -1.5824  0.0620  0.3549
26621SOL    HW280442   6.132   2.181   5.178  0.3689  0.6432  0.4796
26622SOL     OW80443   4.469   0.854   9.688 -0.0434  0.2565 -0.1170
26622SOL    HW180444   4.507   0.873   9.602 -0.0940  0.5345 -0.0797
26622SOL    HW280445   4.438   0.939   9.719  0.4401  0.2426  0.4039
26623SOL     OW80446   7.340   3.912   0.127  0.2885 -0.1044  0.1138
26623SOL    HW180447   7.283   3.840   0.100  0.5579 -0.7139  1.1448
26623SOL    HW280448   7.428   3.881   0.109  0.3904  0.1135  0.2353
26624SOL     OW80449   5.137   8.382   5.181  0.2559 -0.8762 -0.1423
26624SOL    HW180450   5.080   8.456   5.200  0.1656 -0.8739 -0.4207
26624SOL    HW280451   5.185   8.407   5.102  1.8610 -0.1805  0.9825
26625SOL     OW80452   5.476   2.021   1.968 -0.4448 -0.9985 -0.0101
26625SOL    HW180453   5.464   2.016   1.873 -0.5170  0.3867 -0.0836
26625SOL    HW280454   5.512   1.935   1.991 -0.5562 -1.4101 -1.2588
26626SOL     OW80455   8.090   7.486   8.825  0.0462  0.1730 -0.0123
26626SOL    HW180456   8.075   7.423   8.897 -0.7277 -0.3173 -0.5859
26626SOL    HW280457   8.185   7.495   8.821  0.0912  0.4714  1.2997
26627SOL     OW80458   6.727   4.763   8.268  0.5562 -0.5171  0.4607
26627SOL    HW180459   6.646   4.797   8.230  0.5278 -0.1102  0.8725
26627SOL    HW280460   6.752   4.690   8.211 -0.5555 -1.1953  0.8077
26628SOL     OW80461   2.608   8.408   9.386  0.4777  0.4681 -0.3031
26628SOL    HW180462   2.518   8.419   9.355  0.2635 -0.6369 -0.1133
26628SOL    HW280463   2.661   8.457   9.323  0.1553 -2.4081 -3.0331
26629SOL     OW80464   5.013   1.091   2.885  0.4333  0.6028  0.2596
26629SOL    HW180465   4.917   1.088   2.889  0.2551 -0.3219 -2.4761
26629SOL    HW280466   5.041   1.024   2.948 -0.8638 -1.0545 -0.8267
26630SOL     OW80467   5.369   1.101   7.393  0.5315 -0.1389  0.0284
26630SOL    HW180468   5.436   1.035   7.372  1.2819  0.7335 -0.3875
26630SOL    HW280469   5.409   1.184   7.368 -1.6479  0.2395 -2.7266
26631SOL     OW80470   5.265   2.909   6.379  0.0103 -0.4082  0.1308
26631SOL    HW180471   5.196   2.843   6.373 -0.5021  0.1246  0.0877
26631SOL    HW280472   5.253   2.950   6.464 -0.8794  0.9267 -0.6102
26632SOL     OW80473   2.911   5.457   0.750  0.3329  0.6738 -0.1139
26632SOL    HW180474   2.924   5.365   0.774 -1.4701  0.5859  0.6785
26632SOL    HW280475   2.913   5.458   0.654  0.4144 -0.1842 -0.1243
26633SOL     OW80476   0.297   3.240   3.462  0.1745 -0.3642  0.2911
26633SOL    HW180477   0.205   3.226   3.441  0.0996  0.0109  0.3691
26633SOL    HW280478   0.296   3.276   3.551  0.4056 -0.4958  0.3485
26634SOL     OW80479   6.356   2.193   9.332  1.1899  0.1539  0.2998
26634SOL    HW180480   6.427   2.246   9.370 -0.6928  1.9469  1.5021
26634SOL    HW280481   6.276   2.230   9.370 -0.4310 -1.5760 -1.2784
26635SOL     OW80482   4.440   3.671   8.422 -0.3046 -0.4046 -0.1010
26635SOL    HW180483   4.493   3.649   8.499 -0.5282  2.3005  0.9469
26635SOL    HW280484   4.484   3.628   8.349  1.6316 -0.6469  1.1389
26636SOL     OW80485   9.762   5.814   2.392  0.3631 -0.9218 -0.6836
26636SOL    HW180486   9.774   5.726   2.428 -0.7234 -0.6542  0.3972
26636SOL    HW280487   9.820   5.869   2.445  1.3493 -1.0272 -1.6239
26637SOL     OW80488   0.205   2.791   2.617 -0.1650 -0.2096 -0.1313
26637SOL    HW180489   0.287   2.751   2.647 -0.3886 -2.2707 -2.0466
26637SOL    HW280490   0.144   2.778   2.689  1.1157  1.4148  1.3576
26638SOL     OW80491   1.975   8.208   3.692  0.0908  0.3431  0.4341
26638SOL    HW180492   1.984   8.302   3.674  0.4006  0.2887  0.3023
26638SOL    HW280493   1.934   8.173   3.613 -0.4490  0.4394  0.6652
26639SOL     OW80494   6.483   4.492   7.003  0.2737  0.3519  0.1243
26639SOL    HW180495   6.466   4.565   7.063  1.0354 -0.3469  1.2389
26639SOL    HW280496   6.443   4.519   6.921 -0.1542  1.6787  0.7307
26640SOL     OW80497  -0.004   9.652   7.574  0.4998  0.4529 -0.1654
26640SOL    HW180498   0.054   9.622   7.503 -0.5059  0.7442 -1.1363
26640SOL    HW280499  -0.019   9.745   7.555 -0.7521  0.2428 -0.2630
26641SOL     OW80500   6.559   7.560   4.779  0.2318 -0.0790 -0.3371
26641SOL    HW180501   6.639   7.591   4.822 -0.1451 -0.3610  0.6016
26641SOL    HW280502   6.550   7.469   4.809 -0.6439  0.0714 -0.1176
26642SOL     OW80503   0.542   8.914   3.933 -0.2066 -0.1714 -0.1243
26642SOL    HW180504   0.562   8.879   4.020  0.0365  2.3957  0.9616
26642SOL    HW280505   0.607   8.875   3.876  0.7364 -0.6102  1.1950
26643SOL     OW80506   5.126   0.028   4.442 -0.0913 -0.0101 -0.0174
26643SOL    HW180507   5.108  -0.053   4.395 -0.8169 -0.4882  1.0470
26643SOL    HW280508   5.221   0.038   4.437  0.0802 -1.2762  0.3652
26644SOL     OW80509   8.665   6.370   6.601 -0.6686  0.0262  0.2016
26644SOL    HW180510   8.663   6.402   6.510 -2.2244  2.2787  0.9399
26644SOL    HW280511   8.592   6.308   6.605  0.0454 -0.8710 -0.3170
26645SOL     OW80512   4.443   5.082   2.157 -0.0419  0.2914  0.8228
26645SOL    HW180513   4.350   5.089   2.179 -0.3722 -1.6226  0.2024
26645SOL    HW280514   4.443   5.069   2.062  0.9212  1.1295  0.6979
26646SOL     OW80515   8.968   1.245   2.078  0.5259 -0.2272 -0.3656
26646SOL    HW180516   8.970   1.326   2.027 -1.5899  0.1618  0.0448
26646SOL    HW280517   9.016   1.264   2.158  0.2452  0.5679 -0.3829
26647SOL     OW80518   1.551   0.188   7.572 -0.8305  0.2973  0.1358
26647SOL    HW180519   1.631   0.165   7.525  0.5305  2.0319  1.4343
26647SOL    HW280520   1.486   0.203   7.504  0.2008 -0.2627 -1.0136
26648SOL     OW80521   3.056   0.932   5.652 -0.3090 -0.1004 -0.4336
26648SOL    HW180522   2.983   0.975   5.697 -0.1099 -1.0421  0.8619
26648SOL    HW280523   3.033   0.839   5.654  0.1792 -0.2554 -1.4425
26649SOL     OW80524   2.219   9.880   9.932  0.1977 -0.4814  0.0480
26649SOL    HW180525   2.279   9.835   9.873  1.3572  2.4414 -1.1598
26649SOL    HW280526   2.142   9.899   9.878 -0.1767 -0.7793  0.4694
26650SOL     OW80527   9.446   3.755   0.140 -0.0753  0.1491 -0.1833
26650SOL    HW180528   9.513   3.765   0.072  0.2513  1.1617  0.2710
26650SOL    HW280529   9.471   3.818   0.207 -0.6110 -0.5716  0.7060
26651SOL     OW80530   5.153   6.022   8.761 -0.7991  0.2837  0.4847
26651SOL    HW180531   5.117   5.981   8.683  0.6520  0.7911 -0.4997
26651SOL    HW280532   5.140   5.958   8.831  0.0042 -1.2014 -0.6786
26652SOL     OW80533   3.937   1.596   2.991 -0.5565  0.1764  0.4429
26652SOL    HW180534   3.946   1.622   3.083 -2.6034  1.5783  0.3196
26652SOL    HW280535   3.889   1.513   2.994 -0.5359  0.1715  0.6578
26653SOL     OW80536   5.610   4.978   1.707 -0.0162  0.0062 -0.1338
26653SOL    HW180537   5.634   5.052   1.651  1.0787  0.3862  0.7912
26653SOL    HW280538   5.535   5.009   1.758 -1.3840 -0.5322 -1.7164
26654SOL     OW80539   9.326   1.075   4.322 -0.5134 -0.2296 -0.1828
26654SOL    HW180540   9.305   1.161   4.359 -1.4182 -0.1089 -0.9190
26654SOL    HW280541   9.269   1.069   4.245 -0.0050 -1.2325 -0.4849
26655SOL     OW80542   1.644   5.965   5.293  0.0470  0.1482 -0.5381
26655SOL    HW180543   1.695   5.888   5.267  2.7996  0.5303  2.9397
26655SOL    HW280544   1.693   6.039   5.257  0.6579  0.4289  0.8175
26656SOL     OW80545   5.127   5.496   5.389  0.3560 -0.1233 -0.2543
26656SOL    HW180546   5.043   5.453   5.370 -0.7297  0.1003  3.2504
26656SOL    HW280547   5.102   5.581   5.426  2.1342  0.1098  0.5241
26657SOL     OW80548   5.432   3.756   1.502  0.1815  0.1319 -0.9903
26657SOL    HW180549   5.515   3.747   1.455  0.0337 -1.2427 -1.0483
26657SOL    HW280550   5.398   3.666   1.506 -2.0528  0.8350 -2.3110
26658SOL     OW80551   0.827   6.041   7.419 -0.7296  0.1227 -0.3904
26658SOL    HW180552   0.858   6.050   7.329 -0.2129 -0.7873 -0.3064
26658SOL    HW280553   0.732   6.054   7.412 -0.6920  0.0837 -1.0612
26659SOL     OW80554   2.836   5.081   4.506  0.1236  0.5820 -0.6545
26659SOL    HW180555   2.925   5.076   4.472  0.2447 -2.7743 -0.2629
26659SOL    HW280556   2.780   5.061   4.431 -0.2432  1.7889 -0.7099
26660SOL     OW80557   0.763   3.760   0.446 -0.1462 -0.3273  0.2604
26660SOL    HW180558   0.842   3.710   0.423  1.0522  1.1955  0.8798
26660SOL    HW280559   0.785   3.802   0.529 -1.2804  0.8313 -0.0079
26661SOL     OW80560   0.346   4.720   1.152 -0.0799 -0.0747  0.2028
26661SOL    HW180561   0.388   4.667   1.085  0.0624 -1.0661  1.0598
26661SOL    HW280562   0.419   4.758   1.201 -0.1879  0.3030  0.0765
26662SOL     OW80563   6.154   8.704   7.257  0.2213 -0.0388  0.6009
26662SOL    HW180564   6.157   8.713   7.161 -0.8720  0.7734  0.6229
26662SOL    HW280565   6.072   8.657   7.273 -1.3190  2.6596  1.2712
26663SOL     OW80566   4.733   6.181   7.318 -0.1896  0.6566 -0.6010
26663SOL    HW180567   4.680   6.245   7.270 -2.7409 -1.0359 -0.2414
26663SOL    HW280568   4.719   6.098   7.273 -0.0064 -0.3497  1.0939
26664SOL     OW80569   4.192   7.919   3.504 -0.3214  0.0027 -0.5869
26664SOL    HW180570   4.248   7.844   3.526 -0.9101 -0.5190 -0.8375
26664SOL    HW280571   4.253   7.989   3.482  0.2347 -0.5890 -0.9551
26665SOL     OW80572   0.190   6.070   5.889  0.2075  0.7555 -0.3714
26665SOL    HW180573   0.148   6.153   5.908  0.7662  0.9418  0.0804
26665SOL    HW280574   0.129   6.004   5.922 -1.1123  0.8911 -2.3915
26666SOL     OW80575   6.150   5.847   9.916  0.4494 -0.5374  0.2903
26666SOL    HW180576   6.055   5.850   9.927  0.4708 -1.1742  0.7101
26666SOL    HW280577   6.184   5.901   9.987  0.3365  2.0977 -1.5209
26667SOL     OW80578   6.066   7.725   1.781  0.2694  0.3699 -0.0041
26667SOL    HW180579   6.145   7.687   1.819 -0.3861 -1.6969 -0.5776
26667SOL    HW280580   6.005   7.731   1.854  0.6292  1.1356  0.2517
26668SOL     OW80581   8.981   4.232   9.650 -0.8637 -0.0467  0.7204
26668SOL    HW180582   9.004   4.312   9.698 -2.0226  0.6416  0.1743
26668SOL    HW280583   8.885   4.235   9.644 -0.7679 -0.1985 -1.4515
26669SOL     OW80584   6.356   1.921   6.234 -0.0883 -0.4039 -0.3824
26669SOL    HW180585   6.286   1.953   6.290 -0.2289 -0.6201 -0.4320
26669SOL    HW280586   6.422   1.886   6.294  1.3855  2.4790 -0.1491
26670SOL     OW80587   1.717   9.914   7.394 -0.2249 -0.5279 -0.1675
26670SOL    HW180588   1.713   9.911   7.298 -0.2686 -0.3408 -0.1717
26670SOL    HW280589   1.710  10.007   7.415  1.2491 -0.4094 -0.0532
26671SOL     OW80590   5.692   0.889   7.200 -0.4923  0.3089 -0.4462
26671SOL    HW180591   5.707   0.911   7.292 -0.3572 -0.5782 -0.2398
26671SOL    HW280592   5.632   0.956   7.168 -0.9272  0.3503  0.4325
26672SOL     OW80593   5.763   4.462   0.082 -0.1581 -0.5289  0.1184
26672SOL    HW180594   5.810   4.378   0.086 -0.3989 -0.7225 -0.7814
26672SOL    HW280595   5.725   4.472   0.169 -1.1431 -1.9718 -0.0966
26673SOL     OW80596   4.206   1.798   7.678 -0.4892  0.7349 -0.1126
26673SOL    HW180597   4.280   1.853   7.702 -2.1883  2.7043  0.9786
26673SOL    HW280598   4.201   1.733   7.748  0.5093  0.2139 -0.5040
26674SOL     OW80599   7.128   8.866   0.025 -0.3606 -0.1672 -0.0961
26674SOL    HW180600   7.098   8.779  -0.003 -0.2178 -0.4289  0.5425
26674SOL    HW280601   7.050   8.920   0.025 -0.7770 -0.7246  1.1030
26675SOL     OW80602   7.788   1.351   5.363  0.3286  0.0260  0.1053
26675SOL    HW180603   7.797   1.395   5.279 -0.2535  1.4479  0.7694
26675SOL    HW280604   7.876   1.352   5.401  0.3996  0.2402 -0.0685
26676SOL     OW80605   4.396   3.863   6.967 -0.0530  0.1698  0.0198
26676SOL    HW180606   4.378   3.957   6.976 -1.1603 -0.1024  0.8328
26676SOL    HW280607   4.489   3.859   6.942  0.4613  1.4226  1.5569
26677SOL     OW80608   0.390   5.312   9.635 -0.4658 -0.2160  0.3748
26677SOL    HW180609   0.380   5.396   9.680 -2.5636 -0.0054 -0.3833
26677SOL    HW280610   0.306   5.297   9.593  0.9081 -1.0822 -2.3101
26678SOL     OW80611   4.976   5.384   5.868  0.1385  0.3276 -0.3093
26678SOL    HW180612   4.899   5.337   5.835 -1.1240  1.0124  1.5048
26678SOL    HW280613   5.009   5.329   5.939  1.1682  0.1962 -0.8678
26679SOL     OW80614   2.562   8.854   3.996  0.1384 -0.4264 -0.5376
26679SOL    HW180615   2.488   8.913   4.012  1.8134  1.7657 -0.4012
26679SOL    HW280616   2.532   8.798   3.924 -1.8521 -0.0234 -0.0882
26680SOL     OW80617   2.370   6.825   9.565  0.1011  0.0007  0.6949
26680SOL    HW180618   2.370   6.788   9.477  0.1823  0.3588  0.5416
26680SOL    HW280619   2.408   6.757   9.620 -0.3633 -0.3996  0.5294
26681SOL     OW80620   7.204   6.495   7.991  0.2162  0.1637 -0.2318
26681SOL    HW180621   7.239   6.543   8.066 -0.3880  0.7848 -0.3443
26681SOL    HW280622   7.273   6.502   7.924 -0.5406  2.3737 -0.8599
26682SOL     OW80623   2.774   6.246   3.523 -0.3117  0.2424  0.2654
26682SOL    HW180624   2.845   6.203   3.570 -0.9437  0.5879  1.5738
26682SOL    HW280625   2.818   6.301   3.458  0.6153  0.3782  0.9832
26683SOL     OW80626   7.247   3.716   3.002  0.1503  0.3644  0.2800
26683SOL    HW180627   7.284   3.633   3.032 -0.1044  0.3038  0.4358
26683SOL    HW280628   7.198   3.749   3.078  2.2948  1.9118  1.0818
26684SOL     OW80629   1.118   8.956   2.511  0.2339 -0.1966 -0.3604
26684SOL    HW180630   1.104   8.864   2.532 -1.7320  0.7402  3.4007
26684SOL    HW280631   1.096   8.963   2.418 -1.7816 -3.1364 -0.2420
26685SOL     OW80632   9.862   3.858   2.571 -0.3667  0.0953 -0.1375
26685SOL    HW180633   9.926   3.886   2.637  0.0252  0.4953 -0.6800
26685SOL    HW280634   9.821   3.939   2.542 -1.3745 -0.1892  0.4530
26686SOL     OW80635   7.935   9.549   2.720 -0.2648  0.0254  0.2813
26686SOL    HW180636   7.964   9.622   2.664  0.8493 -1.9736 -1.9692
26686SOL    HW280637   8.015   9.498   2.735 -1.0586 -0.8917  1.5740
26687SOL     OW80638   3.838   2.632   2.993  0.0212 -0.8690  0.0526
26687SOL    HW180639   3.780   2.700   2.959 -0.2329 -1.3903 -0.5935
26687SOL    HW280640   3.901   2.679   3.047 -0.7579 -0.2450  0.4481
26688SOL     OW80641   6.665   3.989   0.855 -0.1545 -0.0995 -0.1612
26688SOL    HW180642   6.610   4.067   0.847  0.0059 -0.0169 -0.4939
26688SOL    HW280643   6.719   4.006   0.932  0.6300  0.6063 -0.8355
26689SOL     OW80644   6.773   9.850   0.949  0.0220  0.3497 -0.0296
26689SOL    HW180645   6.829   9.861   0.873  1.7660  3.5898  1.5035
26689SOL    HW280646   6.700   9.911   0.935 -2.0408 -2.1611 -0.9466
26690SOL     OW80647   5.708   7.420   9.818 -0.2673 -0.0098  0.4066
26690SOL    HW180648   5.638   7.457   9.765 -0.1843  1.3421  1.2084
26690SOL    HW280649   5.789   7.460   9.785  0.1193 -1.2958 -0.2833
26691SOL     OW80650   1.488   5.500   0.342  0.2773  0.0627  0.5267
26691SOL    HW180651   1.577   5.472   0.319 -0.0495  0.9314 -2.1187
26691SOL    HW280652   1.457   5.434   0.403  2.3572 -0.8466  0.6838
26692SOL     OW80653   2.207   7.679   3.534  0.0759  0.4964 -0.0500
26692SOL    HW180654   2.181   7.723   3.453 -1.1090  0.2391  0.1763
26692SOL    HW280655   2.244   7.595   3.505 -2.3517 -0.5908 -0.2897
26693SOL     OW80656   7.503   8.999   0.826  0.3261 -0.1407 -0.0293
26693SOL    HW180657   7.560   9.074   0.843 -0.3345  0.2444  0.5215
26693SOL    HW280658   7.427   9.013   0.882 -1.7775  0.9549 -2.9620
26694SOL     OW80659   5.140   4.329   8.686  1.2073  0.2594  0.2433
26694SOL    HW180660   5.061   4.276   8.697  0.3718  1.4837  0.5120
26694SOL    HW280661   5.116   4.414   8.725  2.4883  0.8165 -0.1362
26695SOL     OW80662   1.545   5.048   9.991 -0.1051  0.8257  0.3459
26695SOL    HW180663   1.618   5.110   9.987  0.3647  0.3547  1.4424
26695SOL    HW280664   1.526   5.029   9.899 -0.3100  2.6408 -0.0136
26696SOL     OW80665   8.530   4.032   5.139 -0.7290  0.1533  0.1991
26696SOL    HW180666   8.535   4.068   5.227  2.1825  1.1709 -0.2624
26696SOL    HW280667   8.493   4.103   5.086  1.1290  1.0596  0.0165
26697SOL     OW80668   9.459   5.917   1.154 -0.0939  0.0472 -0.5431
26697SOL    HW180669   9.389   5.981   1.169  1.7094  1.9460  0.1759
26697SOL    HW280670   9.487   5.933   1.064 -0.9525 -1.1566 -1.0551
26698SOL     OW80671   0.968   2.873   1.182  0.2526  0.0057  0.2226
26698SOL    HW180672   0.971   2.948   1.242 -0.8217  0.4601 -0.2790
26698SOL    HW280673   0.892   2.822   1.211 -0.2333  0.1892 -0.6870
26699SOL     OW80674   7.410   2.452   5.442  0.4806 -0.5485 -0.6132
26699SOL    HW180675   7.423   2.543   5.470 -2.0393  0.5229 -2.5365
26699SOL    HW280676   7.392   2.405   5.523 -0.3216  1.1290  0.2407
26700SOL     OW80677   0.818   3.849   2.137 -0.0043 -0.0477  0.4648
26700SOL    HW180678   0.833   3.886   2.224  0.1376  0.4011  0.2512
26700SOL    HW280679   0.739   3.796   2.148  0.6884 -0.9757  1.1557
26701SOL     OW80680   5.947   6.499   8.522  0.1030 -0.2954 -0.2795
26701SOL    HW180681   5.949   6.431   8.590 -2.3588  0.8536  1.0669
26701SOL    HW280682   6.035   6.537   8.525  0.5128 -1.2412  1.2406
26702SOL     OW80683   9.579   0.963   3.279  0.5812  0.2274 -0.8938
26702SOL    HW180684   9.489   0.995   3.278 -0.1663 -1.7203 -0.6510
26702SOL    HW280685   9.613   0.989   3.364 -0.4821 -0.7983 -0.1228
26703SOL     OW80686   9.088   8.430   3.954  0.4487 -0.3292  0.1960
26703SOL    HW180687   9.129   8.438   3.868 -0.2952  0.0775 -0.1248
26703SOL    HW280688   9.117   8.508   4.002  0.6638 -0.4312  0.2338
26704SOL     OW80689   7.732   5.274   7.139  0.4672  0.2818  0.9398
26704SOL    HW180690   7.702   5.356   7.100 -1.0554 -0.2843  0.8348
26704SOL    HW280691   7.667   5.209   7.110  0.4153 -0.5465  2.7724
26705SOL     OW80692   4.509   7.832   3.622 -0.3354 -0.2353  0.3458
26705SOL    HW180693   4.458   7.773   3.566 -3.6054  1.2338  1.5083
26705SOL    HW280694   4.491   7.920   3.587  0.1677  0.4576  1.7586
26706SOL     OW80695   0.072   8.311   6.837 -0.1496  0.2178 -0.1623
26706SOL    HW180696   0.066   8.388   6.894 -2.0738  1.0722 -1.4376
26706SOL    HW280697   0.062   8.237   6.897  1.1818  0.9284  1.0159
26707SOL     OW80698   7.306   5.242   5.923  0.0388 -0.3427  0.2736
26707SOL    HW180699   7.312   5.288   6.007 -2.0332  0.9818 -0.2224
26707SOL    HW280700   7.384   5.268   5.876  0.5736 -0.0481  1.2962
26708SOL     OW80701   4.031   1.601   3.616  0.2243 -0.2350  0.0558
26708SOL    HW180702   4.076   1.639   3.540  0.4943  1.5054  1.0321
26708SOL    HW280703   3.947   1.647   3.620 -0.1170 -0.8774  0.3570
26709SOL     OW80704   2.856   8.937   3.342  0.1872 -0.5810  0.8064
26709SOL    HW180705   2.847   8.868   3.276 -0.2431  0.2925 -0.0701
26709SOL    HW280706   2.818   9.015   3.301 -0.9176 -0.2181  2.4272
26710SOL     OW80707   8.970   7.317   1.341  0.1174 -0.0620  0.1720
26710SOL    HW180708   8.952   7.240   1.394 -0.8620  0.4731  0.6533
26710SOL    HW280709   9.065   7.328   1.345  0.4147 -1.8409 -0.7730
26711SOL     OW80710   0.011   1.482   3.129 -0.2440 -0.8558 -0.3886
26711SOL    HW180711   0.069   1.431   3.071 -1.9590  1.9005 -5.1247
26711SOL    HW280712   0.054   1.567   3.137 -0.1347 -1.1069  2.5433
26712SOL     OW80713   1.781   8.906   0.855  0.6315 -0.4143 -0.3080
26712SOL    HW180714   1.796   8.967   0.928 -1.8256  0.1153 -0.1743
26712SOL    HW280715   1.780   8.820   0.897 -0.1149 -0.1671  0.2128
26713SOL     OW80716   8.408   1.663   1.366 -0.2760 -0.3826  0.1120
26713SOL    HW180717   8.437   1.644   1.455 -0.2491 -1.0254 -0.0300
26713SOL    HW280718   8.482   1.635   1.311 -0.6757 -0.8808 -0.1729
26714SOL     OW80719   4.059   1.292   7.493  0.0794 -0.2493  0.1459
26714SOL    HW180720   4.098   1.370   7.532  2.4119 -0.9033 -0.7052
26714SOL    HW280721   3.975   1.323   7.457 -0.5233  1.1137  2.4997
26715SOL     OW80722   8.904   6.052   3.042 -0.2213  0.0518  0.1562
26715SOL    HW180723   8.863   6.051   2.955  0.4707 -0.6177 -0.1722
26715SOL    HW280724   8.935   6.142   3.052 -0.4277  0.1718 -0.2353
26716SOL     OW80725   6.278   2.741   9.521  0.6671 -0.5599  0.1788
26716SOL    HW180726   6.302   2.799   9.594  1.6780 -0.9281  0.1575
26716SOL    HW280727   6.218   2.793   9.468  1.4423  0.4223  0.2333
26717SOL     OW80728   5.989   6.278   6.272 -0.1833 -0.2894  0.2236
26717SOL    HW180729   5.946   6.303   6.190 -0.3456 -1.7625 -0.1663
26717SOL    HW280730   6.045   6.204   6.248 -1.4920 -1.8330  1.7282
26718SOL     OW80731   2.478   2.550   6.973 -0.2657  0.4210 -0.4094
26718SOL    HW180732   2.436   2.472   6.937 -0.6493  1.1185 -1.5412
26718SOL    HW280733   2.544   2.517   7.034 -1.2360 -0.7374  0.0335
26719SOL     OW80734   5.001   4.956   4.240 -0.6778 -0.0354 -0.1024
26719SOL    HW180735   4.932   4.930   4.300 -0.2504  0.7782  0.7616
26719SOL    HW280736   5.067   4.997   4.295  0.4959 -0.7760 -0.9117
26720SOL     OW80737   7.557   7.373   0.802  0.5924 -0.4230 -0.3896
26720SOL    HW180738   7.615   7.423   0.859 -0.2985 -0.3701  0.5200
26720SOL    HW280739   7.557   7.420   0.719  1.6814 -0.3213 -0.3402
26721SOL     OW80740   6.503   0.453   5.588  0.4118 -0.9243 -0.1115
26721SOL    HW180741   6.453   0.412   5.518 -0.5675  0.3828 -0.2198
26721SOL    HW280742   6.593   0.457   5.555  0.1050 -1.0108 -0.9608
26722SOL     OW80743   7.061   6.574   9.208 -0.5425 -0.7392 -0.0483
26722SOL    HW180744   7.018   6.520   9.142 -2.2562  0.8026 -0.2752
26722SOL    HW280745   7.131   6.618   9.160 -0.2825 -1.3723 -0.2688
26723SOL     OW80746   8.252   6.354   2.489  0.0755  0.1192 -0.2943
26723SOL    HW180747   8.190   6.419   2.523 -0.2595 -0.4033  0.1165
26723SOL    HW280748   8.320   6.406   2.447  0.4990  0.7930  1.1705
26724SOL     OW80749   6.953   8.319   0.440 -0.7122 -0.1997  0.5820
26724SOL    HW180750   7.045   8.334   0.463 -0.0874  0.2379 -1.9000
26724SOL    HW280751   6.911   8.404   0.451  0.1044  0.6104 -1.8689
26725SOL     OW80752   3.352   7.561   2.179  0.2410  0.1197 -0.0719
26725SOL    HW180753   3.370   7.490   2.241 -3.7399 -1.6597 -0.6004
26725SOL    HW280754   3.396   7.534   2.099 -1.3591 -2.0560 -0.3294
26726SOL     OW80755   8.208   2.452   1.948 -0.3767  0.2663 -0.0829
26726SOL    HW180756   8.266   2.383   1.915  0.0276 -0.1535  1.4457
26726SOL    HW280757   8.262   2.531   1.947 -0.5037  0.3513 -0.8114
26727SOL     OW80758   6.831   5.957   8.528  0.1903 -0.1489 -0.1771
26727SOL    HW180759   6.830   6.037   8.579  1.8067  0.3830 -0.9218
26727SOL    HW280760   6.793   5.981   8.444  0.7091 -0.1400 -0.4142
26728SOL     OW80761   1.235   0.113   0.216  0.6498 -0.0997  0.4305
26728SOL    HW180762   1.174   0.094   0.287 -0.2100  0.6324 -0.0960
26728SOL    HW280763   1.314   0.144   0.260  0.7508 -1.2797  1.1294
26729SOL     OW80764   2.245   1.276   1.076  0.1362  0.5741 -0.0747
26729SOL    HW180765   2.156   1.300   1.105 -0.3324 -0.5132 -0.5585
26729SOL    HW280766   2.247   1.301   0.984  1.2206  2.9190  0.4964
26730SOL     OW80767   4.987   8.385   6.635 -0.3085 -0.0970 -0.0038
26730SOL    HW180768   4.932   8.427   6.701 -0.6983 -0.7157  0.0636
26730SOL    HW280769   5.066   8.360   6.682 -0.1314  0.4244 -0.0135
26731SOL     OW80770   9.920   5.274   1.177 -0.2078  0.4202  0.4743
26731SOL    HW180771   9.898   5.181   1.176  0.5190  0.0571 -4.2960
26731SOL    HW280772  10.008   5.278   1.213  0.6251 -1.1400 -1.2378
26732SOL     OW80773   1.976   6.247   4.708 -0.0693 -0.2072 -0.1036
26732SOL    HW180774   1.991   6.341   4.717  1.5758 -0.4686  0.1466
26732SOL    HW280775   1.969   6.232   4.613 -0.2018  0.1360 -0.1487
26733SOL     OW80776   2.607   0.282   0.866 -0.3643  0.2919 -0.4707
26733SOL    HW180777   2.688   0.316   0.828  1.1397 -1.2191  1.2333
26733SOL    HW280778   2.559   0.245   0.791 -0.3330  2.6837 -1.7668
26734SOL     OW80779   1.959   1.231   7.951  0.4857 -0.1075  0.8306
26734SOL    HW180780   1.960   1.137   7.930 -1.2168  0.0265 -0.0127
26734SOL    HW280781   2.043   1.264   7.919  1.3927 -1.4333  1.7225
26735SOL     OW80782   2.430   3.958   3.970 -0.4960  0.0619 -0.0047
26735SOL    HW180783   2.388   4.000   3.894 -0.0287  0.1591 -0.2133
26735SOL    HW280784   2.524   3.963   3.951 -0.4320 -1.0187  0.0049
26736SOL     OW80785   9.732   5.072   3.869 -0.1265 -0.2546  0.5212
26736SOL    HW180786   9.718   5.018   3.948 -0.0674 -0.8335  0.1431
26736SOL    HW280787   9.682   5.028   3.801 -0.7594  0.6523  0.3950
26737SOL     OW80788   1.744   7.444   8.163  0.2892 -0.1686  0.3045
26737SOL    HW180789   1.805   7.461   8.235  0.4551  2.0580 -0.3174
26737SOL    HW280790   1.799   7.431   8.087  0.0495 -0.7388  0.2231
26738SOL     OW80791   4.870   3.982   7.923  0.0294  0.5086  0.0726
26738SOL    HW180792   4.791   3.967   7.872 -1.3255  0.0802  2.1745
26738SOL    HW280793   4.862   4.073   7.954  0.6896  0.6734 -0.2227
26739SOL     OW80794   1.459   3.696   1.919 -0.1482  0.0887  0.5522
26739SOL    HW180795   1.453   3.789   1.938  0.6375  0.5380 -1.1203
26739SOL    HW280796   1.507   3.659   1.993  1.2080  1.3643  0.3623
26740SOL     OW80797   3.853   0.184   8.270 -0.0579 -0.6085  0.2129
26740SOL    HW180798   3.867   0.277   8.256 -0.5892 -0.6128 -0.3607
26740SOL    HW280799   3.889   0.142   8.191 -2.4511 -0.6825 -0.9303
26741SOL     OW80800   5.810   5.029   3.151 -0.3840 -0.0398 -0.2722
26741SOL    HW180801   5.782   5.036   3.242  0.8606 -0.3444  0.1459
26741SOL    HW280802   5.877   5.097   3.141 -0.0950 -0.3980 -0.8020
26742SOL     OW80803   4.583   3.578   6.089 -0.0415  0.0828 -0.3532
26742SOL    HW180804   4.577   3.483   6.081 -1.3962  0.1926 -1.0258
26742SOL    HW280805   4.495   3.609   6.067  0.1759  1.4492  0.6021
26743SOL     OW80806   4.565   2.094   3.830  0.4409  0.3545 -0.3845
26743SOL    HW180807   4.626   2.126   3.897  0.3600  1.7582 -0.9419
26743SOL    HW280808   4.529   2.013   3.866  1.0570  0.6177  0.8678
26744SOL     OW80809   6.826   3.466   5.350  0.1588 -0.5095 -0.2411
26744SOL    HW180810   6.851   3.470   5.442  0.2078 -0.9007 -0.2346
26744SOL    HW280811   6.794   3.377   5.337  1.3282 -0.8717 -0.8879
26745SOL     OW80812   1.105   6.563   6.019 -0.5380  0.2686  0.3407
26745SOL    HW180813   1.135   6.652   6.002  1.6298 -0.7807 -1.8234
26745SOL    HW280814   1.050   6.541   5.945 -1.0675 -0.2110  0.8628
26746SOL     OW80815   0.750   0.970   5.640  0.0919  0.3441  0.0118
26746SOL    HW180816   0.797   1.017   5.709 -0.6275  1.4551 -0.2262
26746SOL    HW280817   0.695   1.036   5.600 -1.8414 -0.9566  0.4038
26747SOL     OW80818   2.828   2.266   5.823 -0.5208 -0.2621 -0.1163
26747SOL    HW180819   2.733   2.270   5.834 -0.7565 -3.3566 -0.1187
26747SOL    HW280820   2.841   2.265   5.728 -0.6918 -1.8769 -0.1475
26748SOL     OW80821   3.306   4.122   4.870 -0.0529  0.6362 -0.5292
26748SOL    HW180822   3.255   4.073   4.935  2.3174 -0.0877  0.9256
26748SOL    HW280823   3.357   4.056   4.824  0.5710  1.4367 -1.0098
26749SOL     OW80824   1.414   5.454   2.927 -0.6590  0.2971 -0.3978
26749SOL    HW180825   1.418   5.427   3.018 -2.7784 -0.3800 -0.4455
26749SOL    HW280826   1.483   5.403   2.884 -1.2913 -1.3078  0.4070
26750SOL     OW80827   9.574   7.951   1.828  0.2367  0.4093  0.1607
26750SOL    HW180828   9.632   7.919   1.897  0.5638  0.7237  0.0384
26750SOL    HW280829   9.507   7.884   1.819  0.8397 -0.1897 -0.0153
26751SOL     OW80830   9.002   3.245   7.800 -0.2411 -0.2964  0.2474
26751SOL    HW180831   9.059   3.170   7.818 -1.1172 -0.7339  1.3106
26751SOL    HW280832   9.063   3.318   7.785  0.6366 -1.3571 -1.6332
26752SOL     OW80833   9.041   6.105   7.946 -0.2784  0.1092 -0.1055
26752SOL    HW180834   9.114   6.077   8.000  0.4427 -0.2572 -1.2386
26752SOL    HW280835   9.052   6.200   7.938 -1.7323  0.5650  2.2849
26753SOL     OW80836   4.261   9.248   4.842 -0.1900 -0.1795  0.0642
26753SOL    HW180837   4.203   9.176   4.817 -0.7054  0.4584 -0.6191
26753SOL    HW280838   4.344   9.227   4.799 -0.9108  0.6287 -1.8441
26754SOL     OW80839   9.715   7.366   9.926  0.3857  0.0060  0.1275
26754SOL    HW180840   9.644   7.304   9.942  0.2808 -0.0411 -0.4814
26754SOL    HW280841   9.704   7.433   9.994  0.0294 -0.2348  0.3112
26755SOL     OW80842   0.435   9.231   3.049 -0.3081 -0.3619  0.5853
26755SOL    HW180843   0.484   9.185   2.980 -0.4375 -2.4107  1.7665
26755SOL    HW280844   0.490   9.305   3.072 -0.0420  0.1001 -1.3775
26756SOL     OW80845   2.575   3.263   8.417 -0.2595 -0.0833  0.5074
26756SOL    HW180846   2.552   3.296   8.330 -1.1583  2.0945  1.5165
26756SOL    HW280847   2.658   3.217   8.403  0.3412  1.4038 -1.2853
26757SOL     OW80848   6.205   4.432   1.644  0.6433 -0.2869  0.0395
26757SOL    HW180849   6.252   4.504   1.602 -1.0456  0.0991 -1.2705
26757SOL    HW280850   6.230   4.438   1.737  2.2119  0.6104 -0.3971
26758SOL     OW80851   6.227   8.557   4.649 -0.3862  0.0430  0.2871
26758SOL    HW180852   6.182   8.563   4.565 -0.7893  0.6635  0.5423
26758SOL    HW280853   6.185   8.483   4.693 -1.5904  0.9969  0.7734
26759SOL     OW80854   1.694   6.396   5.037  0.2244  0.2346 -0.5019
26759SOL    HW180855   1.708   6.489   5.054  0.2234  0.1403  0.0314
26759SOL    HW280856   1.601   6.388   5.019 -0.1568  0.0533  1.4100
26760SOL     OW80857   6.911   9.017   0.023  0.5978 -0.1552 -0.0024
26760SOL    HW180858   6.859   9.045  -0.053  1.4823  0.7328 -0.3080
26760SOL    HW280859   6.917   9.095   0.078  3.2405  0.4268 -0.9399
26761SOL     OW80860   4.315   7.021   2.676 -0.0603 -0.0950  0.0194
26761SOL    HW180861   4.274   7.027   2.762 -0.0314 -1.0193  0.1068
26761SOL    HW280862   4.254   7.067   2.618 -0.3932 -0.0127  0.4273
26762SOL     OW80863   9.470   4.607   4.653  0.0825  0.5539 -0.0166
26762SOL    HW180864   9.380   4.601   4.621  0.1622  0.2896 -0.1954
26762SOL    HW280865   9.515   4.659   4.586 -0.2691  1.9695  0.8032
26763SOL     OW80866   7.225   7.691   2.552  0.4067 -0.0884  0.8102
26763SOL    HW180867   7.155   7.656   2.497 -0.1898  0.6795  1.0705
26763SOL    HW280868   7.198   7.780   2.572  1.6328  0.3473  0.6284
26764SOL     OW80869   0.285   5.912   4.030  0.5158  0.5665  0.1372
26764SOL    HW180870   0.295   5.928   3.936  1.9468 -2.0997 -0.2645
26764SOL    HW280871   0.225   5.838   4.035  1.6511 -0.3253  1.1970
26765SOL     OW80872   4.463   7.400   3.262  0.3206 -0.4543  0.0039
26765SOL    HW180873   4.549   7.409   3.222 -0.3919  1.4805 -1.2498
26765SOL    HW280874   4.434   7.490   3.277 -0.2722 -1.0365  3.2058
26766SOL     OW80875   6.935   9.952   4.598 -0.2348  0.5581  0.0635
26766SOL    HW180876   6.882   9.968   4.676 -1.2309 -0.8971 -0.2885
26766SOL    HW280877   7.010   9.902   4.631  0.0736  1.1725  0.3022
26767SOL     OW80878   4.411   1.900   9.000 -0.0991  0.6373  0.4430
26767SOL    HW180879   4.398   1.816   9.043  1.5736  0.4437  0.6172
26767SOL    HW280880   4.492   1.934   9.037  0.1860  1.5173 -0.9209
26768SOL     OW80881   2.332   8.646   1.138  0.0519  0.2174 -0.2732
26768SOL    HW180882   2.265   8.698   1.182  1.4356  0.9250  1.1258
26768SOL    HW280883   2.290   8.614   1.059 -1.6993  1.2138  0.1989
26769SOL     OW80884   5.130   4.408   6.449 -0.5829  0.3634 -0.0451
26769SOL    HW180885   5.190   4.476   6.419 -0.7146  0.8119  0.6871
26769SOL    HW280886   5.088   4.376   6.369  0.6343  0.0308 -0.5706
26770SOL     OW80887   8.140   3.447   6.997  0.3821 -0.1130  0.1924
26770SOL    HW180888   8.095   3.367   7.022 -0.0903 -0.0439 -0.4209
26770SOL    HW280889   8.104   3.514   7.056 -0.0348 -0.1355 -0.0345
26771SOL     OW80890   1.505   1.192   1.613  0.2955 -0.1528 -0.1085
26771SOL    HW180891   1.532   1.137   1.687 -2.3041  0.0186  1.0923
26771SOL    HW280892   1.424   1.151   1.582  0.0245  1.2093 -1.2628
26772SOL     OW80893   9.011   0.344   4.568 -0.1293  0.0712 -0.2441
26772SOL    HW180894   9.089   0.398   4.585 -0.7666  1.5879 -1.8502
26772SOL    HW280895   9.008   0.335   4.473 -0.5250 -2.1658 -0.0606
26773SOL     OW80896   1.783   7.562   8.743  0.2442 -0.2485  0.0268
26773SOL    HW180897   1.723   7.614   8.689  0.7325  0.7646  0.4411
26773SOL    HW280898   1.791   7.479   8.695  2.2827  1.3330 -2.6387
26774SOL     OW80899   0.267   3.053   2.549 -0.2712 -0.1110 -0.3122
26774SOL    HW180900   0.248   2.962   2.572  0.1378 -0.4811 -1.3757
26774SOL    HW280901   0.284   3.051   2.455 -0.8990  1.1775 -0.4754
26775SOL     OW80902   8.290   4.731   6.566  0.3392 -0.5404  0.1662
26775SOL    HW180903   8.279   4.794   6.637 -1.1113  0.4276 -0.8503
26775SOL    HW280904   8.260   4.648   6.602 -1.6671  0.2030  0.3209
26776SOL     OW80905   2.059   2.743   6.290 -0.5590 -0.2862  0.9721
26776SOL    HW180906   2.073   2.796   6.369  0.6140 -1.3041  1.4716
26776SOL    HW280907   2.055   2.808   6.219 -0.0978  0.5409  1.6759
26777SOL     OW80908   3.095   2.413   5.307 -0.2015  0.6086 -0.1859
26777SOL    HW180909   3.132   2.477   5.367 -0.5021 -0.4235  1.1583
26777SOL    HW280910   3.153   2.338   5.312 -1.6284 -0.4857  0.8595
26778SOL     OW80911   1.559   1.994   6.598 -0.0847  0.4930  0.5220
26778SOL    HW180912   1.635   1.955   6.643  1.3139  0.4505 -1.7293
26778SOL    HW280913   1.524   2.057   6.661  2.3058  1.0689  1.3884
26779SOL     OW80914   4.710   7.478   3.204 -0.2288  0.7659  0.7320
26779SOL    HW180915   4.764   7.408   3.242  1.0408  1.7134  0.7264
26779SOL    HW280916   4.773   7.540   3.168 -1.2672 -0.1248 -3.1861
26780SOL     OW80917   1.117   4.885   0.819 -0.3700 -0.0802 -0.5578
26780SOL    HW180918   1.064   4.834   0.758  1.2366 -0.8091 -1.3966
26780SOL    HW280919   1.111   4.837   0.901 -0.7698 -0.3177 -0.7224
26781SOL     OW80920   7.191   4.974   1.382 -0.2772 -0.3048 -0.3077
26781SOL    HW180921   7.227   4.887   1.366 -2.1197 -1.2254  0.3293
26781SOL    HW280922   7.268   5.027   1.407  0.9145 -1.6444 -0.9957
26782SOL     OW80923   3.113   6.725   9.210  0.7984 -0.1480 -0.2016
26782SOL    HW180924   3.106   6.808   9.163  2.1366 -0.0252 -0.2049
26782SOL    HW280925   3.054   6.666   9.163  0.6854  0.4846 -0.8767
26783SOL     OW80926   6.654   9.033   4.412 -0.4532  0.2133  0.7792
26783SOL    HW180927   6.600   9.086   4.471 -3.5678 -1.8221 -0.0574
26783SOL    HW280928   6.670   8.952   4.461  1.6104  0.5885  0.8257
26784SOL     OW80929   4.913   3.256   8.724  0.0088  0.2243  0.1509
26784SOL    HW180930   4.942   3.228   8.810 -2.0202 -0.8627  0.5332
26784SOL    HW280931   4.875   3.343   8.738  1.2200  0.8000 -0.0001
26785SOL     OW80932   7.361   6.794   3.078 -0.1411  0.0102 -0.4745
26785SOL    HW180933   7.378   6.848   3.154  1.1943 -0.7234 -0.2150
26785SOL    HW280934   7.366   6.704   3.110  1.8521 -0.3720 -1.6112
26786SOL     OW80935   7.143   2.139   3.765  0.1944 -0.0350  0.0208
26786SOL    HW180936   7.218   2.085   3.791  0.1919 -0.1400 -0.1882
26786SOL    HW280937   7.097   2.086   3.700 -0.0329  0.0528  0.1111
26787SOL     OW80938   0.086   3.936   4.173  0.1782  0.6666  0.5578
26787SOL    HW180939   0.162   3.879   4.166  1.0013  1.7367  0.4399
26787SOL    HW280940   0.117   4.021   4.140 -0.2470  1.8614  3.0281
26788SOL     OW80941   8.372   6.524   4.840 -0.5077  0.3121  0.1250
26788SOL    HW180942   8.320   6.602   4.855  0.8336  0.7589  3.0569
26788SOL    HW280943   8.433   6.548   4.770 -1.6360  1.0467 -0.6332
26789SOL     OW80944   1.130   5.896   2.150 -0.0356 -0.6203  0.2163
26789SOL    HW180945   1.168   5.982   2.164  1.7619 -1.4666  0.8708
26789SOL    HW280946   1.205   5.837   2.141 -1.1348 -2.4945  2.1935
26790SOL     OW80947   9.935   6.810   3.408 -0.0598  0.2236  0.3075
26790SOL    HW180948   9.859   6.768   3.369 -0.6581  2.0044 -0.5344
26790SOL    HW280949   9.914   6.818   3.500  0.2225 -1.5727  0.5719
26791SOL     OW80950   8.199   9.768   3.861  0.0546  0.2854 -0.0376
26791SOL    HW180951   8.129   9.750   3.798 -1.1892 -0.5731  1.5035
26791SOL    HW280952   8.280   9.746   3.815 -0.7369  0.5954 -1.6264
26792SOL     OW80953   3.902   3.843   3.074  0.3115  0.1716 -0.1478
26792SOL    HW180954   3.966   3.809   3.012  1.5022  0.3621  0.9149
26792SOL    HW280955   3.955   3.883   3.143 -0.9115 -0.8945  1.4867
26793SOL     OW80956   3.912   9.721   6.429 -0.5313 -0.4155 -0.1605
26793SOL    HW180957   3.842   9.760   6.481 -1.4138 -1.3104 -0.6514
26793SOL    HW280958   3.993   9.753   6.470 -1.2120  0.6981  0.3657
26794SOL     OW80959   9.270   7.093   3.431  0.8857  0.0576  0.5254
26794SOL    HW180960   9.330   7.165   3.414  0.8841 -0.1144 -0.2254
26794SOL    HW280961   9.188   7.119   3.389  0.4665  0.2225  1.4083
26795SOL     OW80962   9.022   2.524   9.907  0.5656 -0.2835  0.0984
26795SOL    HW180963   9.041   2.494   9.995  1.1795  0.2341  0.1535
26795SOL    HW280964   9.100   2.573   9.881 -0.3492  1.1927 -0.0101
26796SOL     OW80965   8.413   8.693   9.299  0.3744  0.2248  0.0689
26796SOL    HW180966   8.473   8.624   9.271  0.7536  0.3829  0.4864
26796SOL    HW280967   8.406   8.750   9.222 -1.1496 -1.0665 -0.8288
26797SOL     OW80968   3.703   8.363   9.344 -0.4957 -0.0797 -0.3776
26797SOL    HW180969   3.655   8.283   9.364 -0.0429 -0.0671  0.8654
26797SOL    HW280970   3.704   8.412   9.427  1.9967 -0.2709 -0.2126
26798SOL     OW80971   2.624   8.764   0.196  0.7143 -0.8796 -0.2146
26798SOL    HW180972   2.597   8.717   0.274 -1.4441  2.5396  1.3184
26798SOL    HW280973   2.704   8.811   0.223  0.2183 -0.0473 -0.1584
26799SOL     OW80974   7.825   2.373   9.434  0.1821 -0.8229 -0.2896
26799SOL    HW180975   7.919   2.384   9.447 -0.1802  1.9813  0.7136
26799SOL    HW280976   7.794   2.330   9.513  0.4319 -0.3424  0.0734
26800SOL     OW80977   7.345   8.859   9.827 -0.1038  0.3369  0.4360
26800SOL    HW180978   7.284   8.857   9.901 -0.0025  1.0761  0.5414
26800SOL    HW280979   7.428   8.885   9.866  0.6364 -1.9344  0.5389
26801SOL     OW80980   0.520   1.729   5.172  0.2030  0.1807 -0.0136
26801SOL    HW180981   0.546   1.680   5.095 -1.4608 -0.4782 -0.1740
26801SOL    HW280982   0.461   1.671   5.220 -0.2080  1.2506  0.8324
26802SOL     OW80983   2.011   6.582   9.745  0.5238  0.2163 -0.5542
26802SOL    HW180984   2.004   6.677   9.732 -1.3132  0.1080 -0.5547
26802SOL    HW280985   1.949   6.562   9.815  1.5128 -0.8843  0.0387
26803SOL     OW80986   6.354   3.855   4.297 -0.0890 -0.0663  0.0231
26803SOL    HW180987   6.338   3.795   4.224 -1.5516  0.9511 -0.5358
26803SOL    HW280988   6.278   3.845   4.355  0.6385 -0.2258  0.9763
26804SOL     OW80989   0.058   8.770   3.254 -0.2917  0.0358  0.9631
26804SOL    HW180990   0.134   8.798   3.306 -0.8142 -0.2619  1.9177
26804SOL    HW280991   0.074   8.806   3.167  0.4031  0.9152  1.4333
26805SOL     OW80992   0.947   6.384   2.343 -0.4434  0.1861 -0.7319
26805SOL    HW180993   0.925   6.473   2.372  0.7613  1.0733 -2.3901
26805SOL    HW280994   1.007   6.397   2.270 -1.7872 -1.9650 -2.3293
26806SOL     OW80995   7.713   6.880   5.395 -0.3552  0.0425  0.1963
26806SOL    HW180996   7.638   6.830   5.360 -1.9390  0.2303  3.0326
26806SOL    HW280997   7.700   6.969   5.361 -1.1596 -0.0447  0.2450
26807SOL     OW80998   0.016   0.542   2.651 -0.2748 -0.5767  0.1471
26807SOL    HW180999  -0.034   0.612   2.692  1.8148 -0.2211  2.2816
26807SOL    HW281000   0.087   0.587   2.605 -1.5250 -1.0957 -2.4523
26808SOL     OW81001   8.077   9.778   3.617  0.3361  0.3675  0.7228
26808SOL    HW181002   8.038   9.791   3.531 -2.1147  0.7765  1.8107
26808SOL    HW281003   8.119   9.692   3.612 -0.5192  0.0072 -0.6347
26809SOL     OW81004   7.059   8.795   1.624  0.2104 -0.3642  0.0089
26809SOL    HW181005   7.147   8.811   1.590  0.0202  2.7740  0.6559
26809SOL    HW281006   7.044   8.868   1.684 -2.5792 -1.2224  0.4631
26810SOL     OW81007   5.525   7.860   3.165 -0.1405 -0.5905  0.0602
26810SOL    HW181008   5.511   7.771   3.197 -0.3175 -0.3516  0.6422
26810SOL    HW281009   5.438   7.899   3.163 -0.1148 -0.5456 -0.5609
26811SOL     OW81010   7.879   4.398   2.025  0.2483  0.3042 -0.2428
26811SOL    HW181011   7.809   4.413   1.962  0.9868 -0.0718 -1.1812
26811SOL    HW281012   7.935   4.333   1.983 -0.3244 -1.5386  1.6609
26812SOL     OW81013   2.637   2.338   7.944  0.0547 -0.0805  0.1266
26812SOL    HW181014   2.601   2.405   7.886 -0.4804 -1.1298 -0.7885
26812SOL    HW281015   2.700   2.384   7.998 -0.6179  1.2456 -0.1844
26813SOL     OW81016   9.607   5.158   1.435  0.3049 -0.6653  0.5252
26813SOL    HW181017   9.624   5.121   1.521  1.5695 -1.8001 -0.1680
26813SOL    HW281018   9.577   5.084   1.382  2.3788 -0.6639 -0.7535
26814SOL     OW81019   2.205   6.269   9.031  0.9382  0.3143 -0.0045
26814SOL    HW181020   2.168   6.255   9.118 -0.2968 -0.1171 -0.5790
26814SOL    HW281021   2.172   6.195   8.979  0.7105  1.1958 -1.1393
26815SOL     OW81022   1.033   6.786   3.480  0.0489  0.3782  0.1129
26815SOL    HW181023   1.116   6.764   3.522  0.3089 -0.3476 -0.7430
26815SOL    HW281024   1.008   6.706   3.434  0.0746  1.3073 -1.5935
26816SOL     OW81025   9.640   0.745   2.596  0.1234  0.3462  0.2077
26816SOL    HW181026   9.570   0.703   2.646  1.7353 -0.9796  1.4763
26816SOL    HW281027   9.656   0.684   2.523  0.7341  0.0323  0.5958
26817SOL     OW81028   6.747   6.221   1.332 -0.3607  0.2235 -0.2537
26817SOL    HW181029   6.677   6.285   1.336  0.1180  0.7645 -0.4500
26817SOL    HW281030   6.707   6.144   1.291 -1.0033  0.2993  0.2197
26818SOL     OW81031   4.266   1.470   9.261 -0.1673 -0.1467  0.1200
26818SOL    HW181032   4.189   1.419   9.236 -0.1959 -0.4695  0.8498
26818SOL    HW281033   4.231   1.541   9.316 -0.1465  0.7570 -0.9930
26819SOL     OW81034   8.738   2.492   4.358  0.2569 -0.1809 -0.0640
26819SOL    HW181035   8.674   2.477   4.427 -0.4669  2.2775 -0.1112
26819SOL    HW281036   8.697   2.459   4.279 -0.6458  0.6159  0.0502
26820SOL     OW81037   5.375   9.157   2.954  0.0338  0.0557 -0.2835
26820SOL    HW181038   5.333   9.097   2.892  2.1548 -1.0544 -0.7415
26820SOL    HW281039   5.416   9.223   2.898 -0.8338  0.9788  0.1403
26821SOL     OW81040   3.944   1.931   0.510 -0.3711  0.6897  0.0016
26821SOL    HW181041   4.035   1.939   0.541  0.0111  0.6394 -1.0658
26821SOL    HW281042   3.949   1.951   0.417 -1.5155  0.9631 -0.0072
26822SOL     OW81043   6.037   3.601   4.634  0.2905  0.0627  0.0563
26822SOL    HW181044   6.070   3.513   4.652 -0.3755  0.1932  2.2335
26822SOL    HW281045   5.946   3.588   4.606  0.6073 -0.0135 -0.9418
26823SOL     OW81046   7.677   8.535   8.730  0.1472 -0.1376  0.1465
26823SOL    HW181047   7.762   8.569   8.760 -0.0962  0.8515 -0.2260
26823SOL    HW281048   7.617   8.609   8.740 -0.3491 -0.3584 -0.9716
26824SOL     OW81049   2.786   5.413   9.622 -0.0184  0.0427 -0.2273
26824SOL    HW181050   2.857   5.475   9.641 -0.8357  1.1217 -0.5749
26824SOL    HW281051   2.770   5.369   9.706  0.6983  0.1543 -0.0186
26825SOL     OW81052   1.635   2.671   1.575 -0.0944 -0.1905  0.1285
26825SOL    HW181053   1.558   2.633   1.532 -0.5688 -0.8814  1.5027
26825SOL    HW281054   1.709   2.622   1.539  0.0252  1.8886 -2.7916
26826SOL     OW81055   7.406   0.076   3.658 -0.1210 -0.2587 -0.0466
26826SOL    HW181056   7.461   0.084   3.580 -0.2719 -0.9319 -0.2281
26826SOL    HW281057   7.323   0.042   3.626 -0.4641  0.2249  0.3043
26827SOL     OW81058   5.800   3.043   8.010 -0.9708 -0.3685 -0.2050
26827SOL    HW181059   5.816   3.114   8.072  0.6323 -0.2056 -0.7580
26827SOL    HW281060   5.794   3.086   7.925 -1.8139 -0.7257 -0.3344
26828SOL     OW81061   6.506   0.476   8.742 -0.5011 -0.2473 -0.0104
26828SOL    HW181062   6.448   0.467   8.818  1.1572 -0.1392  1.3262
26828SOL    HW281063   6.580   0.527   8.774  0.8807 -1.3262 -1.3270
26829SOL     OW81064   8.998   9.263   4.459  0.6276 -0.1066  0.4089
26829SOL    HW181065   9.014   9.171   4.479  0.7706 -0.3582 -0.7592
26829SOL    HW281066   9.085   9.301   4.449  0.5897  0.3691  1.6985
26830SOL     OW81067   2.806   9.235   0.325  0.1397  0.2012 -0.4276
26830SOL    HW181068   2.878   9.225   0.387  0.3140 -0.3885 -0.7184
26830SOL    HW281069   2.729   9.205   0.372 -0.2342  2.3788  0.4647
26831SOL     OW81070   5.448   2.675   0.391  0.2508  0.3799  0.7806
26831SOL    HW181071   5.505   2.746   0.361  0.8778  0.4467  2.0582
26831SOL    HW281072   5.507   2.611   0.430 -0.5160  0.3249  1.8873
26832SOL     OW81073   1.528   6.695   3.611 -0.3790 -0.3534  0.0143
26832SOL    HW181074   1.463   6.644   3.659  0.1311 -0.6949  0.3533
26832SOL    HW281075   1.494   6.700   3.522 -0.9178 -0.4379  0.2129
26833SOL     OW81076   9.736   8.009   1.624 -0.0617  0.0246 -0.1732
26833SOL    HW181077   9.687   7.997   1.705 -1.1024  0.3704 -0.7395
26833SOL    HW281078   9.803   7.941   1.627 -0.3557 -0.2472  0.7634
26834SOL     OW81079   5.392   0.136   4.418 -0.1789 -0.1046 -0.0187
26834SOL    HW181080   5.429   0.162   4.502  0.5522 -0.1538 -0.3218
26834SOL    HW281081   5.460   0.083   4.376 -1.2645 -1.7012  0.1588
26835SOL     OW81082   0.918   6.342   4.820  0.2598 -0.0516  0.3207
26835SOL    HW181083   0.952   6.424   4.785 -2.3659  1.0680  0.1736
26835SOL    HW281084   0.943   6.344   4.913  0.1647  0.9512  0.3389
26836SOL     OW81085   4.667   3.431   7.773  0.2907 -0.0006  0.2539
26836SOL    HW181086   4.734   3.411   7.708  0.5793  0.1785  0.4888
26836SOL    HW281087   4.701   3.395   7.855  0.6596  1.1196  0.6120
26837SOL     OW81088   9.455   5.422   4.166  0.6205 -0.0727  0.1825
26837SOL    HW181089   9.493   5.388   4.085  1.4870 -0.9885  0.9460
26837SOL    HW281090   9.528   5.428   4.227 -0.2572 -0.9492  1.3884
26838SOL     OW81091   9.018   3.255   2.581  0.6007 -0.4015 -0.4364
26838SOL    HW181092   8.945   3.205   2.545 -0.4584  0.5166  0.3531
26838SOL    HW281093   8.996   3.266   2.674  0.5007  1.9387 -0.6700
26839SOL     OW81094   7.651   9.237   1.769  0.0529  0.2567 -0.0688
26839SOL    HW181095   7.670   9.329   1.788  0.3815 -0.2018  2.0204
26839SOL    HW281096   7.727   9.206   1.721  0.3929  0.8325  0.0880
26840SOL     OW81097   4.746   0.180   7.308 -0.3527 -0.2781  0.0153
26840SOL    HW181098   4.724   0.257   7.361 -0.8259 -0.3591 -0.0585
26840SOL    HW281099   4.839   0.165   7.324 -0.8850 -1.5276  2.4435
26841SOL     OW81100   9.679   7.177   7.042  0.0077 -0.3880 -0.6452
26841SOL    HW181101   9.586   7.170   7.021 -0.0848  0.1725 -0.4278
26841SOL    HW281102   9.682   7.233   7.119  0.5416 -0.2243 -0.7837
26842SOL     OW81103   4.570   4.893   2.498  0.7590  0.4666  0.1789
26842SOL    HW181104   4.635   4.824   2.510  2.1359  1.7388  0.3891
26842SOL    HW281105   4.616   4.960   2.447 -0.3936  1.4156  0.3546
26843SOL     OW81106   2.094   6.558   4.063  0.2024  0.1429 -0.0270
26843SOL    HW181107   2.125   6.565   4.153  1.7041 -1.0459 -0.3948
26843SOL    HW281108   2.174   6.547   4.011 -0.6743  0.0135 -1.4050
26844SOL     OW81109   7.130   7.874   8.847 -0.5376  0.2769 -0.3047
26844SOL    HW181110   7.041   7.910   8.851 -1.0930 -1.1500  0.8872
26844SOL    HW281111   7.119   7.789   8.805  0.4533  0.5321 -1.1228
26845SOL     OW81112   4.782   8.720   4.220 -0.4272  0.3888  0.5192
26845SOL    HW181113   4.796   8.640   4.169 -1.7134  1.0786 -0.9756
26845SOL    HW281114   4.861   8.772   4.205  0.6686 -0.7685  1.9423
26846SOL     OW81115   1.158   6.349   1.105  0.7295 -0.2187 -0.4672
26846SOL    HW181116   1.233   6.390   1.061  1.1789 -1.6034 -1.0454
26846SOL    HW281117   1.170   6.368   1.197  1.6670 -0.2201 -0.5855
26847SOL     OW81118   3.562   5.325   6.337 -0.0378  0.2630  0.3064
26847SOL    HW181119   3.607   5.363   6.413  1.5208 -0.9144  0.0330
26847SOL    HW281120   3.589   5.234   6.337  1.0159  0.4866 -2.3409
26848SOL     OW81121   8.314   8.305   3.285 -0.0178 -0.4827  0.1804
26848SOL    HW181122   8.339   8.304   3.377  1.5267  0.0378 -0.2088
26848SOL    HW281123   8.292   8.397   3.268  0.3589 -0.4553 -0.1461
26849SOL     OW81124   7.108   0.309   0.351  0.5328  0.4851 -0.1229
26849SOL    HW181125   7.132   0.263   0.432  1.5388 -0.8522 -1.1223
26849SOL    HW281126   7.111   0.402   0.374 -0.2830  0.1170  1.6403
26850SOL     OW81127   0.577   8.141   3.442 -0.2976 -0.5293 -0.2467
26850SOL    HW181128   0.630   8.201   3.390 -0.5080 -0.2030 -0.0898
26850SOL    HW281129   0.604   8.158   3.532  1.5559 -2.5319 -0.3606
26851SOL     OW81130   4.524   4.279   5.086  0.8328 -0.2269 -0.0615
26851SOL    HW181131   4.539   4.239   5.171 -0.9071 -1.8768 -0.4532
26851SOL    HW281132   4.562   4.218   5.023  2.1016  0.9757 -0.5013
26852SOL     OW81133   0.032   5.398   9.319 -0.0451  0.5605  0.9042
26852SOL    HW181134   0.103   5.460   9.339 -0.7496  1.3206  1.1294
26852SOL    HW281135  -0.042   5.430   9.371 -0.4312 -0.4726  1.0070
26853SOL     OW81136   8.299   3.441   3.004  0.3388  0.3045 -0.3004
26853SOL    HW181137   8.232   3.509   3.018 -1.1959 -1.2091  0.0428
26853SOL    HW281138   8.370   3.464   3.064 -1.5092 -0.0680  2.1590
26854SOL     OW81139   1.055   7.420   0.818  0.3486  0.4976 -0.5037
26854SOL    HW181140   1.128   7.448   0.763 -0.4621  0.7394 -1.4850
26854SOL    HW281141   1.052   7.484   0.889  0.3661  1.1700 -1.0972
26855SOL     OW81142   4.706   0.615   1.924  0.1183 -0.5078 -0.6374
26855SOL    HW181143   4.788   0.626   1.875 -1.0224  1.3814 -2.3014
26855SOL    HW281144   4.647   0.572   1.863 -0.3157 -1.3963  0.3719
26856SOL     OW81145   7.460   1.805   8.933 -0.0006  0.1433  0.4815
26856SOL    HW181146   7.420   1.736   8.988  1.0300 -1.7296 -0.9904
26856SOL    HW281147   7.386   1.859   8.905 -0.9976 -0.9474  0.8962
26857SOL     OW81148   5.575   4.591   5.846 -0.1257  0.3846 -0.5292
26857SOL    HW181149   5.541   4.577   5.935  0.6161 -0.0851 -0.3110
26857SOL    HW281150   5.557   4.508   5.801 -1.5701  1.0223 -1.1890
26858SOL     OW81151   9.572   1.004   9.081  0.1754  0.4400 -0.7178
26858SOL    HW181152   9.530   0.925   9.117 -0.5427  0.3360 -1.7506
26858SOL    HW281153   9.546   1.074   9.141  0.8628 -0.0907  0.2470
26859SOL     OW81154   1.305   8.763   6.847 -0.4429  1.4398  0.2873
26859SOL    HW181155   1.345   8.787   6.763  1.2864  1.8291  1.1769
26859SOL    HW281156   1.324   8.837   6.904 -1.5476  1.1505  1.0578
26860SOL     OW81157   2.677   6.318   8.538 -0.3479 -0.4001  0.5305
26860SOL    HW181158   2.737   6.353   8.604 -0.5429  1.3523 -0.1632
26860SOL    HW281159   2.591   6.351   8.565 -0.2839  1.3449 -1.1546
26861SOL     OW81160   9.179   4.281   9.485  0.4512 -0.3172 -0.1077
26861SOL    HW181161   9.103   4.239   9.525 -0.1313  0.8765  0.0903
26861SOL    HW281162   9.219   4.332   9.555  1.9082 -1.5156 -0.0166
26862SOL     OW81163   2.328   3.153   6.812  0.6577  0.2974 -0.1202
26862SOL    HW181164   2.380   3.153   6.892  0.8799  0.0070 -0.2620
26862SOL    HW281165   2.240   3.130   6.840  1.1293 -1.8674 -0.1966
26863SOL     OW81166   3.830   4.050   2.046 -0.2010 -0.8533  0.1965
26863SOL    HW181167   3.756   4.096   2.007 -0.3083 -0.9345  0.3045
26863SOL    HW281168   3.872   4.005   1.973  0.4610  0.1643 -0.0832
26864SOL     OW81169   5.554   4.202   2.528 -0.6285  0.0099 -0.4716
26864SOL    HW181170   5.586   4.229   2.442 -1.9152 -0.5350 -1.1529
26864SOL    HW281171   5.579   4.274   2.586  1.4978 -0.2410 -0.9885
26865SOL     OW81172   1.937   2.744   5.342  0.3309 -0.2527  0.2898
26865SOL    HW181173   2.025   2.770   5.318  0.0782  1.6851  1.2656
26865SOL    HW281174   1.923   2.661   5.296  2.5505 -0.4950 -0.0487
26866SOL     OW81175   3.549   9.951   8.575  0.4749  0.5195  0.0586
26866SOL    HW181176   3.458   9.975   8.560  0.6133  0.7743 -0.4272
26866SOL    HW281177   3.549   9.905   8.658  0.0471  1.3539  0.5387
26867SOL     OW81178   7.789   7.387   5.759 -0.0677  0.3798  0.4240
26867SOL    HW181179   7.799   7.339   5.841  1.7075 -0.8373 -0.4551
26867SOL    HW281180   7.788   7.319   5.692 -2.4539  1.2799 -0.5542
26868SOL     OW81181   7.933   0.401   9.216  0.5384  0.1531 -0.3828
26868SOL    HW181182   8.027   0.384   9.207  0.2052 -1.2262 -1.7829
26868SOL    HW281183   7.898   0.320   9.253 -0.0153  0.9229  0.8241
26869SOL     OW81184   9.281   6.173   1.077 -0.0144  0.1935 -0.5568
26869SOL    HW181185   9.335   6.230   1.023 -0.1118  0.6469 -0.1759
26869SOL    HW281186   9.204   6.225   1.099 -1.0050 -0.7052 -1.7507
26870SOL     OW81187   4.260   6.842   2.909  0.4115 -0.1263 -0.0299
26870SOL    HW181188   4.327   6.827   2.975  0.1645  0.4143  0.3582
26870SOL    HW281189   4.257   6.761   2.858  0.7368 -0.4786  0.5008
26871SOL     OW81190   2.905   9.125   6.147 -0.2648 -0.2362  0.3648
26871SOL    HW181191   2.999   9.142   6.140 -0.2712 -0.9097 -2.1975
26871SOL    HW281192   2.899   9.050   6.207  0.5918  1.2145  2.3865
26872SOL     OW81193   5.422   5.782   5.393 -0.3669 -0.1251 -0.1763
26872SOL    HW181194   5.344   5.730   5.410 -1.8582  1.9210 -0.3036
26872SOL    HW281195   5.476   5.772   5.471 -0.9672 -1.1985  0.1175
26873SOL     OW81196   2.991   8.424   3.265 -0.1250  0.5867  0.0144
26873SOL    HW181197   2.900   8.397   3.256  0.3728 -2.2429  2.0746
26873SOL    HW281198   3.022   8.431   3.174 -1.7914 -0.7082 -0.7317
26874SOL     OW81199   1.891   1.874   0.268 -0.1748  0.5040 -0.2483
26874SOL    HW181200   1.953   1.849   0.200  2.9451 -0.9346  2.7929
26874SOL    HW281201   1.915   1.964   0.290  0.8326  0.0148  0.7888
26875SOL     OW81202   5.948   1.321   5.162 -0.5464 -1.0419 -0.2085
26875SOL    HW181203   5.960   1.257   5.092 -0.9263 -1.1259 -0.1969
26875SOL    HW281204   6.028   1.374   5.159 -0.4035 -1.2663 -0.4736
26876SOL     OW81205   0.967   7.869   6.255 -0.0947  0.6444 -0.0280
26876SOL    HW181206   0.958   7.774   6.260 -0.5791  0.6958  0.1688
26876SOL    HW281207   0.969   7.898   6.347  1.0766  0.7404 -0.0735
26877SOL     OW81208   1.149   3.650   9.353 -0.3275 -0.0767 -0.6751
26877SOL    HW181209   1.069   3.609   9.385  0.9550 -2.4278 -0.2765
26877SOL    HW281210   1.219   3.611   9.405  1.2120  0.9815 -1.8377
26878SOL     OW81211   2.359   5.727   7.691 -0.3200 -0.3174 -0.6771
26878SOL    HW181212   2.352   5.632   7.690 -0.3304 -0.4708  2.4206
26878SOL    HW281213   2.273   5.757   7.723  0.1262  0.5996 -0.2878
26879SOL     OW81214   2.148   6.548   0.816  0.1209  0.0378 -0.7915
26879SOL    HW181215   2.214   6.484   0.786  0.4869  0.1536 -0.2466
26879SOL    HW281216   2.068   6.496   0.826  0.6632 -0.5620  0.6337
26880SOL     OW81217   9.285   4.761   3.260 -0.6126 -0.3753  0.2928
26880SOL    HW181218   9.239   4.754   3.344 -2.1933 -0.5201 -0.5653
26880SOL    HW281219   9.218   4.748   3.194  1.1412 -3.8076 -1.0260
26881SOL     OW81220   6.411   2.323   5.229 -0.1567 -0.1164 -0.5191
26881SOL    HW181221   6.487   2.266   5.218 -0.7214 -0.8635 -0.6829
26881SOL    HW281222   6.343   2.265   5.263 -0.3286  0.7789  0.7110
26882SOL     OW81223   9.084   0.618   4.324 -0.0880  0.2194 -0.4967
26882SOL    HW181224   8.996   0.609   4.362  0.1136  1.3148  0.2963
26882SOL    HW281225   9.143   0.586   4.391  0.2603  1.9815  0.1019
26883SOL     OW81226   6.440   2.587   3.161 -0.3670  0.1285 -0.9533
26883SOL    HW181227   6.498   2.529   3.112  1.0447  0.1500  0.5814
26883SOL    HW281228   6.499   2.655   3.197 -0.8565 -1.0455  2.4676
26884SOL     OW81229   0.997   1.852   0.127 -0.2723 -1.0497  0.1944
26884SOL    HW181230   0.957   1.871   0.212  1.9811 -1.2802  1.3817
26884SOL    HW281231   0.977   1.928   0.073  1.5943  1.0530  2.2280
26885SOL     OW81232   7.561   0.445   9.143 -0.7309  0.0072  0.5810
26885SOL    HW181233   7.560   0.530   9.187  0.2194 -0.0905  0.8157
26885SOL    HW281234   7.590   0.383   9.210  0.6564 -0.1625 -0.1255
26886SOL     OW81235   1.401   4.306   3.857 -0.3666  0.7219  0.0297
26886SOL    HW181236   1.418   4.377   3.919  1.3800 -0.5432  1.0931
26886SOL    HW281237   1.325   4.260   3.894  0.4236  0.2063  1.0761
26887SOL     OW81238   9.774   6.058   1.152 -0.1794  0.5323  0.2120
26887SOL    HW181239   9.751   6.086   1.064  1.2458  0.2601 -0.2635
26887SOL    HW281240   9.711   5.988   1.172 -3.1785  3.2339  1.0700
26888SOL     OW81241   5.425   2.108   5.274  0.3020  0.3097  0.3704
26888SOL    HW181242   5.467   2.114   5.188  1.5277  0.8383  0.9836
26888SOL    HW281243   5.373   2.188   5.281  0.1513  0.2360  0.0999
26889SOL     OW81244   9.788   7.098   8.037 -0.1037  0.5933 -0.3059
26889SOL    HW181245   9.793   7.156   7.961 -1.2093  0.0134 -0.8632
26889SOL    HW281246   9.826   7.015   8.006  1.9890  1.1393  0.6557
26890SOL     OW81247   8.040   3.619   2.361 -0.2597 -0.0041 -0.2995
26890SOL    HW181248   7.948   3.599   2.343 -0.5225  0.9897 -0.1195
26890SOL    HW281249   8.045   3.714   2.354  0.8515 -0.0859 -0.7311
26891SOL     OW81250   6.193   5.367   4.061 -0.4689  0.0747 -0.5806
26891SOL    HW181251   6.265   5.317   4.099 -0.2592  0.4578 -0.4573
26891SOL    HW281252   6.197   5.347   3.967 -0.3548 -0.0954 -0.5393
26892SOL     OW81253   1.016   7.843   3.807 -0.1486  0.5743 -0.2864
26892SOL    HW181254   1.065   7.910   3.855 -0.8869  0.5532  0.5229
26892SOL    HW281255   0.951   7.893   3.757 -0.7286  0.4696  0.3521
26893SOL     OW81256   4.306   2.212   5.675 -0.3652  0.3243  0.3192
26893SOL    HW181257   4.338   2.183   5.760 -1.6349  1.1501  1.1111
26893SOL    HW281258   4.309   2.133   5.620  1.2715 -0.0192  0.8655
26894SOL     OW81259   5.490   9.920   4.738 -0.5468  0.2419  0.2447
26894SOL    HW181260   5.488  10.015   4.730  0.5008  0.1340 -3.0254
26894SOL    HW281261   5.560   9.902   4.800  1.6580  1.6563 -1.6543
26895SOL     OW81262   9.294   2.036   3.621  0.0141 -0.2817 -0.5694
26895SOL    HW181263   9.233   1.963   3.633  0.8859 -1.1455 -1.2143
26895SOL    HW281264   9.379   2.001   3.646  0.7053  0.0166 -2.3587
26896SOL     OW81265   9.374   6.184   9.235 -0.4448 -0.2376  0.2347
26896SOL    HW181266   9.426   6.239   9.293 -0.0398  0.1579 -0.4941
26896SOL    HW281267   9.418   6.190   9.150 -2.5631  1.4292 -0.8292
26897SOL     OW81268   0.633   8.815   4.983 -0.8964  0.2369  0.2365
26897SOL    HW181269   0.651   8.853   5.069 -0.8008 -0.4382  0.5242
26897SOL    HW281270   0.668   8.726   4.989 -3.6817 -0.9156  0.5802
26898SOL     OW81271   6.531   5.359   7.641  0.1940  0.3351 -0.4443
26898SOL    HW181272   6.567   5.281   7.598  0.8819  0.6320 -0.4189
26898SOL    HW281273   6.442   5.366   7.606  1.2496  1.5524 -3.2233
26899SOL     OW81274   5.186   4.014   4.229 -0.0185 -0.4365  0.7108
26899SOL    HW181275   5.213   4.106   4.229  0.6317 -0.6201  0.7040
26899SOL    HW281276   5.217   3.980   4.314 -2.3802 -0.0630  1.7927
26900SOL     OW81277   1.490   4.299   7.498  0.1895 -0.1310  0.6606
26900SOL    HW181278   1.526   4.223   7.453 -0.0218  0.1137  0.0677
26900SOL    HW281279   1.414   4.325   7.446 -0.4837 -0.2599  1.5394
26901SOL     OW81280   9.011   8.265   4.298  0.1229 -0.0341 -0.1833
26901SOL    HW181281   9.073   8.265   4.225  0.1385  2.9180 -0.2614
26901SOL    HW281282   9.054   8.316   4.367 -2.0128  1.7834 -0.0949
26902SOL     OW81283   1.925   6.995   2.280 -0.6982  0.1031 -0.1886
26902SOL    HW181284   2.014   6.960   2.282 -0.0462  1.6993  0.1426
26902SOL    HW281285   1.870   6.924   2.314  0.7610 -0.0463  2.0601
26903SOL     OW81286   0.064   5.127   7.171  0.3854 -0.1220 -0.0571
26903SOL    HW181287   0.052   5.219   7.195 -2.9016 -0.2295 -0.8361
26903SOL    HW281288   0.089   5.084   7.253  0.1159  1.1930  0.7387
26904SOL     OW81289   6.258   6.936   6.711  0.2785  0.5245  0.0743
26904SOL    HW181290   6.348   6.930   6.743 -0.0113  1.0364  1.0320
26904SOL    HW281291   6.204   6.939   6.791 -0.6921 -0.9614 -0.4599
26905SOL     OW81292   9.878   2.604   4.069 -0.1368 -0.2879 -0.5630
26905SOL    HW181293   9.940   2.607   4.142 -0.4049  0.5654 -0.3548
26905SOL    HW281294   9.929   2.571   3.995  0.0879 -1.3401  0.0465
26906SOL     OW81295   8.830   0.052   3.340  0.1752 -0.3449 -0.5228
26906SOL    HW181296   8.886   0.006   3.277  0.0373  0.3518 -1.1607
26906SOL    HW281297   8.754   0.079   3.289  0.1869  0.4676 -0.1179
26907SOL     OW81298   5.016   8.934   7.318  0.1858  0.1687 -0.4834
26907SOL    HW181299   4.958   8.881   7.373 -0.5349  0.1847 -1.2128
26907SOL    HW281300   5.098   8.937   7.367 -0.0393 -0.8751 -0.0040
26908SOL     OW81301   2.580   7.217   3.995  0.5695 -0.1821  0.2236
26908SOL    HW181302   2.638   7.250   4.063  0.1229  1.2449 -0.0385
26908SOL    HW281303   2.638   7.196   3.922  0.8072  1.1882 -0.0199
26909SOL     OW81304   1.490   3.292   3.723  0.2152  0.4279  0.1610
26909SOL    HW181305   1.501   3.317   3.631 -1.2804  1.5810  0.2404
26909SOL    HW281306   1.484   3.197   3.722  1.6352  0.3156 -0.7393
26910SOL     OW81307   5.493   3.075   0.591  0.7409 -0.1884  0.0874
26910SOL    HW181308   5.540   3.048   0.512 -1.1605 -1.9375 -0.5228
26910SOL    HW281309   5.530   3.021   0.660  1.3471  0.2479  0.1126
26911SOL     OW81310   9.876   7.179   9.692 -0.0772 -0.1432 -0.0320
26911SOL    HW181311   9.908   7.262   9.728  0.9092 -0.3997 -0.2961
26911SOL    HW281312   9.793   7.202   9.650 -0.2636  0.5330  0.6784
26912SOL     OW81313   1.494   8.430   5.370  0.0349 -0.2915 -0.8767
26912SOL    HW181314   1.468   8.481   5.447 -0.7668 -0.3863 -1.0791
26912SOL    HW281315   1.544   8.357   5.406 -0.2280 -0.2674 -0.4508
26913SOL     OW81316   5.506   6.351   5.403  0.7055  0.3259  0.2083
26913SOL    HW181317   5.507   6.260   5.432 -0.5700  0.4159  0.5975
26913SOL    HW281318   5.569   6.395   5.460 -1.0707  0.3148  2.2742
26914SOL     OW81319   8.414   6.944   7.140  0.5614 -0.0202  0.4564
26914SOL    HW181320   8.346   6.987   7.089  0.0839 -1.0574  0.1861
26914SOL    HW281321   8.472   6.904   7.074  0.5747 -0.4148  0.7010
26915SOL     OW81322   4.115   4.064   3.012  0.0633  0.3088  0.1215
26915SOL    HW181323   4.184   4.000   2.994  0.1840  0.4926 -0.0690
26915SOL    HW281324   4.080   4.038   3.097  0.9325  0.7229  0.6063
26916SOL     OW81325   1.471   4.137   7.044 -0.0076  0.3091 -0.1997
26916SOL    HW181326   1.523   4.153   7.123  0.7382 -1.7997 -0.2179
26916SOL    HW281327   1.525   4.081   6.990 -0.6516  1.4386 -2.1178
26917SOL     OW81328   4.876   5.439   2.889  0.4087  0.0897 -0.5446
26917SOL    HW181329   4.955   5.489   2.867  0.2372 -0.4431 -2.5646
26917SOL    HW281330   4.804   5.499   2.869  0.2423  0.5897  1.3362
26918SOL     OW81331   9.574   0.684   6.553 -0.9502  0.2875 -0.0507
26918SOL    HW181332   9.531   0.705   6.471  1.2302 -0.2589 -1.4059
26918SOL    HW281333   9.591   0.770   6.594 -2.7598  0.5302  0.2960
26919SOL     OW81334   7.544   2.093   7.789 -0.0828 -0.5135 -0.2085
26919SOL    HW181335   7.455   2.125   7.806  0.5550  0.4641  1.5605
26919SOL    HW281336   7.547   2.080   7.695 -1.5814  1.0227 -0.5246
26920SOL     OW81337   4.069   6.571   6.223 -0.0030 -0.7843 -0.5807
26920SOL    HW181338   3.979   6.601   6.232  0.2517  0.2520 -1.3818
26920SOL    HW281339   4.073   6.530   6.137 -0.3470 -3.2540  0.4662
26921SOL     OW81340   2.499   8.722   7.863 -0.7892  0.4746 -0.6118
26921SOL    HW181341   2.558   8.662   7.816  1.4078  0.8387  1.4883
26921SOL    HW281342   2.423   8.731   7.805  0.4478 -1.3816 -2.6869
26922SOL     OW81343   2.175   8.563   0.616  0.0115  0.1706 -0.0664
26922SOL    HW181344   2.137   8.648   0.640  0.0073  0.0890  0.2244
26922SOL    HW281345   2.159   8.555   0.522  0.3722  0.6753 -0.1759
26923SOL     OW81346   9.395   2.074   4.259 -0.2067  0.2923  0.2931
26923SOL    HW181347   9.444   2.131   4.318 -0.5016  1.7825 -0.8294
26923SOL    HW281348   9.455   2.059   4.186 -0.5903  0.2190 -0.0094
26924SOL     OW81349   0.097   6.439   4.103  0.2700  0.2371 -0.5022
26924SOL    HW181350   0.113   6.516   4.158  0.0938  0.2077 -0.4064
26924SOL    HW281351   0.170   6.380   4.122  0.2589  0.2659 -0.3689
26925SOL     OW81352   4.290   1.700   3.774  0.7359  0.0966  0.1194
26925SOL    HW181353   4.266   1.635   3.840  2.1602  0.3759  0.9707
26925SOL    HW281354   4.258   1.665   3.692 -0.1201 -0.7952  0.8190
26926SOL     OW81355   7.306   9.111   8.364 -0.5146  0.2356 -0.1906
26926SOL    HW181356   7.329   9.025   8.329 -0.5607  0.6269 -1.2350
26926SOL    HW281357   7.295   9.097   8.458  2.0533 -0.3761  0.0933
26927SOL     OW81358   7.771   5.396   5.561  0.0634  0.0128 -0.4422
26927SOL    HW181359   7.846   5.336   5.562  1.0779  1.2005 -1.8212
26927SOL    HW281360   7.802   5.474   5.607 -0.2306  0.6076 -1.2315
26928SOL     OW81361   7.769   2.325   9.694 -0.3492 -0.1557 -0.3487
26928SOL    HW181362   7.735   2.411   9.716 -1.5691 -0.7347  0.1076
26928SOL    HW281363   7.812   2.295   9.774  2.3139  1.0023 -1.2136
26929SOL     OW81364   4.026   8.662   3.285  0.1737 -0.2409  0.0743
26929SOL    HW181365   4.113   8.700   3.296  0.0051 -0.4167  2.5790
26929SOL    HW281366   3.971   8.736   3.260  0.7983  0.1516 -0.1663
26930SOL     OW81367   7.276   0.401   1.938  0.1607  0.4226  0.1231
26930SOL    HW181368   7.235   0.338   1.878  1.5128  0.2414 -0.6565
26930SOL    HW281369   7.223   0.396   2.018 -1.5047  0.4325 -0.9196
26931SOL     OW81370   5.172   7.518   8.204 -0.2703 -0.1008  0.1160
26931SOL    HW181371   5.134   7.580   8.266 -2.6407 -1.7884  0.5080
26931SOL    HW281372   5.217   7.573   8.140  0.5267  1.8047  2.1774
26932SOL     OW81373   8.600   1.720   4.834 -0.0581  0.3092  0.2583
26932SOL    HW181374   8.515   1.685   4.860 -0.9342  1.0666 -1.4284
26932SOL    HW281375   8.619   1.678   4.750 -0.1900  2.3068 -0.8201
26933SOL     OW81376   3.117   3.980   5.032 -0.4116 -0.0345  0.3082
26933SOL    HW181377   3.061   3.902   5.032 -2.0315  1.0649  0.6472
26933SOL    HW281378   3.061   4.049   5.069  1.4896  0.9296  1.5612
26934SOL     OW81379   4.445   6.002   9.603  0.0637  0.0338  0.3953
26934SOL    HW181380   4.539   6.019   9.614 -0.4106  1.2538  3.6271
26934SOL    HW281381   4.403   6.085   9.626 -1.8522 -0.5544 -0.7938
26935SOL     OW81382   8.125   9.335   3.163 -0.3783 -0.2281  0.4706
26935SOL    HW181383   8.199   9.277   3.183 -0.3169 -0.3366 -0.0627
26935SOL    HW281384   8.061   9.316   3.232 -1.3286 -2.6303 -0.9362
26936SOL     OW81385   5.802   9.111   5.738 -0.5141  0.2941  0.2743
26936SOL    HW181386   5.722   9.093   5.688 -0.3042 -0.4225  0.1806
26936SOL    HW281387   5.771   9.124   5.828 -0.5971 -1.8460  0.6057
26937SOL     OW81388   0.512   2.759   3.520 -0.4716 -0.5832  0.3203
26937SOL    HW181389   0.551   2.673   3.532  1.3517  0.1322 -0.0768
26937SOL    HW281390   0.491   2.763   3.427  0.7465 -0.1350  0.0368
26938SOL     OW81391   7.456   9.924   3.055 -0.2800 -0.6620  0.1442
26938SOL    HW181392   7.453   9.847   2.999 -0.1977 -0.5397 -0.0295
26938SOL    HW281393   7.547   9.954   3.051 -0.1540 -0.9407  0.7360
26939SOL     OW81394   0.503   9.129   0.685 -0.2615 -0.2324  0.1414
26939SOL    HW181395   0.598   9.131   0.689 -0.2119 -1.3278 -0.2046
26939SOL    HW281396   0.474   9.163   0.770  0.4626 -1.6792  0.9943
26940SOL     OW81397   1.239   4.799   4.928 -0.0435 -0.0046  0.1613
26940SOL    HW181398   1.252   4.781   5.021  0.1653 -1.3574 -0.1167
26940SOL    HW281399   1.326   4.818   4.894 -0.1926  1.0852  0.3391
26941SOL     OW81400   6.047   7.862   2.256 -0.1413 -0.4108 -0.3689
26941SOL    HW181401   5.968   7.913   2.238 -0.5945 -1.1301 -0.4398
26941SOL    HW281402   6.103   7.922   2.306 -0.5514  0.2434 -0.6790
26942SOL     OW81403   0.217   5.551   2.046 -0.2537  0.7232  0.0540
26942SOL    HW181404   0.211   5.646   2.055  1.0154  0.6848  1.8240
26942SOL    HW281405   0.204   5.535   1.953  0.6677  2.7369 -0.4820
26943SOL     OW81406   0.678   7.146   5.652 -0.1605 -0.2733  0.2204
26943SOL    HW181407   0.664   7.108   5.738  1.1635 -0.5603  0.3377
26943SOL    HW281408   0.656   7.076   5.591  0.0606 -0.4775  0.3704
26944SOL     OW81409   6.006   6.222   1.226 -0.0809 -0.3644  0.3129
26944SOL    HW181410   5.929   6.252   1.178 -0.4878  0.8711  1.6621
26944SOL    HW281411   6.006   6.126   1.216 -1.8000 -0.3819  0.3132
26945SOL     OW81412   0.496   4.542   9.206  0.0048  0.2491  0.0020
26945SOL    HW181413   0.591   4.542   9.218 -0.1407  0.2692  1.2851
26945SOL    HW281414   0.482   4.591   9.124  1.0178  1.4806  0.5311
26946SOL     OW81415   5.396   7.248   9.528  0.4540  0.6224 -0.2248
26946SOL    HW181416   5.380   7.205   9.612  0.4389  1.1125  0.0255
26946SOL    HW281417   5.490   7.239   9.514  0.4768  0.6518 -0.0936
26947SOL     OW81418   9.172   2.526   8.426 -0.0881  0.2498  0.2968
26947SOL    HW181419   9.084   2.549   8.457 -0.0818 -0.2546  0.7106
26947SOL    HW281420   9.172   2.548   8.333 -1.6632 -2.4457 -0.4587
26948SOL     OW81421   9.404   7.914   6.762 -0.1711 -0.6379  0.1330
26948SOL    HW181422   9.425   7.868   6.681 -1.0098 -0.1060 -0.4083
26948SOL    HW281423   9.317   7.952   6.745 -0.6896 -1.1423  1.5511
26949SOL     OW81424   4.979   0.107   4.839  0.2119  0.2186 -0.3477
26949SOL    HW181425   4.908   0.125   4.899  0.1540  0.5537 -0.5146
26949SOL    HW281426   4.940   0.115   4.752  0.0854 -1.0785 -0.4435
26950SOL     OW81427   5.946   8.766   6.168 -0.1076 -0.0157  0.6153
26950SOL    HW181428   5.928   8.817   6.090  0.5234  0.1511  0.5758
26950SOL    HW281429   5.870   8.707   6.176  0.4040 -0.9319 -0.8465
26951SOL     OW81430   4.452   3.309   9.060 -0.1897 -0.3041 -0.1613
26951SOL    HW181431   4.459   3.404   9.066  0.4594 -0.4199  1.1644
26951SOL    HW281432   4.542   3.278   9.048 -0.2079 -0.8277  0.9328
26952SOL     OW81433   7.428   6.976   8.258  0.5871 -0.0097 -0.5141
26952SOL    HW181434   7.511   7.014   8.284 -0.4060  0.7711  1.7088
26952SOL    HW281435   7.373   6.980   8.336 -2.1252  1.0783 -2.2877
26953SOL     OW81436   3.747   6.536   9.366  0.1888  0.0125  0.1206
26953SOL    HW181437   3.839   6.509   9.371  0.3507  0.5535  0.1335
26953SOL    HW281438   3.749   6.630   9.383 -0.1176  0.4623 -1.9988
26954SOL     OW81439   8.225   0.536   5.042 -0.5909 -0.9992  0.2330
26954SOL    HW181440   8.203   0.543   4.949 -2.8753 -0.4437  0.7494
26954SOL    HW281441   8.302   0.591   5.053 -0.7031 -0.5248 -1.2042
26955SOL     OW81442   0.912   3.684   5.578 -0.2785 -0.4246 -0.0097
26955SOL    HW181443   0.981   3.647   5.633 -0.3011  0.6913  0.7941
26955SOL    HW281444   0.944   3.669   5.488  1.8488  1.4976  0.3272
26956SOL     OW81445   2.571  -0.003   4.026 -0.5365  0.0926 -0.4338
26956SOL    HW181446   2.478   0.020   4.016 -0.5936 -0.4594 -1.2708
26956SOL    HW281447   2.588   0.006   4.120 -0.9535  1.9958 -0.5039
26957SOL     OW81448   2.722   8.870   5.674 -0.3018 -0.0596 -0.0555
26957SOL    HW181449   2.709   8.897   5.765  0.9010  0.1448  0.0686
26957SOL    HW281450   2.634   8.868   5.637 -0.7790  0.1516  1.0272
26958SOL     OW81451   9.876   2.934   8.420 -0.2922  0.2291 -0.0543
26958SOL    HW181452   9.885   2.839   8.413 -1.4782 -0.1748  2.4870
26958SOL    HW281453   9.948   2.960   8.477  0.7684  1.1099 -1.7176
26959SOL     OW81454   5.467   2.550   7.278  0.3949  0.3764  0.1496
26959SOL    HW181455   5.561   2.538   7.288  0.1491 -2.3876  0.1337
26959SOL    HW281456   5.453   2.550   7.183  0.2891 -0.4967  0.1574
26960SOL     OW81457   5.650   1.660   5.521 -0.3987  0.3421  0.4107
26960SOL    HW181458   5.621   1.601   5.452  0.5254 -1.4814  1.4978
26960SOL    HW281459   5.733   1.696   5.489 -0.7677  0.7566 -0.0900
26961SOL     OW81460   0.102   3.791   7.877 -0.1528  0.0350  0.6507
26961SOL    HW181461   0.138   3.873   7.910 -0.1213 -0.5263  2.0424
26961SOL    HW281462   0.158   3.769   7.802  1.2075  0.1855  1.5817
26962SOL     OW81463   8.491   4.860   7.678 -0.1735 -0.3227  0.1652
26962SOL    HW181464   8.408   4.900   7.701 -0.7402 -0.9801 -0.6796
26962SOL    HW281465   8.477   4.765   7.688  0.6512 -0.4207  0.5672
26963SOL     OW81466   2.250   3.042   2.222  0.1148 -0.5870 -0.0647
26963SOL    HW181467   2.241   3.117   2.281  1.8379 -0.4968  0.1512
26963SOL    HW281468   2.165   3.035   2.179  0.4230  2.7102 -1.5355
26964SOL     OW81469   3.083   3.246   3.297 -0.0125 -0.2444 -0.2882
26964SOL    HW181470   3.108   3.313   3.361 -2.7962  1.7696 -1.0771
26964SOL    HW281471   3.017   3.193   3.342 -0.4348 -0.1623 -0.8011
26965SOL     OW81472   2.931   4.576   6.012 -0.2929 -0.3234 -0.2695
26965SOL    HW181473   2.866   4.563   5.943 -0.7064 -1.4809  0.3122
26965SOL    HW281474   3.015   4.575   5.966 -0.6613  1.5371 -1.0737
26966SOL     OW81475   1.165   5.794   0.552  0.6955 -0.0139  0.1792
26966SOL    HW181476   1.082   5.799   0.599  0.7493 -0.8062  0.3746
26966SOL    HW281477   1.223   5.853   0.601  0.6802 -0.6378  0.9757
26967SOL     OW81478   5.201   9.339   4.229 -0.1459  0.0810  0.0116
26967SOL    HW181479   5.173   9.265   4.283 -0.3880 -1.1294 -1.6905
26967SOL    HW281480   5.160   9.324   4.144 -2.1613  3.4745  0.2347
26968SOL     OW81481   5.315   6.517   1.859  0.0723  0.5576  1.2988
26968SOL    HW181482   5.254   6.459   1.905 -2.2696  0.4809 -1.6652
26968SOL    HW281483   5.279   6.605   1.872  0.0649  0.6593  0.6023
26969SOL     OW81484   3.629   5.478   5.592  0.7896 -0.2090  0.2934
26969SOL    HW181485   3.595   5.453   5.678  0.9745  1.5924  0.9423
26969SOL    HW281486   3.559   5.532   5.554  1.2251  0.0525 -0.1450
26970SOL     OW81487   9.037   8.022   2.682 -0.1727 -0.9518  0.0875
26970SOL    HW181488   8.950   7.981   2.680 -1.8066  2.2064 -2.1425
26970SOL    HW281489   9.084   7.981   2.610 -0.7848 -0.8728 -0.3677
26971SOL     OW81490   7.401   1.283   7.970 -0.3536  0.4276 -0.8803
26971SOL    HW181491   7.341   1.330   7.912 -1.1801  0.3225 -0.1387
26971SOL    HW281492   7.397   1.331   8.052 -1.9492 -1.3940  0.2101
26972SOL     OW81493   4.527   1.397   0.706  0.5181  0.2646  0.0641
26972SOL    HW181494   4.433   1.408   0.721  0.8846  0.7242  2.3471
26972SOL    HW281495   4.555   1.336   0.774  1.4946 -1.9097 -2.1095
26973SOL     OW81496   2.607   7.488   7.601 -0.0486  0.3546  0.0594
26973SOL    HW181497   2.610   7.420   7.667 -0.1978 -0.0897 -0.3849
26973SOL    HW281498   2.671   7.461   7.535  0.1260  0.8074  0.0366
26974SOL     OW81499   2.522   5.192   5.778 -0.2721  0.3591 -0.7736
26974SOL    HW181500   2.547   5.113   5.731 -1.2238 -0.2361 -0.2980
26974SOL    HW281501   2.602   5.220   5.823 -0.0998 -0.7420 -0.3628
26975SOL     OW81502   8.863   0.375   8.611 -0.2116  0.2998 -0.1020
26975SOL    HW181503   8.900   0.462   8.598  0.7892  0.8344  4.7190
26975SOL    HW281504   8.930   0.315   8.576  0.4661  1.3890 -0.7322
26976SOL     OW81505   5.056   5.361   6.956 -0.6607  0.4435 -0.3827
26976SOL    HW181506   4.985   5.298   6.967 -1.2934  1.0149 -1.1009
26976SOL    HW281507   5.122   5.315   6.904 -1.4169  0.5872 -1.4921
26977SOL     OW81508   8.213   8.826   5.922 -0.3161 -0.3027 -0.4469
26977SOL    HW181509   8.167   8.749   5.955 -0.3710  0.5708  1.6587
26977SOL    HW281510   8.305   8.799   5.918 -0.1161 -0.0874  1.7057
26978SOL     OW81511   4.541   5.059   8.548  0.2375 -0.4289  0.0740
26978SOL    HW181512   4.568   5.050   8.640  2.9174  0.7516 -0.4876
26978SOL    HW281513   4.567   4.977   8.507 -0.0274 -0.5646  0.1790
26979SOL     OW81514   8.714   2.234   0.795 -0.4645  0.2840  0.0483
26979SOL    HW181515   8.712   2.236   0.891  0.4536  0.6386  0.0629
26979SOL    HW281516   8.649   2.168   0.771  0.2348 -0.7633  0.9601
26980SOL     OW81517   4.537   8.626   0.702  0.0512  0.2248  0.2811
26980SOL    HW181518   4.508   8.699   0.648 -1.0763  0.0582  0.6331
26980SOL    HW281519   4.628   8.609   0.674 -0.7780 -0.4904 -2.2611
26981SOL     OW81520   2.087   5.216   6.670  0.4968  0.0011 -0.8775
26981SOL    HW181521   2.026   5.290   6.669  1.9380  1.2737  0.3907
26981SOL    HW281522   2.137   5.225   6.589  0.7153  0.4525 -0.6912
26982SOL     OW81523   9.766   1.612   7.463 -0.3803 -1.0667  0.2473
26982SOL    HW181524   9.807   1.693   7.493 -0.8210 -0.2185 -1.3275
26982SOL    HW281525   9.825   1.578   7.396  0.1669 -2.4737  1.3906
26983SOL     OW81526   9.645   4.512   0.904 -0.2119  0.3482 -0.3963
26983SOL    HW181527   9.694   4.469   0.834 -0.6011 -1.7470  0.5617
26983SOL    HW281528   9.711   4.532   0.970  0.0331  1.6524 -1.0054
26984SOL     OW81529   2.404   2.245   4.471  0.3552 -0.1337  0.1988
26984SOL    HW181530   2.384   2.180   4.539  2.5802 -0.7774  0.3167
26984SOL    HW281531   2.483   2.212   4.428 -1.4222 -0.1502 -3.3100
26985SOL     OW81532   2.625   5.795   7.629  0.1566 -0.4490 -0.0792
26985SOL    HW181533   2.642   5.759   7.542  1.0181 -0.9826  0.2950
26985SOL    HW281534   2.564   5.734   7.670  0.4644 -0.6899  0.0202
26986SOL     OW81535   4.033   6.613   7.056 -0.3373  0.0722  0.3766
26986SOL    HW181536   4.014   6.522   7.034 -0.3575 -0.3516  2.0411
26986SOL    HW281537   3.974   6.633   7.129 -0.1398  1.3319  0.2078
26987SOL     OW81538   7.571   8.853   7.314  0.0059 -0.3917 -0.7418
26987SOL    HW181539   7.620   8.852   7.396  0.3174  3.4176 -0.7080
26987SOL    HW281540   7.638   8.858   7.246 -0.2653  0.0382 -0.9845
26988SOL     OW81541   4.709   0.221   1.868  0.5863  0.1475 -0.3564
26988SOL    HW181542   4.667   0.155   1.812 -1.1104  1.5462 -0.8272
26988SOL    HW281543   4.751   0.170   1.937 -0.2296 -1.4611 -0.9878
26989SOL     OW81544   6.184   7.168   2.583  0.5066  0.2053  0.3109
26989SOL    HW181545   6.240   7.132   2.514  0.9326  0.7160  0.3827
26989SOL    HW281546   6.245   7.199   2.650  0.0923 -0.5390  1.0559
26990SOL     OW81547   1.071   6.962   9.971 -0.6865 -0.2267 -0.0406
26990SOL    HW181548   1.125   7.041   9.977 -1.2003  0.1538 -0.3168
26990SOL    HW281549   1.097   6.920   9.889  0.0608 -0.7112  0.4275
26991SOL     OW81550   8.272   3.072   1.150 -1.1601  0.0293  0.0063
26991SOL    HW181551   8.301   3.041   1.235 -0.6139  0.6762  0.0672
26991SOL    HW281552   8.337   3.139   1.125 -2.3309  1.1842 -0.0651
26992SOL     OW81553   8.466   0.239   5.443 -0.1704 -0.0578 -0.1665
26992SOL    HW181554   8.488   0.171   5.380  3.1445  0.8557 -0.2176
26992SOL    HW281555   8.523   0.313   5.420 -1.2036  1.5078  1.8911
26993SOL     OW81556   9.204   0.460   9.426  0.0368  0.4952  0.5187
26993SOL    HW181557   9.193   0.406   9.347 -1.0298 -0.2954  1.1648
26993SOL    HW281558   9.170   0.404   9.497  1.6166  0.9082  1.6485
26994SOL     OW81559   8.737   0.803   7.118 -0.1688  0.1681 -0.1268
26994SOL    HW181560   8.806   0.848   7.069 -0.3008 -2.2126 -2.7558
26994SOL    HW281561   8.783   0.745   7.178  0.1012  0.1307 -0.3687
26995SOL     OW81562   5.015   2.331   8.557  0.7601  0.7080  0.1818
26995SOL    HW181563   4.979   2.397   8.498  0.6294  1.6218  1.2474
26995SOL    HW281564   4.999   2.248   8.512 -1.0731  1.2094 -0.2111
26996SOL     OW81565   2.131   2.923   3.287 -0.6567  0.0647  0.6996
26996SOL    HW181566   2.162   2.898   3.200  0.7065 -0.5088  1.3163
26996SOL    HW281567   2.187   2.997   3.312  0.1885 -0.8796  1.7685
26997SOL     OW81568   4.515   1.980   0.629  0.3035  0.2606 -0.3160
26997SOL    HW181569   4.579   2.000   0.697 -1.1242  0.1090  1.1260
26997SOL    HW281570   4.535   1.890   0.603 -0.0458 -0.2044  0.9705
26998SOL     OW81571   6.785   4.924   9.679 -0.0960  0.1908  0.2149
26998SOL    HW181572   6.792   5.015   9.708 -0.8290  0.8300 -1.4313
26998SOL    HW281573   6.840   4.920   9.600 -0.7647 -0.5492 -0.2305
26999SOL     OW81574   6.224   1.996   8.319 -0.2463 -0.7627 -0.2316
26999SOL    HW181575   6.274   1.923   8.358  0.2435 -0.3336 -0.0442
26999SOL    HW281576   6.147   2.005   8.375  0.8760  0.4221  1.1945
27000SOL     OW81577   1.899   3.447   9.943 -0.1003 -0.2121  0.4603
27000SOL    HW181578   1.858   3.527   9.976 -2.8928 -1.1750 -0.3759
27000SOL    HW281579   1.889   3.384  10.014  0.4181 -0.3103  0.4454
27001SOL     OW81580   7.147   5.170   0.786 -0.1337  0.0929 -0.3050
27001SOL    HW181581   7.074   5.216   0.746 -0.3445  0.6323  0.6698
27001SOL    HW281582   7.182   5.115   0.716 -0.6288  0.8302 -1.1573
27002SOL     OW81583   0.191   6.528   6.298 -0.3367 -0.0252 -0.1750
27002SOL    HW181584   0.140   6.609   6.292 -2.3283 -1.1744  0.3471
27002SOL    HW281585   0.143   6.465   6.245 -0.5352 -1.6541  1.8196
27003SOL     OW81586   0.311   2.304   2.799 -0.0234 -0.1757 -0.0277
27003SOL    HW181587   0.231   2.353   2.817 -1.6178 -1.3903 -3.1413
27003SOL    HW281588   0.322   2.308   2.704  2.4661 -1.7727  0.0933
27004SOL     OW81589   4.637   0.616   0.496  0.9183 -0.2940  0.0003
27004SOL    HW181590   4.590   0.547   0.448  1.3259  0.8310 -2.1806
27004SOL    HW281591   4.722   0.622   0.451  1.2465  0.9786  0.7442
27005SOL     OW81592   0.968   1.262   4.703  0.5339  0.1782  0.5360
27005SOL    HW181593   1.014   1.219   4.775 -2.0420 -3.7460  0.1324
27005SOL    HW281594   0.885   1.292   4.742  0.4220  0.8419 -0.1820
27006SOL     OW81595  -0.016   2.041   5.950 -0.0249 -0.3115  0.2526
27006SOL    HW181596   0.073   2.052   5.982 -0.8006 -0.5493  2.6731
27006SOL    HW281597  -0.014   1.960   5.899  1.1353 -0.2414  0.1589
27007SOL     OW81598   1.999   4.359   7.285 -0.5164  0.8414  0.2515
27007SOL    HW181599   2.061   4.418   7.242  1.4109 -2.3870 -1.8358
27007SOL    HW281600   1.930   4.417   7.317  1.7323  4.2943 -0.5189
27008SOL     OW81601   9.448   8.503   2.761  0.3652  0.7067 -0.0751
27008SOL    HW181602   9.369   8.512   2.814  0.0737  0.9587 -0.5439
27008SOL    HW281603   9.510   8.456   2.817 -0.4737 -0.4437 -0.0648
27009SOL     OW81604   3.731   0.728   3.162  0.1091 -0.5153  0.4128
27009SOL    HW181605   3.683   0.759   3.239  1.1542 -1.1795  1.3683
27009SOL    HW281606   3.823   0.745   3.182  0.3839 -0.2931 -0.9001
27010SOL     OW81607   2.076   7.634   6.899 -0.3881  0.0371  0.1316
27010SOL    HW181608   2.053   7.650   6.990  3.0559  1.5661  0.8896
27010SOL    HW281609   2.009   7.679   6.848 -0.7578  1.6862  1.9813
27011SOL     OW81610   6.298   8.412   4.399  0.3401 -0.2656 -0.1544
27011SOL    HW181611   6.356   8.359   4.345  0.5100 -1.6880  1.3565
27011SOL    HW281612   6.240   8.349   4.441 -0.5097  0.8977  0.4652
27012SOL     OW81613   2.737   1.383   0.682  0.1607  0.6430  1.2028
27012SOL    HW181614   2.827   1.393   0.712  1.1142 -0.5232 -1.0232
27012SOL    HW281615   2.740   1.407   0.589 -1.4672 -0.9621  0.6782
27013SOL     OW81616   0.686   9.654   6.211 -0.2897  0.1515 -0.4123
27013SOL    HW181617   0.641   9.729   6.250 -0.4221  0.0089 -0.2864
27013SOL    HW281618   0.774   9.657   6.248 -0.4327 -0.0169 -0.0513
27014SOL     OW81619   7.710   5.856   3.846 -0.1027  0.3603 -0.3730
27014SOL    HW181620   7.651   5.784   3.867  0.6946  0.3223  2.0366
27014SOL    HW281621   7.792   5.813   3.822 -0.2571  0.4439 -1.0530
27015SOL     OW81622   3.467   1.790   9.443  0.3295  0.1489  0.3033
27015SOL    HW181623   3.471   1.824   9.354  0.6665 -0.4167  0.0917
27015SOL    HW281624   3.520   1.851   9.494  1.9325 -0.6756 -0.2928
27016SOL     OW81625   2.634   8.623   1.827 -0.0360  0.3560  0.0236
27016SOL    HW181626   2.720   8.665   1.820 -0.0290  0.3907  0.2932
27016SOL    HW281627   2.620   8.581   1.743  0.9592 -1.0374  0.5156
27017SOL     OW81628   7.927   2.470   5.218  0.9810 -0.1151  0.4987
27017SOL    HW181629   7.985   2.423   5.158  0.7903  0.5541 -0.2275
27017SOL    HW281630   7.888   2.539   5.164 -0.0733 -0.2171  1.1099
27018SOL     OW81631   9.087   1.389   2.553 -0.1737  0.2179  0.4922
27018SOL    HW181632   9.102   1.364   2.644  0.2701 -0.6113  0.2013
27018SOL    HW281633   9.063   1.482   2.557  0.5896  0.3888  1.3831
27019SOL     OW81634   1.158   7.783   1.640  0.0647  0.4564  0.7237
27019SOL    HW181635   1.245   7.796   1.603 -0.9075  0.8985 -1.6413
27019SOL    HW281636   1.160   7.828   1.724  2.1229  0.3714  0.7706
27020SOL     OW81637   3.415   3.670   3.753  0.7185  0.1972 -0.3576
27020SOL    HW181638   3.466   3.612   3.696  0.6887  0.3824 -0.5751
27020SOL    HW281639   3.332   3.681   3.707  0.1807 -0.7174  0.3628
27021SOL     OW81640   0.126   8.705   8.508  0.5690 -0.2700 -0.3612
27021SOL    HW181641   0.116   8.654   8.589  0.6534  1.0379  0.5075
27021SOL    HW281642   0.066   8.779   8.519 -0.8078 -1.0201 -2.3358
27022SOL     OW81643   0.799   2.174   6.146  0.8522  0.5372 -0.4148
27022SOL    HW181644   0.751   2.206   6.222  1.7604 -1.5492  1.1300
27022SOL    HW281645   0.736   2.176   6.074 -0.3342  1.5702  0.6194
27023SOL     OW81646   8.427   7.901   5.114  0.0002 -0.2271  0.0945
27023SOL    HW181647   8.378   7.819   5.122 -1.5327  0.6409  0.0893
27023SOL    HW281648   8.421   7.940   5.201 -1.0123  0.7971 -0.4192
27024SOL     OW81649   3.954   4.820   2.386 -0.4793  0.2490  0.3649
27024SOL    HW181650   3.885   4.839   2.450  1.1360  0.9874  1.9697
27024SOL    HW281651   4.019   4.770   2.435  1.0445  1.2524 -0.5572
27025SOL     OW81652   1.950   1.513   1.854  0.0993 -0.3813  0.6379
27025SOL    HW181653   1.968   1.454   1.780 -0.6303  0.7277 -0.4725
27025SOL    HW281654   2.019   1.494   1.917  1.4025 -0.6284 -0.7915
27026SOL     OW81655   4.507   0.633   8.957  0.4918 -1.0447  0.7348
27026SOL    HW181656   4.448   0.607   8.887  1.6383 -0.0653 -0.6783
27026SOL    HW281657   4.457   0.695   9.009  0.3693  0.1783 -0.7484
27027SOL     OW81658   0.274   6.256   3.519  0.0840  0.1035 -0.1255
27027SOL    HW181659   0.248   6.324   3.581 -0.2144 -0.4636  0.3845
27027SOL    HW281660   0.311   6.304   3.445  1.2094  0.7723  0.8308
27028SOL     OW81661   0.546   2.832   2.045  0.5153 -0.2013 -0.0607
27028SOL    HW181662   0.514   2.789   1.965  1.3353  1.6445 -1.4625
27028SOL    HW281663   0.508   2.781   2.117 -0.6681 -1.6280 -1.6189
27029SOL     OW81664   6.187   1.159   2.296  0.3494  0.2235  0.2795
27029SOL    HW181665   6.206   1.212   2.218  0.2537  0.3393  0.3339
27029SOL    HW281666   6.163   1.073   2.261  0.7081  0.1546  0.1995
27030SOL     OW81667   6.792   7.026   6.737  0.0459 -0.0495 -0.1184
27030SOL    HW181668   6.793   6.961   6.808 -0.0395 -0.9082 -0.8914
27030SOL    HW281669   6.699   7.044   6.722  0.0578  2.6587  2.2080
27031SOL     OW81670   1.854   2.983   6.242  0.0842 -0.1756  0.4391
27031SOL    HW181671   1.913   3.017   6.175  0.7978  0.9148  1.5646
27031SOL    HW281672   1.859   3.048   6.313 -2.4915 -0.0276  0.5795
27032SOL     OW81673   4.769   4.235   2.691 -0.1097  0.1268 -0.1001
27032SOL    HW181674   4.742   4.297   2.623 -5.0018 -1.4469 -0.0153
27032SOL    HW281675   4.748   4.279   2.773  3.4737  1.0481  0.4978
27033SOL     OW81676   4.840   0.391   5.501 -0.2914  0.3144  0.6559
27033SOL    HW181677   4.846   0.297   5.517  0.5048  0.6194  2.2701
27033SOL    HW281678   4.750   0.413   5.524 -0.4511 -0.0132  0.3703
27034SOL     OW81679   7.685   1.283   4.023 -0.4173  0.0102  0.1504
27034SOL    HW181680   7.621   1.349   4.052 -1.0383 -0.2948 -0.4839
27034SOL    HW281681   7.733   1.261   4.102  0.7702  2.2225  0.1375
27035SOL     OW81682   0.071   0.234   3.456 -0.4218 -0.3302  0.0990
27035SOL    HW181683  -0.024   0.221   3.452 -0.3185 -1.2677  0.5530
27035SOL    HW281684   0.095   0.261   3.368 -0.7602 -2.6282 -0.7644
27036SOL     OW81685   5.073   3.968   8.815  0.0219 -0.4787 -0.6186
27036SOL    HW181686   5.114   4.020   8.884  0.1866 -0.4389 -0.7478
27036SOL    HW281687   5.093   3.877   8.839 -1.3756 -0.5718  0.3335
27037SOL     OW81688   2.477   4.075   2.200  0.0193  0.0631  0.2941
27037SOL    HW181689   2.506   4.163   2.175  0.1510  0.4265  1.6098
27037SOL    HW281690   2.550   4.040   2.251 -0.0701 -0.7788 -0.1500
27038SOL     OW81691   6.803   5.914   3.279 -0.2235  0.2317 -0.2582
27038SOL    HW181692   6.843   5.986   3.327  1.4612 -1.7545  1.4826
27038SOL    HW281693   6.729   5.954   3.234  1.8224  3.4423 -1.0653
27039SOL     OW81694   6.874   6.580   8.658  0.6757 -0.8612 -0.1075
27039SOL    HW181695   6.807   6.590   8.590 -1.1342 -2.0254  1.3767
27039SOL    HW281696   6.929   6.508   8.627 -0.5946 -1.9031 -0.0637
27040SOL     OW81697   3.406   4.437   1.308  0.2679  0.3620 -0.1608
27040SOL    HW181698   3.367   4.523   1.326  0.3572  0.2626  0.5484
27040SOL    HW281699   3.494   4.443   1.344  0.5798  0.2539 -0.8796
27041SOL     OW81700   9.685   1.858   5.657 -1.0973 -0.2319  0.6017
27041SOL    HW181701   9.706   1.813   5.575 -0.4628  0.5119  0.3458
27041SOL    HW281702   9.624   1.799   5.701 -0.5459 -1.1960  0.1249
27042SOL     OW81703   7.938   7.678   6.681  0.7844  0.2040 -0.5649
27042SOL    HW181704   7.991   7.690   6.760 -1.0910  0.3065  0.7651
27042SOL    HW281705   7.988   7.616   6.628  1.2944 -1.3461  1.5510
27043SOL     OW81706   7.443   5.770   1.728 -0.0857 -0.0645 -0.3683
27043SOL    HW181707   7.524   5.732   1.761 -0.5591 -1.5523 -0.8199
27043SOL    HW281708   7.447   5.862   1.754  0.8366 -0.5445  1.3399
27044SOL     OW81709   6.112   6.951   6.957 -0.0006 -0.6196  0.3016
27044SOL    HW181710   6.023   6.936   6.927  0.3947  0.3287 -1.5360
27044SOL    HW281711   6.127   6.885   7.024 -2.3034 -0.3177  1.1765
27045SOL     OW81712   2.450   6.014   7.705 -0.3900  0.6575  0.2160
27045SOL    HW181713   2.396   6.052   7.636  0.8590  2.2533  0.0636
27045SOL    HW281714   2.476   5.928   7.671 -2.5017 -0.0269  0.1702
27046SOL     OW81715   2.922   2.846   2.537 -0.3717 -0.1722 -0.5506
27046SOL    HW181716   2.917   2.884   2.449 -1.1223  1.3530  0.1031
27046SOL    HW281717   2.838   2.802   2.548 -1.7382  2.4439  0.5338
27047SOL     OW81718   0.823   0.399   4.212  0.1052  0.7478 -0.6215
27047SOL    HW181719   0.804   0.356   4.295 -2.1705  1.7558 -0.5605
27047SOL    HW281720   0.917   0.383   4.198 -0.1331 -2.2362  0.4947
27048SOL     OW81721   0.621   7.599   7.921  0.2261 -0.5555  0.5372
27048SOL    HW181722   0.703   7.609   7.872  0.4328 -1.6171  0.6479
27048SOL    HW281723   0.600   7.506   7.914 -2.6019  0.0916 -2.1259
27049SOL     OW81724   6.128   4.219   7.285 -0.7047 -0.0810 -0.0742
27049SOL    HW181725   6.167   4.173   7.211  0.3517  0.2887  0.2320
27049SOL    HW281726   6.152   4.311   7.272 -1.2395  0.1187  0.2789
27050SOL     OW81727   2.892   7.549   0.458 -0.2727  0.4494 -0.2675
27050SOL    HW181728   2.934   7.482   0.513  0.3886 -0.4834 -1.8001
27050SOL    HW281729   2.857   7.613   0.519 -1.6356 -1.6979  1.3388
27051SOL     OW81730   9.028   9.663   2.594  0.5899  1.3615 -0.0363
27051SOL    HW181731   9.102   9.690   2.540  0.1200  0.1105 -1.3871
27051SOL    HW281732   9.066   9.600   2.657  0.9017  1.7924  0.2126
27052SOL     OW81733   6.089   4.621   4.528  0.1358  0.3421  0.5003
27052SOL    HW181734   6.102   4.544   4.473 -0.4539 -0.1316  1.0050
27052SOL    HW281735   6.128   4.597   4.612 -0.5049  0.3797  0.8213
27053SOL     OW81736   3.738   0.413   1.317  0.2606  0.2602 -0.6162
27053SOL    HW181737   3.738   0.398   1.222 -0.7080 -3.2728 -0.1799
27053SOL    HW281738   3.830   0.429   1.338  0.3880  1.9598 -2.1812
27054SOL     OW81739   1.002   5.882   9.168 -0.2858 -0.4215  0.5056
27054SOL    HW181740   1.063   5.918   9.103  1.8359 -2.3328  1.2893
27054SOL    HW281741   1.032   5.917   9.251 -2.5526  1.4453  0.6422
27055SOL     OW81742   1.357   8.203   8.843 -0.2092 -0.1521 -0.3990
27055SOL    HW181743   1.426   8.137   8.853  0.6729  0.8390  0.2092
27055SOL    HW281744   1.387   8.258   8.770 -0.6950 -0.1195 -0.5787
27056SOL     OW81745   3.207   3.730   4.258 -0.5269  0.4573  0.5422
27056SOL    HW181746   3.178   3.819   4.279 -1.4653 -0.1137  1.8209
27056SOL    HW281747   3.169   3.712   4.172 -2.2343  0.5350  1.2332
27057SOL     OW81748   9.900   2.267   2.278 -0.0857  0.1806  0.0170
27057SOL    HW181749   9.865   2.180   2.262  0.9894 -0.6057  1.7025
27057SOL    HW281750   9.993   2.252   2.297  0.7043  1.9487 -2.0272
27058SOL     OW81751   6.736   8.220   1.697 -0.0535 -0.1282  0.3273
27058SOL    HW181752   6.723   8.265   1.614 -0.4035 -1.7634 -0.5334
27058SOL    HW281753   6.803   8.154   1.679 -0.4601 -0.8068  1.2107
27059SOL     OW81754   3.093   9.899   4.577 -0.3689 -0.4640  0.4190
27059SOL    HW181755   3.042   9.822   4.603  0.1341 -0.5941  1.0346
27059SOL    HW281756   3.027   9.966   4.557 -0.7850 -0.7086  0.9626
27060SOL     OW81757   4.819   5.232   4.364 -0.5204  0.3000 -0.2079
27060SOL    HW181758   4.848   5.257   4.451  0.5645  0.8315 -0.7103
27060SOL    HW281759   4.723   5.227   4.371 -0.3922 -0.4175  1.1941
27061SOL     OW81760   8.548   2.300   7.633  0.0839  0.0410  0.2172
27061SOL    HW181761   8.557   2.269   7.723 -1.9206 -0.7953  0.1763
27061SOL    HW281762   8.541   2.395   7.641  1.4557  0.1143  0.7831
27062SOL     OW81763   3.837   9.763   6.145 -0.2864 -0.4867 -0.0355
27062SOL    HW181764   3.823   9.852   6.113 -1.8429 -0.5555  0.3846
27062SOL    HW281765   3.842   9.772   6.241 -2.4332 -1.0379  0.1761
27063SOL     OW81766   0.489   8.648   8.829 -0.0583 -0.6940 -0.0791
27063SOL    HW181767   0.506   8.731   8.872 -1.9071 -1.6144  2.7026
27063SOL    HW281768   0.509   8.664   8.736 -1.4904  3.1797  0.1152
27064SOL     OW81769   2.495   6.458   2.212  0.2049 -0.3147 -0.4410
27064SOL    HW181770   2.494   6.364   2.194  2.3645 -0.5679  0.5269
27064SOL    HW281771   2.457   6.467   2.299 -0.0527 -0.2746 -0.5562
27065SOL     OW81772   1.565   7.386   6.916  0.1312 -0.0088 -0.1665
27065SOL    HW181773   1.541   7.466   6.870 -0.2730  0.2452  0.4806
27065SOL    HW281774   1.505   7.381   6.990  1.1484 -0.1162  0.6628
27066SOL     OW81775   1.809   8.733   0.056  0.3509 -0.0786  0.2001
27066SOL    HW181776   1.771   8.722   0.143  0.4088 -1.2554  0.0974
27066SOL    HW281777   1.740   8.774   0.004 -0.9484 -2.4561 -0.0702
27067SOL     OW81778   0.322   3.422   3.038  0.1781 -0.0014 -0.1463
27067SOL    HW181779   0.391   3.365   3.004  0.8145 -0.8062  2.2554
27067SOL    HW281780   0.253   3.362   3.068  0.1562  0.5507  0.9817
27068SOL     OW81781   9.375   4.911   5.894 -0.6144  0.0951  1.3399
27068SOL    HW181782   9.355   5.003   5.882  0.9911  0.5017  1.5407
27068SOL    HW281783   9.304   4.864   5.850 -1.8431  1.4005  1.8744
27069SOL     OW81784   7.395   6.405   3.625 -0.0957  0.2457  0.3266
27069SOL    HW181785   7.354   6.452   3.698  1.7201  1.1768  0.7957
27069SOL    HW281786   7.330   6.409   3.555 -1.4518  0.2531  1.5380
27070SOL     OW81787   1.779   3.196   4.199  0.2399  0.1464 -0.0499
27070SOL    HW181788   1.704   3.144   4.170  0.5788 -0.5992  0.3860
27070SOL    HW281789   1.752   3.287   4.184  0.5612 -0.1557 -3.0628
27071SOL     OW81790   8.538   3.924   7.529  0.2934  0.1042  0.1561
27071SOL    HW181791   8.594   4.000   7.546  0.3302 -0.3614  2.5438
27071SOL    HW281792   8.460   3.961   7.488  1.4232  1.0353 -1.2868
27072SOL     OW81793   0.998   0.521   7.377  0.3265  0.3863 -0.4613
27072SOL    HW181794   0.995   0.428   7.355 -2.1438  0.3467 -0.3250
27072SOL    HW281795   0.944   0.529   7.456  1.5819  1.7751  0.3021
27073SOL     OW81796   8.212   4.215   7.628 -0.4315  0.2704  0.1177
27073SOL    HW181797   8.121   4.188   7.642 -1.1144  2.1544 -0.3919
27073SOL    HW281798   8.207   4.285   7.562  1.6508 -1.3528 -1.9359
27074SOL     OW81799   7.356   1.304   6.645  0.6417 -0.0034  0.2196
27074SOL    HW181800   7.270   1.328   6.679 -0.3172 -0.2259 -1.9159
27074SOL    HW281801   7.339   1.230   6.588  2.1536  0.3524 -0.7350
27075SOL     OW81802   3.915   7.524   4.793  0.0762 -0.2001 -0.6795
27075SOL    HW181803   3.861   7.452   4.761 -0.1822 -0.0380 -0.6095
27075SOL    HW281804   3.867   7.559   4.868  1.3756 -1.5228  0.8388
27076SOL     OW81805   2.712   2.677   9.020 -0.1312 -0.0475 -0.1891
27076SOL    HW181806   2.732   2.736   8.947  0.9229  1.4034  1.1981
27076SOL    HW281807   2.763   2.599   9.001  0.1238  0.3023 -1.0107
27077SOL     OW81808   6.894   1.276   0.387  0.0733  0.4307 -0.3382
27077SOL    HW181809   6.839   1.349   0.358 -0.1946  1.0259  1.5590
27077SOL    HW281810   6.893   1.215   0.313 -2.8635  0.5769 -0.5519
27078SOL     OW81811   9.220   2.537   8.736  0.1191 -0.5870  0.5940
27078SOL    HW181812   9.260   2.607   8.685  0.5481 -0.3545  1.2229
27078SOL    HW281813   9.250   2.554   8.826  0.4091 -1.6955  0.7213
27079SOL     OW81814   9.933   9.449   0.579  0.1164 -0.0976  0.1470
27079SOL    HW181815   9.999   9.518   0.569  0.1823 -0.3778 -1.4641
27079SOL    HW281816   9.949   9.389   0.506 -1.1623 -0.8057  0.4295
27080SOL     OW81817   0.158   1.259   0.824 -0.1508 -0.4171 -0.0138
27080SOL    HW181818   0.252   1.276   0.829  0.2203 -1.2849 -2.6055
27080SOL    HW281819   0.118   1.333   0.869  1.7430 -0.5105  2.0052
27081SOL     OW81820   3.056   2.125   9.356 -0.0858 -0.2635 -0.1812
27081SOL    HW181821   3.151   2.132   9.369 -0.1581  1.3821 -0.3369
27081SOL    HW281822   3.044   2.041   9.312  1.5859  0.6924 -2.6692
27082SOL     OW81823   6.298   8.676   0.479 -0.0743 -1.3708 -0.1714
27082SOL    HW181824   6.383   8.687   0.520 -0.1473 -0.0729 -0.3442
27082SOL    HW281825   6.248   8.753   0.504 -0.4371 -1.0015 -1.8901
27083SOL     OW81826   3.901   3.830   2.419  0.2264 -0.1607  0.0224
27083SOL    HW181827   3.959   3.905   2.407 -0.4862  0.7194  1.6755
27083SOL    HW281828   3.870   3.808   2.331  0.0158  1.8650 -0.4580
27084SOL     OW81829   1.080   3.860   4.097 -0.0893 -0.7701 -0.1053
27084SOL    HW181830   1.151   3.924   4.087  0.4730 -1.6332 -2.0159
27084SOL    HW281831   1.118   3.777   4.071 -1.1645 -1.7056  1.1466
27085SOL     OW81832   4.756   3.032   7.225  0.0239 -0.3873 -0.2719
27085SOL    HW181833   4.807   2.973   7.168 -0.3555 -0.8848 -0.1113
27085SOL    HW281834   4.798   3.026   7.310 -0.8630 -1.5707  0.1156
27086SOL     OW81835   5.633   3.472   1.602  0.1424  0.1508 -0.1320
27086SOL    HW181836   5.719   3.501   1.569  0.4487 -0.7061 -0.1071
27086SOL    HW281837   5.589   3.553   1.626  0.5423  0.6860 -1.1171
27087SOL     OW81838   4.905   4.745   2.799  0.1925  0.0185  0.0192
27087SOL    HW181839   4.998   4.729   2.809  0.6130  1.9534 -0.3181
27087SOL    HW281840   4.884   4.810   2.866 -0.0320  2.3877 -2.1604
27088SOL     OW81841   1.729   9.197   7.842  0.0448  1.0732  1.0436
27088SOL    HW181842   1.637   9.172   7.847 -0.2117  2.0584  1.3869
27088SOL    HW281843   1.728   9.291   7.826  0.9921  1.0063  0.4842
27089SOL     OW81844   0.601   2.185   7.618  0.1519 -0.3639  0.2580
27089SOL    HW181845   0.578   2.212   7.707 -1.0025 -1.0727  0.1974
27089SOL    HW281846   0.559   2.100   7.607  0.4494 -0.3857 -0.9028
27090SOL     OW81847   8.047   4.795   8.910  0.8134  0.0897  0.2644
27090SOL    HW181848   8.077   4.782   9.000  1.4528 -0.0030  0.0432
27090SOL    HW281849   8.099   4.733   8.858  1.8565  1.5034 -0.4319
27091SOL     OW81850   0.119   5.731   2.361  0.2568 -0.4168 -0.0593
27091SOL    HW181851   0.046   5.692   2.409 -0.8539  1.1464 -0.4145
27091SOL    HW281852   0.083   5.754   2.276  1.2151  0.2291 -0.3143
27092SOL     OW81853   4.251   1.343   3.066  0.7329 -0.7042  0.1716
27092SOL    HW181854   4.184   1.403   3.098  0.3229 -1.2146  0.2826
27092SOL    HW281855   4.328   1.398   3.054  0.2963 -0.1059  0.0366
27093SOL     OW81856   9.498   2.938   7.226  0.0959 -0.4462  0.1516
27093SOL    HW181857   9.515   2.851   7.262 -0.6185  0.2035  2.1893
27093SOL    HW281858   9.403   2.945   7.225  0.1342  1.1301  2.2316
27094SOL     OW81859   1.086   9.569   0.309  0.7858 -0.2589  0.1539
27094SOL    HW181860   1.156   9.618   0.352  0.8678 -0.1086 -0.1451
27094SOL    HW281861   1.082   9.606   0.220 -1.4086  1.5828  0.9104
27095SOL     OW81862   7.841   2.227   7.578 -0.8467 -0.0384 -0.0945
27095SOL    HW181863   7.756   2.260   7.547 -0.9200 -1.1120 -1.0898
27095SOL    HW281864   7.886   2.197   7.499 -0.7049 -2.1045  0.7087
27096SOL     OW81865   0.274   1.693   0.699  0.0208  0.1672 -0.4873
27096SOL    HW181866   0.274   1.789   0.701  0.6679  0.1547  0.7332
27096SOL    HW281867   0.363   1.668   0.724 -0.9883 -0.7584  2.7045
27097SOL     OW81868   8.837   4.139   6.482 -0.4490  0.3302 -0.0102
27097SOL    HW181869   8.930   4.147   6.506 -0.7657  3.1958  0.6241
27097SOL    HW281870   8.836   4.077   6.410  2.1924  1.4112 -1.1050
27098SOL     OW81871   6.596   7.753   2.728  0.3156  0.3389 -0.6456
27098SOL    HW181872   6.616   7.845   2.714 -1.3320  0.8934  0.3429
27098SOL    HW281873   6.501   7.747   2.719  0.0355 -0.7041  1.9522
27099SOL     OW81874   8.969   7.437   4.998  0.0018 -0.0950 -0.2514
27099SOL    HW181875   9.064   7.442   4.985  0.0668 -0.8707 -0.1187
27099SOL    HW281876   8.950   7.508   5.059  0.8055 -1.1513  1.3266
27100SOL     OW81877   1.286   1.773   1.944  0.1185 -0.1812 -0.1464
27100SOL    HW181878   1.280   1.779   2.040 -4.2750 -3.2210  0.0772
27100SOL    HW281879   1.328   1.689   1.928  0.0456 -0.0807 -0.8825
27101SOL     OW81880   5.405   1.053   1.343  0.2037 -0.1752  0.2305
27101SOL    HW181881   5.373   1.142   1.359  1.3420  0.1048  1.0814
27101SOL    HW281882   5.374   1.002   1.417  0.4289 -0.2515  0.2728
27102SOL     OW81883   0.970   4.695   7.401 -0.2558 -0.0835 -0.0613
27102SOL    HW181884   1.058   4.717   7.430  0.4613 -0.3168 -1.9469
27102SOL    HW281885   0.959   4.603   7.424  0.5682 -0.4581 -1.0979
27103SOL     OW81886   7.870   4.148   4.405 -0.1903  0.0198 -0.2273
27103SOL    HW181887   7.802   4.101   4.357 -0.3205 -1.4116  1.2861
27103SOL    HW281888   7.948   4.142   4.349 -0.8575  0.2011 -1.1930
27104SOL     OW81889   6.585   2.890   2.510 -0.4388 -0.3408  0.5253
27104SOL    HW181890   6.661   2.866   2.563 -0.8959 -1.7574  0.5644
27104SOL    HW281891   6.518   2.826   2.534 -1.1129 -0.1301 -0.7419
27105SOL     OW81892   4.943   1.894   9.229 -0.1482  0.2561  0.3957
27105SOL    HW181893   4.869   1.933   9.183 -1.8370 -1.1577  1.7803
27105SOL    HW281894   4.951   1.806   9.192  0.5967  0.2501  0.5437
27106SOL     OW81895   5.396   7.277   0.148  0.5915  0.1271  0.1082
27106SOL    HW181896   5.319   7.278   0.092  0.8146  1.4801 -0.2114
27106SOL    HW281897   5.361   7.273   0.237  0.1849 -0.2486 -0.0665
27107SOL     OW81898   1.447   1.133   9.570 -1.2913 -0.8789  0.3852
27107SOL    HW181899   1.407   1.197   9.511  1.5444  0.9153  0.2313
27107SOL    HW281900   1.436   1.171   9.657 -0.3364 -0.5781  0.3807
27108SOL     OW81901   0.054   6.593   2.024 -0.1564 -0.6489  0.7151
27108SOL    HW181902   0.060   6.507   1.981  0.9425  0.1356 -0.8035
27108SOL    HW281903  -0.034   6.624   2.002 -0.2072 -0.9702  0.4496
27109SOL     OW81904   7.417   6.307   5.866 -0.1805  0.3832 -0.0309
27109SOL    HW181905   7.325   6.294   5.887  0.3759 -2.1536  1.1928
27109SOL    HW281906   7.447   6.222   5.832  1.9911  0.7421  0.8113
27110SOL     OW81907   6.332   7.488   0.344  0.3765  0.6817 -0.4539
27110SOL    HW181908   6.282   7.566   0.369  0.9651  0.7806  0.4666
27110SOL    HW281909   6.423   7.515   0.349  0.6580 -0.4341  1.2963
27111SOL     OW81910   7.061   0.208   1.192 -0.6392  0.5117  0.4120
27111SOL    HW181911   7.016   0.241   1.114 -2.7673  0.6504  1.6078
27111SOL    HW281912   7.012   0.129   1.215  2.2111 -1.6624 -0.4095
27112SOL     OW81913   9.441   2.417   1.979 -0.0841  0.1516 -0.0481
27112SOL    HW181914   9.515   2.473   1.956 -0.7640  0.6815 -1.0526
27112SOL    HW281915   9.385   2.473   2.033  0.4234 -0.3816  1.0688
27113SOL     OW81916   1.575   4.061   2.393  0.1895  0.1289  0.4753
27113SOL    HW181917   1.584   4.147   2.352 -0.6812 -0.1514 -0.3384
27113SOL    HW281918   1.484   4.059   2.423  0.0567 -0.7016  0.0293
27114SOL     OW81919   1.159   3.600   4.046  0.0186 -0.2226  0.0264
27114SOL    HW181920   1.101   3.587   3.972  0.0769 -2.4645  0.2970
27114SOL    HW281921   1.136   3.531   4.108  1.7065 -0.0266  0.9696
27115SOL     OW81922   7.649   4.676   7.697 -0.4381 -0.2982  0.1535
27115SOL    HW181923   7.656   4.607   7.631  0.5976  0.0047 -0.0696
27115SOL    HW281924   7.644   4.628   7.780  1.1935 -0.6499  0.0731
27116SOL     OW81925   4.824   2.682   6.393 -0.1133 -0.6334  0.8431
27116SOL    HW181926   4.808   2.772   6.421 -2.3771 -1.2772  1.8783
27116SOL    HW281927   4.822   2.687   6.297 -0.8602  0.3363  0.8847
27117SOL     OW81928   4.019   8.571   7.703 -0.5852 -0.0924  0.5151
27117SOL    HW181929   4.068   8.639   7.657 -2.3358  2.7905  2.6118
27117SOL    HW281930   4.032   8.590   7.796 -1.5616 -2.3645  1.2009
27118SOL     OW81931   0.083   6.485   0.443  0.2722  0.1131  0.2625
27118SOL    HW181932   0.140   6.554   0.477 -1.1139  1.5054 -0.1247
27118SOL    HW281933   0.001   6.495   0.493 -0.6805  0.1403 -1.2554
27119SOL     OW81934   6.848   3.156   0.631 -0.2901 -0.5979  0.3961
27119SOL    HW181935   6.853   3.249   0.607  2.0478 -1.0136 -0.9789
27119SOL    HW281936   6.848   3.157   0.726 -0.3201  0.8237  0.4165
27120SOL     OW81937   7.458   8.809   1.104  0.0741 -0.3002  0.0688
27120SOL    HW181938   7.521   8.761   1.050  0.0292  1.6620 -1.8589
27120SOL    HW281939   7.392   8.744   1.127  0.6464 -1.4505 -1.3843
27121SOL     OW81940   2.013   0.125   3.291  0.3821 -0.5846  0.3029
27121SOL    HW181941   1.941   0.064   3.276  0.6483 -0.8220 -0.0222
27121SOL    HW281942   2.086   0.070   3.317  1.2041 -0.6392 -1.9214
27122SOL     OW81943   9.571   9.265   7.142  0.5125  0.1991 -0.1167
27122SOL    HW181944   9.605   9.177   7.127  1.2922  0.1171  1.8896
27122SOL    HW281945   9.596   9.315   7.064 -0.9137 -1.5807 -1.8041
27123SOL     OW81946   1.073   0.684   7.650 -0.1096  0.1203 -0.3507
27123SOL    HW181947   1.085   0.685   7.745 -0.2658 -0.2713 -0.3263
27123SOL    HW281948   1.155   0.720   7.615 -0.3833  1.0889 -0.0383
27124SOL     OW81949   2.120   5.711   9.412  0.2751  0.3446 -0.5132
27124SOL    HW181950   2.078   5.678   9.491 -0.9577 -0.7738 -1.5868
27124SOL    HW281951   2.214   5.709   9.432  0.0265 -0.6301  0.6635
27125SOL     OW81952   7.470   4.775   1.542 -0.0047 -0.2302  0.7058
27125SOL    HW181953   7.473   4.680   1.557 -0.3052 -0.3208  0.2041
27125SOL    HW281954   7.484   4.813   1.628  0.1867 -0.7343  0.8997
27126SOL     OW81955   9.561   9.588   8.304  0.1317  0.0276 -0.9431
27126SOL    HW181956   9.602   9.583   8.390 -0.9363 -1.7920 -0.5018
27126SOL    HW281957   9.625   9.550   8.244  1.1527  1.8841 -1.1361
27127SOL     OW81958   2.762   5.184   6.602 -0.8922  0.7993  0.4123
27127SOL    HW181959   2.791   5.102   6.563  0.6644  1.5851 -0.1441
27127SOL    HW281960   2.668   5.173   6.614 -0.6568 -1.1924  0.6866
27128SOL     OW81961   9.200   7.769   9.554 -0.3127  1.2617  0.7170
27128SOL    HW181962   9.130   7.742   9.613  0.1236 -1.6466  0.0869
27128SOL    HW281963   9.155   7.796   9.474 -0.8339 -1.3382  0.0249
27129SOL     OW81964   3.684   3.692   5.172  0.2548  0.3789  0.0408
27129SOL    HW181965   3.631   3.714   5.248  1.5863 -0.5317  1.2772
27129SOL    HW281966   3.770   3.669   5.208  0.5227 -1.4514 -1.5932
27130SOL     OW81967   2.927   4.452   9.096  0.0746  0.0866 -0.3574
27130SOL    HW181968   3.005   4.443   9.150  0.1526 -1.0304 -0.6448
27130SOL    HW281969   2.933   4.541   9.061 -0.5346  1.2846  2.2858
27131SOL     OW81970   3.051   1.808   3.989  0.2948  0.8154  0.1816
27131SOL    HW181971   3.014   1.728   4.028  3.9849 -0.6135  1.1520
27131SOL    HW281972   3.026   1.878   4.049 -0.0109 -0.2141  1.2995
27132SOL     OW81973   8.687   3.034   9.457 -0.1342  0.2710 -0.6992
27132SOL    HW181974   8.700   2.948   9.498  1.1084  0.4550 -0.6579
27132SOL    HW281975   8.773   3.076   9.463 -1.0196  2.0262  0.4091
27133SOL     OW81976   2.682   3.971   2.587 -0.4941 -0.6517 -0.3377
27133SOL    HW181977   2.773   3.970   2.559 -0.2646  1.4467  0.1904
27133SOL    HW281978   2.686   3.977   2.683 -1.1842 -0.3192 -0.3230
27134SOL     OW81979   1.985   4.347   1.866 -0.4602  0.0686 -0.2435
27134SOL    HW181980   1.946   4.424   1.908 -0.8280  0.4578 -1.2613
27134SOL    HW281981   1.963   4.274   1.924 -1.5868  0.4765 -0.1305
27135SOL     OW81982   6.504   6.537   2.330 -0.2497  0.7472  0.3038
27135SOL    HW181983   6.422   6.487   2.335  0.8268 -1.4009 -1.4246
27135SOL    HW281984   6.520   6.567   2.419 -2.9527  1.3487  0.6660
27136SOL     OW81985   8.042   7.836   5.101  0.1160 -0.2784 -0.8787
27136SOL    HW181986   7.972   7.896   5.077 -0.7351 -0.6434  0.5538
27136SOL    HW281987   8.035   7.764   5.038 -1.7984 -1.0420  0.1185
27137SOL     OW81988   2.048   6.912   1.087  0.4250 -0.1080  0.4859
27137SOL    HW181989   2.106   6.879   1.156  0.1725 -0.0733  0.7147
27137SOL    HW281990   1.965   6.927   1.131  0.7701  1.7153  0.6029
27138SOL     OW81991   3.139   0.151   2.735  0.1272 -0.2530  0.3637
27138SOL    HW181992   3.089   0.214   2.682 -2.4769 -0.2136  2.6244
27138SOL    HW281993   3.212   0.202   2.769 -0.5515  0.8855  0.1772
27139SOL     OW81994   6.721   3.146   7.246  0.0867  0.3266  0.3009
27139SOL    HW181995   6.645   3.089   7.237  0.9580 -0.8198 -0.0126
27139SOL    HW281996   6.791   3.089   7.277  0.9731  1.2377  0.0403
27140SOL     OW81997   4.962   7.141   1.547  0.3543  0.2992  0.0906
27140SOL    HW181998   5.047   7.100   1.560 -0.3383 -2.2031 -2.2529
27140SOL    HW281999   4.916   7.081   1.488 -2.3411  2.5013 -0.2246
27141SOL     OW82000   6.838   2.392   5.390  0.1917  0.4478  0.2328
27141SOL    HW182001   6.904   2.453   5.356  0.5048 -0.9206 -1.8169
27141SOL    HW282002   6.781   2.375   5.315 -0.4517 -1.0248  1.0163
27142SOL     OW82003   4.276   6.484   1.035 -0.1623 -0.6188 -0.0358
27142SOL    HW182004   4.232   6.462   0.953  0.7004  0.4773 -0.8186
27142SOL    HW282005   4.360   6.521   1.008 -0.2546  0.6695  1.3119
27143SOL     OW82006   5.011   9.456   8.186 -0.5433 -0.0796 -0.1500
27143SOL    HW182007   4.943   9.503   8.138  0.5766  1.9456  0.1543
27143SOL    HW282008   4.978   9.452   8.276 -1.8153 -2.2961 -0.6145
27144SOL     OW82009   3.989   7.588   7.723  0.5117  0.2290 -0.0375
27144SOL    HW182010   4.017   7.531   7.795 -0.4400  0.2124  0.3429
27144SOL    HW282011   3.969   7.528   7.651 -1.6848 -0.1039  0.7501
27145SOL     OW82012   7.002   3.602   8.883 -0.0644  0.5310  0.1061
27145SOL    HW182013   6.948   3.537   8.837  1.2621  0.9044 -2.1107
27145SOL    HW282014   7.070   3.625   8.820 -0.1089  3.6298  1.0612
27146SOL     OW82015   9.009   9.594   4.941  0.4407  0.2922 -0.2144
27146SOL    HW182016   8.965   9.568   4.861 -0.2868 -5.1094  1.5901
27146SOL    HW282017   8.941   9.639   4.992  0.0297  0.9506 -1.2927
27147SOL     OW82018   0.770   4.426   4.469 -0.0449 -0.3953 -0.1134
27147SOL    HW182019   0.860   4.450   4.490  0.0475 -1.2071  0.4816
27147SOL    HW282020   0.717   4.497   4.505  0.3072 -0.2986  0.2189
27148SOL     OW82021   0.320   3.301   8.331  0.7759  0.1276 -0.0144
27148SOL    HW182022   0.275   3.220   8.307 -0.2851  0.3176  1.2082
27148SOL    HW282023   0.304   3.360   8.258 -0.7406  0.0872  0.2460
27149SOL     OW82024   7.697   4.486   6.654 -0.4635  0.0081 -0.3510
27149SOL    HW182025   7.721   4.396   6.629 -2.3455 -0.8159  0.6196
27149SOL    HW282026   7.717   4.538   6.576  0.8781 -1.1985 -0.8570
27150SOL     OW82027   4.878   5.175   6.954 -0.0250  0.0351 -0.1990
27150SOL    HW182028   4.805   5.155   7.013 -0.4085 -0.5313 -0.8543
27150SOL    HW282029   4.917   5.090   6.933  0.0173  0.2166 -0.8786
27151SOL     OW82030   9.660   8.139   3.823  0.1670 -0.2248  0.1737
27151SOL    HW182031   9.701   8.067   3.871  2.9952  0.3461 -1.1651
27151SOL    HW282032   9.703   8.218   3.857  0.6118  0.3748 -1.6742
27152SOL     OW82033   2.130   6.920   0.560 -0.2042  0.2158  0.7550
27152SOL    HW182034   2.168   7.006   0.573 -2.4531  1.1703  1.5933
27152SOL    HW282035   2.108   6.890   0.649 -2.0773  0.1097  0.3070
27153SOL     OW82036   3.519   0.458   0.567 -0.4988 -0.1006  0.0715
27153SOL    HW182037   3.458   0.530   0.551 -0.6047  0.4681  2.6195
27153SOL    HW282038   3.603   0.490   0.535 -0.9449  0.2751 -0.7603
27154SOL     OW82039   9.805   4.751   8.051  0.7220  0.2504 -0.3134
27154SOL    HW182040   9.856   4.716   8.125 -0.4768 -1.9188 -0.4175
27154SOL    HW282041   9.714   4.748   8.081  0.4357  2.0748 -0.8816
27155SOL     OW82042   3.063   9.024   2.995  0.1868 -0.6150  0.2619
27155SOL    HW182043   3.124   8.976   2.939  0.4375 -0.0943  0.0824
27155SOL    HW282044   2.976   8.995   2.967  0.3466 -1.3365  0.4996
27156SOL     OW82045   5.088   9.417   9.092 -0.2097  0.0127 -0.0908
27156SOL    HW182046   5.117   9.430   9.182  0.0992 -2.1124  0.1590
27156SOL    HW282047   5.168   9.396   9.044 -0.5073  0.2018 -0.6765
27157SOL     OW82048   5.767   8.447   8.465 -0.1697 -0.3132 -0.1232
27157SOL    HW182049   5.725   8.411   8.543 -0.1185  2.0360  1.1022
27157SOL    HW282050   5.851   8.481   8.497 -0.4813  1.4031 -0.9816
27158SOL     OW82051   8.336   5.634   5.409  0.2240 -0.2033  0.0066
27158SOL    HW182052   8.408   5.620   5.347  0.6479  1.1175  0.1672
27158SOL    HW282053   8.335   5.728   5.423  0.9065 -0.5296  2.9360
27159SOL     OW82054   1.238   6.281   1.772  0.4871 -0.0962  0.2369
27159SOL    HW182055   1.158   6.244   1.808  1.1558 -0.8683  0.9840
27159SOL    HW282056   1.221   6.375   1.765 -0.0745 -0.0945  1.4953
27160SOL     OW82057   4.098   4.662   0.863  0.0826  0.4693  0.0231
27160SOL    HW182058   4.177   4.650   0.811  1.0018 -0.5776  1.5973
27160SOL    HW282059   4.047   4.727   0.814  1.5257  0.5609 -1.4393
27161SOL     OW82060   7.190   8.420   0.557 -0.4887  0.2885 -0.0018
27161SOL    HW182061   7.226   8.470   0.630  1.6689  0.8063 -1.3404
27161SOL    HW282062   7.195   8.329   0.584  2.5317  0.2719 -0.3183
27162SOL     OW82063   9.964   8.373   1.901 -0.6989 -0.2259  0.6143
27162SOL    HW182064   9.878   8.408   1.878  0.0537  3.1726  2.3018
27162SOL    HW282065   9.951   8.333   1.987 -1.2917 -3.3118 -0.7904
27163SOL     OW82066   4.352   8.375   4.138 -0.0834  0.6983  0.4720
27163SOL    HW182067   4.401   8.347   4.216  2.5084  1.5556 -0.7219
27163SOL    HW282068   4.385   8.463   4.120  0.0068  0.2241 -2.0118
27164SOL     OW82069   6.226   0.437   5.923  0.0369 -0.6895  0.1768
27164SOL    HW182070   6.309   0.476   5.894 -1.7163  0.8703 -3.3111
27164SOL    HW282071   6.194   0.498   5.990  1.0227 -0.5779  0.5736
27165SOL     OW82072   7.138   0.582   2.529  0.0471  0.6936 -0.4288
27165SOL    HW182073   7.182   0.581   2.444 -2.7306  0.9270 -1.9761
27165SOL    HW282074   7.107   0.672   2.539  0.4426  0.7051  0.9365
27166SOL     OW82075   7.241   8.905   2.439  0.2577 -0.0847 -0.0136
27166SOL    HW182076   7.237   8.983   2.494  0.6953 -0.1728  0.1467
27166SOL    HW282077   7.333   8.898   2.413  0.5176 -1.3115  1.1090
27167SOL     OW82078   2.337   9.560   6.351  0.4392  0.5068  0.0154
27167SOL    HW182079   2.393   9.494   6.309 -1.2444 -0.7153 -0.3886
27167SOL    HW282080   2.271   9.509   6.398 -2.4803  1.8336 -2.3523
27168SOL     OW82081   0.818   6.080   3.970  0.0894  0.4959  0.4369
27168SOL    HW182082   0.884   6.148   3.983  0.4639  0.2862 -0.2879
27168SOL    HW282083   0.837   6.015   4.037  2.0544 -0.6306 -1.0933
27169SOL     OW82084   1.130   8.038   3.950  0.2838  0.4419  0.2336
27169SOL    HW182085   1.177   8.107   3.905  0.2680  0.6506  0.5335
27169SOL    HW282086   1.199   7.983   3.988  0.3290 -0.4356 -1.0637
27170SOL     OW82087   5.985   8.245   7.382 -0.0464  0.2106  0.1032
27170SOL    HW182088   6.002   8.194   7.461 -0.3314  0.1658  0.1345
27170SOL    HW282089   5.991   8.182   7.310  0.6762  0.3381  0.0429
27171SOL     OW82090   2.455   4.093   3.071  0.4624  0.5801  0.1057
27171SOL    HW182091   2.544   4.115   3.097  1.2773  0.0786 -2.0705
27171SOL    HW282092   2.416   4.177   3.045  0.9921  0.5608 -0.8141
27172SOL     OW82093   1.022   4.109   9.613  0.4497 -0.1571  0.0562
27172SOL    HW182094   1.023   4.143   9.523 -2.4725 -0.0592 -0.0282
27172SOL    HW282095   1.028   4.014   9.602  1.0143 -0.0955 -0.1845
27173SOL     OW82096   9.181   8.433   0.263 -0.0760 -0.1997  0.4924
27173SOL    HW182097   9.105   8.474   0.303  1.0701  1.4470  1.0550
27173SOL    HW282098   9.215   8.498   0.201  0.0364 -1.4797 -0.8753
27174SOL     OW82099   9.411   0.630   2.728 -0.3933  0.2779 -0.1758
27174SOL    HW182100   9.420   0.548   2.777 -1.4936  0.0803 -0.2889
27174SOL    HW282101   9.344   0.611   2.663 -1.3672  1.5692  0.4240
27175SOL     OW82102   3.861   1.129   9.104 -0.5348 -0.9309  0.7008
27175SOL    HW182103   3.798   1.087   9.162 -0.0497 -0.7640  1.3647
27175SOL    HW282104   3.811   1.196   9.058 -0.5236  0.4038  2.4976
27176SOL     OW82105   5.812   2.280   6.423 -0.0445 -0.0932  0.0074
27176SOL    HW182106   5.791   2.203   6.476 -1.8328  0.9386  0.9196
27176SOL    HW282107   5.743   2.282   6.356  0.8392 -0.0751 -0.9265
27177SOL     OW82108   5.887   2.818   4.830 -0.5393  0.1957 -0.6196
27177SOL    HW182109   5.886   2.767   4.911  0.2000  0.8285 -0.2022
27177SOL    HW282110   5.881   2.753   4.761 -1.6540 -0.3275 -0.0557
27178SOL     OW82111   3.028   5.815   0.324 -0.2763 -0.4670 -0.2631
27178SOL    HW182112   2.963   5.885   0.327  0.5822  0.3339  1.4741
27178SOL    HW282113   3.103   5.854   0.278 -0.3928 -0.8207 -0.7638
27179SOL     OW82114   7.869   3.941   2.024  0.2396 -0.0431 -0.1159
27179SOL    HW182115   7.935   3.872   2.025 -1.5199 -1.8078 -0.4394
27179SOL    HW282116   7.880   3.984   1.940  1.2083 -0.0369 -0.0014
27180SOL     OW82117   2.835   8.148   6.989 -0.3580 -0.3479 -0.0179
27180SOL    HW182118   2.790   8.117   6.910  0.3731 -0.2897 -0.4624
27180SOL    HW282119   2.791   8.230   7.011 -1.3321 -0.9448  0.3122
27181SOL     OW82120   3.536   8.428   6.601  0.2175 -0.0462 -0.1780
27181SOL    HW182121   3.594   8.389   6.535  0.5265 -0.0209  0.0752
27181SOL    HW282122   3.575   8.403   6.684  0.2369  0.5287 -0.0091
27182SOL     OW82123   2.725   2.212   9.600  0.1433  0.2137  0.3284
27182SOL    HW182124   2.651   2.271   9.584 -0.6392 -0.3932  1.5585
27182SOL    HW282125   2.775   2.255   9.669  1.0745  0.7038 -0.6130
27183SOL     OW82126   6.998   8.406   4.991  0.2863  0.4489 -0.0032
27183SOL    HW182127   7.068   8.433   5.051  0.5772  0.4460 -0.3369
27183SOL    HW282128   6.979   8.484   4.940 -0.9859  0.8774  1.0688
27184SOL     OW82129   5.474   8.081   7.024  0.2294 -0.1620 -1.3538
27184SOL    HW182130   5.480   8.014   7.092  0.3728  2.1820  1.1353
27184SOL    HW282131   5.388   8.069   6.986  0.6850 -2.4382 -1.8231
27185SOL     OW82132   9.614   2.235   7.273 -0.2976  0.2784 -0.3869
27185SOL    HW182133   9.600   2.208   7.363 -0.1262  0.1428 -0.3987
27185SOL    HW282134   9.562   2.173   7.221 -0.4071  0.3655 -0.3804
27186SOL     OW82135   2.190   6.993   2.006  0.1939 -0.2461  0.2711
27186SOL    HW182136   2.221   7.064   2.061  1.5783 -0.2233 -0.4899
27186SOL    HW282137   2.102   7.021   1.978  0.9485  1.4913 -0.5325
27187SOL     OW82138   0.593   3.937   4.631  0.4271  0.0812 -0.2141
27187SOL    HW182139   0.575   4.027   4.605 -2.7994 -0.1180  0.8396
27187SOL    HW282140   0.571   3.934   4.724 -0.9872 -2.0583 -0.5352
27188SOL     OW82141   7.685   6.455   4.460 -0.1195  0.4586  0.5997
27188SOL    HW182142   7.620   6.390   4.486  0.0990 -0.7709 -1.7144
27188SOL    HW282143   7.768   6.409   4.462  0.5629  1.6519  2.2096
27189SOL     OW82144   1.988   8.931   0.132 -0.4135  0.1126  0.0382
27189SOL    HW182145   1.928   8.862   0.104 -1.1203 -0.0903  1.9258
27189SOL    HW282146   2.062   8.923   0.073  0.2153 -3.2702  1.0515
27190SOL     OW82147   4.915   7.378   1.335 -0.2173 -0.0113  0.4021
27190SOL    HW182148   4.920   7.320   1.411  0.9115 -0.1156  0.2631
27190SOL    HW282149   5.006   7.401   1.316 -0.5161  0.3874 -0.6328
27191SOL     OW82150   2.356   8.079   7.437  0.5025  0.1300  0.3427
27191SOL    HW182151   2.330   8.171   7.440  0.9277  0.2386  0.7499
27191SOL    HW282152   2.390   8.066   7.348  2.7140  0.9971  1.0047
27192SOL     OW82153   3.043   7.077   7.941  0.1420 -0.0316 -0.0407
27192SOL    HW182154   2.962   7.103   7.895  0.3551  0.7913  0.0333
27192SOL    HW282155   3.051   6.983   7.924 -0.2584  0.0879 -0.9562
27193SOL     OW82156   2.162   0.575   1.934  0.2304  0.3409  0.2722
27193SOL    HW182157   2.182   0.613   1.848  0.6654  1.9768  1.0453
27193SOL    HW282158   2.210   0.493   1.936  0.1000  0.2076 -1.1029
27194SOL     OW82159   0.682   0.522   1.069 -0.5490 -0.5384 -0.0093
27194SOL    HW182160   0.682   0.435   1.027 -0.6614 -0.4882 -0.1177
27194SOL    HW282161   0.590   0.535   1.095 -0.5385 -0.4380 -0.0232
27195SOL     OW82162   6.112   2.300   9.442 -0.2027 -0.2322  0.1260
27195SOL    HW182163   6.047   2.249   9.392  0.9010 -0.2111 -1.4231
27195SOL    HW282164   6.092   2.391   9.421  0.8183 -0.2534 -1.0811
27196SOL     OW82165   0.996   8.610   4.359  0.0353 -0.0723  0.1585
27196SOL    HW182166   0.937   8.630   4.432  1.3404  0.5553  1.0778
27196SOL    HW282167   0.960   8.658   4.285 -0.3125  0.7529  0.8400
27197SOL     OW82168   8.170   6.637   5.449 -0.1750  0.0816  0.0316
27197SOL    HW182169   8.153   6.586   5.529 -1.4224 -1.1503 -0.9678
27197SOL    HW282170   8.099   6.700   5.444  0.1317  0.4393  0.0914
27198SOL     OW82171   0.111   7.423   4.803 -0.2960 -0.4995 -0.0724
27198SOL    HW182172   0.180   7.420   4.737 -1.1065 -0.1970 -0.9671
27198SOL    HW282173   0.148   7.381   4.880  1.2968  0.6944 -0.1474
27199SOL     OW82174   9.735   4.147   8.522  0.2130 -0.1150  0.6330
27199SOL    HW182175   9.748   4.074   8.583  0.3489  1.4110  2.5430
27199SOL    HW282176   9.645   4.176   8.539 -0.3236 -0.6585 -1.0999
27200SOL     OW82177   9.357   4.475   2.112  0.3163  0.7183 -0.2545
27200SOL    HW182178   9.433   4.528   2.089  0.8467  0.0595 -0.0824
27200SOL    HW282179   9.325   4.512   2.194  0.2043  1.2435 -0.5300
27201SOL     OW82180   9.273   2.365   8.975 -0.0938 -0.2814  0.6095
27201SOL    HW182181   9.267   2.444   9.028  0.0983 -0.2026  0.5168
27201SOL    HW282182   9.215   2.303   9.017 -0.1275 -0.1402  0.7725
27202SOL     OW82183   6.547   3.308   3.269  0.4901  0.7560  0.1389
27202SOL    HW182184   6.452   3.306   3.283  0.4593 -0.7935 -0.1040
27202SOL    HW282185   6.583   3.292   3.356  0.4413 -1.1711 -0.1403
27203SOL     OW82186   7.378   1.822   4.258  0.1933  0.6575  0.5267
27203SOL    HW182187   7.436   1.772   4.315 -1.1748  0.7776  2.0922
27203SOL    HW282188   7.394   1.786   4.170 -0.2266 -2.0488  1.4713
27204SOL     OW82189   4.582   0.938   9.466 -0.1014  0.4482  0.7232
27204SOL    HW182190   4.668   0.974   9.485 -0.5165  1.7967  0.1743
27204SOL    HW282191   4.599   0.857   9.416  0.8392  0.1916  1.4470
27205SOL     OW82192   1.713   7.096   6.274  0.0703 -0.3294  0.4127
27205SOL    HW182193   1.623   7.064   6.275  0.0765 -0.3455  0.4448
27205SOL    HW282194   1.766   7.019   6.251 -0.0950  0.1032 -1.5375
27206SOL     OW82195   2.779   0.178   5.737 -0.0332  0.1301  0.3456
27206SOL    HW182196   2.691   0.173   5.699  1.1464 -1.4710 -2.4963
27206SOL    HW282197   2.791   0.092   5.778  0.9101 -0.5289 -1.2089
27207SOL     OW82198   5.842   4.876   5.665 -0.2646 -0.0589 -0.1239
27207SOL    HW182199   5.849   4.874   5.760 -1.2549 -1.2814 -0.0466
27207SOL    HW282200   5.860   4.786   5.638 -0.7457  0.1058 -1.0268
27208SOL     OW82201   3.641   4.581   8.738 -0.0230  0.2156 -0.5012
27208SOL    HW182202   3.576   4.637   8.781 -0.0752  0.7740 -1.2862
27208SOL    HW282203   3.724   4.627   8.748  0.0393  0.1250 -0.5968
27209SOL     OW82204   3.038   5.478   6.135  0.0357  0.1462  0.0975
27209SOL    HW182205   3.047   5.392   6.094  1.3039 -1.0662  2.6666
27209SOL    HW282206   3.127   5.514   6.136 -0.5342  1.7582 -1.3188
27210SOL     OW82207   5.534   9.921   2.225  0.0215  0.5398  0.1810
27210SOL    HW182208   5.616   9.966   2.205  0.0176  1.2896  1.7415
27210SOL    HW282209   5.488   9.917   2.141  1.6742 -0.0051 -0.7583
27211SOL     OW82210   4.613   9.738   5.977 -0.3711 -0.1108 -0.1327
27211SOL    HW182211   4.546   9.787   6.024 -0.3446 -0.8044  0.6393
27211SOL    HW282212   4.658   9.687   6.044  2.6368  2.1972 -0.1614
27212SOL     OW82213   6.168   3.983   7.925  0.4906 -0.1482  0.3969
27212SOL    HW182214   6.141   4.063   7.878  0.2792 -1.9824 -2.9728
27212SOL    HW282215   6.086   3.937   7.941  0.8156 -1.0634 -0.5041
27213SOL     OW82216   2.615   9.034   6.742 -0.3640  0.0248 -0.3619
27213SOL    HW182217   2.652   9.121   6.758  1.1957 -0.7459  0.5228
27213SOL    HW282218   2.624   8.989   6.826 -0.3990 -1.2314 -1.0113
27214SOL     OW82219   5.613   5.743   3.437 -0.6290  0.5335 -0.7108
27214SOL    HW182220   5.589   5.788   3.518 -0.7148  0.6937 -0.8230
27214SOL    HW282221   5.653   5.812   3.383  1.7956 -0.0918  0.1760
27215SOL     OW82222   3.302   0.767   2.613  0.4116 -0.7342  0.1684
27215SOL    HW182223   3.305   0.768   2.708 -1.4491 -2.9755  0.3444
27215SOL    HW282224   3.210   0.755   2.592  0.9158 -1.5278 -1.8608
27216SOL     OW82225   1.426   6.876   2.099  0.6166  0.1161 -0.6844
27216SOL    HW182226   1.459   6.941   2.161  1.1432 -0.5465 -0.2646
27216SOL    HW282227   1.331   6.891   2.099  0.4822 -0.4912  1.0222
27217SOL     OW82228   5.679   7.010   2.840  0.4918 -0.6280  0.3120
27217SOL    HW182229   5.588   7.042   2.839 -0.0714 -2.1213  0.6275
27217SOL    HW282230   5.732   7.088   2.858 -0.8288  0.0654  1.4127
27218SOL     OW82231   0.094   6.079   0.511  0.0356  0.4354  0.1336
27218SOL    HW182232   0.016   6.024   0.510 -0.7913  1.5880 -0.3638
27218SOL    HW282233   0.144   6.051   0.435  0.9696 -1.4461  1.3483
27219SOL     OW82234   9.355   6.036   6.856  0.2564 -0.1452 -0.1570
27219SOL    HW182235   9.339   5.954   6.809 -0.4631  0.2941 -0.7011
27219SOL    HW282236   9.402   6.091   6.793 -0.7353  0.4561 -0.3916
27220SOL     OW82237   2.459   7.276   4.445 -0.0330 -0.4373  0.2208
27220SOL    HW182238   2.394   7.216   4.410  1.1488 -2.1056  0.7207
27220SOL    HW282239   2.410   7.334   4.503 -1.6157  0.8079 -2.2105
27221SOL     OW82240   2.882   0.349   7.983  0.5754  0.0480 -0.7158
27221SOL    HW182241   2.945   0.282   8.010  0.5545 -0.7821 -2.5926
27221SOL    HW282242   2.809   0.300   7.945 -1.3903  0.9825  1.6118
27222SOL     OW82243   3.592   3.915   2.174 -0.5080  0.5100  0.1619
27222SOL    HW182244   3.587   3.955   2.262  1.0614  1.7739 -0.2690
27222SOL    HW282245   3.617   3.988   2.117  0.0934 -0.6241 -1.0678
27223SOL     OW82246   9.976   8.082   6.980 -0.2288  0.0599  0.1800
27223SOL    HW182247  10.030   8.127   7.046 -1.0422  0.2287  0.7379
27223SOL    HW282248   9.918   8.026   7.031 -0.4106 -0.3148 -0.4348
27224SOL     OW82249   5.957   6.846   9.405 -0.0712  0.3643  0.2384
27224SOL    HW182250   5.964   6.802   9.490 -4.0401  1.8052  1.5434
27224SOL    HW282251   5.978   6.938   9.423 -0.0989  0.5306 -0.5350
27225SOL     OW82252   8.245   7.044   2.086  0.2908  0.0154  0.0340
27225SOL    HW182253   8.150   7.037   2.077  0.1364  0.9204  0.8992
27225SOL    HW282254   8.276   6.953   2.081 -0.9861 -0.7743  3.6288
27226SOL     OW82255   1.049   0.425   8.977 -0.0331 -0.3266 -0.3578
27226SOL    HW182256   1.076   0.504   9.023  1.1383 -1.2335  0.5816
27226SOL    HW282257   0.976   0.391   9.029  0.9831 -1.0947  0.6240
27227SOL     OW82258   6.140   3.076   3.170  0.0549  0.3210  0.3084
27227SOL    HW182259   6.045   3.085   3.183 -0.1328 -1.6142  0.6218
27227SOL    HW282260   6.150   3.058   3.077  0.0744  0.1854  0.3362
27228SOL     OW82261   9.283   6.752   0.874  0.2884 -0.1422 -0.1290
27228SOL    HW182262   9.218   6.822   0.874 -1.2783 -1.5382 -0.1851
27228SOL    HW282263   9.233   6.672   0.857  2.0137 -1.2959 -0.0892
27229SOL     OW82264   5.597   6.811   0.646  0.3064  0.3690  0.1325
27229SOL    HW182265   5.636   6.828   0.560 -0.0383  1.4362  0.1668
27229SOL    HW282266   5.505   6.792   0.627 -0.1379  2.1370  0.3498
27230SOL     OW82267   2.985   5.792   7.659 -0.4023  0.0507  0.3110
27230SOL    HW182268   3.077   5.800   7.686 -0.2489 -0.6753  0.0204
27230SOL    HW282269   2.943   5.870   7.695  0.1674 -0.0051  1.1279
27231SOL     OW82270   8.687   3.776   6.558  0.7420  0.4399 -0.4483
27231SOL    HW182271   8.651   3.719   6.626 -0.3067  0.6047 -0.8507
27231SOL    HW282272   8.743   3.837   6.605  2.1521 -1.1077 -0.0431
27232SOL     OW82273   1.680   1.728   3.240  0.1496 -0.3581 -0.0033
27232SOL    HW182274   1.656   1.636   3.223  0.6361 -0.4853 -0.0245
27232SOL    HW282275   1.597   1.772   3.253 -0.0616 -0.9913  0.9634
27233SOL     OW82276   4.332   8.270   6.444 -0.1764  0.0207 -0.3156
27233SOL    HW182277   4.256   8.214   6.426  0.7777 -1.7620  0.9128
27233SOL    HW282278   4.406   8.222   6.407  0.7483  0.1772  1.2512
27234SOL     OW82279   6.307   9.962   1.401 -0.0832 -0.7963  0.2177
27234SOL    HW182280   6.358   9.885   1.376 -2.2601 -2.8738  1.6933
27234SOL    HW282281   6.218   9.941   1.371 -0.7298  1.1736  0.6533
27235SOL     OW82282   5.408   8.121   6.436 -0.5369 -0.3776 -0.0830
27235SOL    HW182283   5.460   8.126   6.356 -2.4857 -2.7566 -1.6579
27235SOL    HW282284   5.419   8.031   6.466 -1.9435 -0.2917  0.7849
27236SOL     OW82285   1.598   6.999   4.376 -0.1016  0.2836  0.3045
27236SOL    HW182286   1.579   7.090   4.399 -1.3011  1.0803 -3.2391
27236SOL    HW282287   1.514   6.963   4.348  0.8555 -0.9224 -1.2363
27237SOL     OW82288   6.790   8.074   0.556 -0.9256  0.6081 -0.3977
27237SOL    HW182289   6.877   8.039   0.538 -1.6100 -1.0766 -0.6336
27237SOL    HW282290   6.796   8.166   0.533  1.3741  1.0580  1.5878
27238SOL     OW82291   6.221   3.630   3.102  0.5118 -0.5088  0.3967
27238SOL    HW182292   6.210   3.706   3.159  0.1218  0.7142 -1.2161
27238SOL    HW282293   6.315   3.622   3.090  0.5194  0.5017 -0.3639
27239SOL     OW82294   5.633   7.019   7.626  0.0033  0.1066 -0.3942
27239SOL    HW182295   5.687   6.969   7.687 -1.9762  0.0133  1.3771
27239SOL    HW282296   5.660   6.988   7.539  0.4801 -2.3171  0.5555
27240SOL     OW82297   5.626   1.345   6.075 -0.2035  0.0996 -0.3658
27240SOL    HW182298   5.596   1.369   6.162  0.4933  0.6762 -0.2669
27240SOL    HW282299   5.709   1.300   6.090 -0.0428  0.2692 -0.7270
27241SOL     OW82300   4.895   6.559   7.188  0.1762 -0.0292  0.4322
27241SOL    HW182301   4.935   6.616   7.122  0.4933  1.0003  1.4757
27241SOL    HW282302   4.951   6.482   7.191 -0.1829 -0.3645 -0.9188
27242SOL     OW82303   2.722   8.306   0.076  0.2436  0.2546 -0.5117
27242SOL    HW182304   2.692   8.377   0.020 -0.7373 -0.7796 -1.3593
27242SOL    HW282305   2.737   8.233   0.015  1.0822 -0.3075  0.3459
27243SOL     OW82306   7.587   2.494   9.391  0.4132  0.0086 -0.0348
27243SOL    HW182307   7.670   2.454   9.414 -0.2013 -0.9215  0.6079
27243SOL    HW282308   7.570   2.557   9.462  0.7065  0.4125 -0.3203
27244SOL     OW82309   6.156   6.629   3.384  0.3690 -0.1431 -0.3842
27244SOL    HW182310   6.174   6.669   3.299 -1.0029  0.2194 -0.5149
27244SOL    HW282311   6.186   6.538   3.374  0.8042  0.0602 -1.0336
27245SOL     OW82312   9.120   8.864   0.035 -0.5593 -0.1697  0.3257
27245SOL    HW182313   9.032   8.891   0.008 -0.7169 -0.8732  0.1152
27245SOL    HW282314   9.117   8.769   0.034  0.5087 -0.2121 -0.7098
27246SOL     OW82315   3.811   6.443   8.989  0.2932  0.0913 -0.2665
27246SOL    HW182316   3.791   6.357   9.024 -0.0647  0.5601  0.7193
27246SOL    HW282317   3.752   6.503   9.036  1.6475  1.0689  0.2587
27247SOL     OW82318   3.917   7.645   8.136 -0.8981 -0.5829  0.0026
27247SOL    HW182319   3.958   7.616   8.218 -0.6815 -2.0240 -0.5896
27247SOL    HW282320   3.942   7.737   8.128  1.0767 -1.0431  0.3761
27248SOL     OW82321   4.512   2.710   7.735  0.4012  0.0425 -0.2248
27248SOL    HW182322   4.441   2.774   7.740  0.6206  0.3153 -0.5559
27248SOL    HW282323   4.585   2.751   7.781  0.7357  0.2943 -0.9643
27249SOL     OW82324   4.513   0.349   3.965  0.5657  0.3872  0.3328
27249SOL    HW182325   4.579   0.303   3.912 -1.9638 -2.3423 -0.6969
27249SOL    HW282326   4.503   0.434   3.923  1.2804 -0.3143 -1.3290
27250SOL     OW82327   9.066   3.808   3.536  0.3773 -0.9058 -0.5392
27250SOL    HW182328   9.112   3.839   3.614 -2.3585  0.9345  0.5005
27250SOL    HW282329   9.063   3.884   3.478 -1.1091 -0.9999 -0.6380
27251SOL     OW82330   5.933   9.559   8.344  0.0141  0.5771 -0.7151
27251SOL    HW182331   5.904   9.557   8.253 -1.5922 -2.6003 -0.2658
27251SOL    HW282332   6.011   9.504   8.346 -1.6468 -1.9171  0.1934
27252SOL     OW82333   2.821  10.004   1.094 -0.1145  0.0588  0.8015
27252SOL    HW182334   2.731   9.986   1.122 -0.8060 -0.3839 -1.5216
27252SOL    HW282335   2.866   9.920   1.102 -0.1351  0.0756  1.1192
27253SOL     OW82336   3.836   3.201   9.153 -0.3547  0.4444 -0.0262
27253SOL    HW182337   3.855   3.162   9.239 -0.6520 -1.2249 -0.6653
27253SOL    HW282338   3.760   3.256   9.168  0.8703  1.8793  1.1934
27254SOL     OW82339   9.928   7.594   4.681 -0.3247 -0.0126  0.1965
27254SOL    HW182340   9.984   7.548   4.744 -0.2154 -1.0601 -0.6269
27254SOL    HW282341   9.947   7.551   4.597 -2.5677 -0.6058 -0.0731
27255SOL     OW82342   0.675   0.688   0.276  0.1333  0.1002  0.6074
27255SOL    HW182343   0.771   0.688   0.275  0.1422 -1.1731 -0.6449
27255SOL    HW282344   0.651   0.777   0.249  0.9758  0.0597 -0.3357
27256SOL     OW82345   7.066   4.358   5.050  0.3320 -0.0051  0.1249
27256SOL    HW182346   7.050   4.402   5.133  0.2876 -1.0996  0.7159
27256SOL    HW282347   7.003   4.286   5.048  0.8477 -0.4595 -0.4895
27257SOL     OW82348   8.367   9.408   7.250  0.0196  0.2571  0.0008
27257SOL    HW182349   8.444   9.352   7.259  0.0916  0.4587  0.6735
27257SOL    HW282350   8.387   9.464   7.175  0.9603  0.9685  0.7463
27258SOL     OW82351   5.837   5.453   0.520  0.0120 -0.0588  0.0832
27258SOL    HW182352   5.762   5.398   0.497  1.2792 -1.8128 -0.0350
27258SOL    HW282353   5.905   5.427   0.458  1.0529  0.7698  0.8511
27259SOL     OW82354   7.051   4.161   2.562  0.3520 -0.1407  0.3550
27259SOL    HW182355   7.036   4.251   2.532 -0.9058 -0.3879  0.2135
27259SOL    HW282356   7.013   4.157   2.649 -0.3301 -0.7491  0.0406
27260SOL     OW82357   5.442   2.305   4.754 -0.0475 -0.1907 -0.3516
27260SOL    HW182358   5.388   2.338   4.682 -0.5969 -0.5592 -0.1179
27260SOL    HW282359   5.532   2.319   4.725 -0.2591  0.7229 -0.6207
27261SOL     OW82360   5.602   4.806   3.378  0.2426  0.3044 -0.1944
27261SOL    HW182361   5.626   4.897   3.361  0.7757  0.2806  0.3718
27261SOL    HW282362   5.648   4.784   3.459 -1.4769  0.1372  0.7824
27262SOL     OW82363   2.395   1.147   4.911 -0.2095 -0.1360 -0.6584
27262SOL    HW182364   2.443   1.229   4.913  2.4476 -1.5877 -0.3151
27262SOL    HW282365   2.432   1.098   4.837  0.2801 -2.0771  0.7764
27263SOL     OW82366   0.984   2.540   6.806 -0.7537  0.0526 -0.2888
27263SOL    HW182367   0.946   2.478   6.745  1.6486 -0.8871 -0.9315
27263SOL    HW282368   1.078   2.538   6.788 -0.0015  0.2916  2.8924
27264SOL     OW82369   8.343   9.505   5.003 -0.1536 -0.1084 -0.1514
27264SOL    HW182370   8.278   9.434   4.998 -0.0354 -0.3206  0.9612
27264SOL    HW282371   8.355   9.518   5.097  1.9316 -0.5657 -0.3167
27265SOL     OW82372   8.527   6.278   1.862  0.1089 -0.1851  0.0468
27265SOL    HW182373   8.552   6.196   1.819  0.2734  0.4638 -1.1482
27265SOL    HW282374   8.586   6.284   1.937  2.0374  0.1516 -1.3976
27266SOL     OW82375   2.527   1.995   3.126 -0.3425 -0.6222  0.1119
27266SOL    HW182376   2.478   2.076   3.110 -0.7666 -0.9420 -0.2387
27266SOL    HW282377   2.611   2.010   3.083 -0.4274 -0.3715  0.0288
27267SOL     OW82378   6.782   1.236   3.344  0.0470 -0.1248 -0.5435
27267SOL    HW182379   6.774   1.321   3.300  2.5663  1.4445  1.7257
27267SOL    HW282380   6.849   1.189   3.294  0.7855  0.4590 -0.1208
27268SOL     OW82381   8.073   1.043   7.237  0.3767  0.2785  0.4646
27268SOL    HW182382   8.103   1.086   7.317  0.0939  3.3073 -0.9319
27268SOL    HW282383   8.153   1.029   7.186  0.4583 -0.8709  0.8812
27269SOL     OW82384   8.881   1.805   5.505 -0.1647 -0.4973  0.8137
27269SOL    HW182385   8.850   1.893   5.485 -0.6680 -0.7202  0.6022
27269SOL    HW282386   8.976   1.815   5.516  0.0594 -0.2404 -1.0466
27270SOL     OW82387   7.995   8.494   4.888 -0.1437 -0.5343 -0.1452
27270SOL    HW182388   7.906   8.509   4.921 -0.3908  1.4255 -1.5450
27270SOL    HW282389   7.990   8.408   4.846 -1.0355 -0.9935  0.8662
27271SOL     OW82390   2.380   4.549   3.964 -0.7944 -0.2213 -0.0401
27271SOL    HW182391   2.461   4.596   3.944 -0.3668 -1.2895 -0.8799
27271SOL    HW282392   2.312   4.617   3.965 -0.1399  0.4596 -0.8798
27272SOL     OW82393   1.756   1.223   6.257  0.0140 -0.3597  0.0124
27272SOL    HW182394   1.775   1.316   6.271  0.4887 -0.2085 -1.4361
27272SOL    HW282395   1.780   1.208   6.166 -1.9302 -1.4416 -0.3693
27273SOL     OW82396   4.495   5.503   2.378  0.0122  0.7643  0.3741
27273SOL    HW182397   4.520   5.547   2.459  0.7682  1.4896 -0.2216
27273SOL    HW282398   4.456   5.421   2.405  0.5674  0.8443  1.4618
27274SOL     OW82399   7.349   1.192   0.142  0.5749  0.2972  0.2714
27274SOL    HW182400   7.277   1.234   0.189 -0.3144 -1.6935  0.7490
27274SOL    HW282401   7.320   1.188   0.051 -0.0043 -0.6405  0.4901
27275SOL     OW82402   6.270   5.373   9.751  0.2646 -0.1313  0.1503
27275SOL    HW182403   6.331   5.438   9.716 -0.7209  0.7954  0.0993
27275SOL    HW282404   6.192   5.423   9.773 -0.6924 -1.3684 -0.3175
27276SOL     OW82405   4.385   2.718   8.551  0.1237  0.1239  0.6578
27276SOL    HW182406   4.318   2.684   8.492  0.0133 -1.3414  1.5717
27276SOL    HW282407   4.456   2.746   8.494  1.2239 -3.7784 -0.2258
27277SOL     OW82408   7.144   2.410   8.996  0.5044 -0.0330 -0.1055
27277SOL    HW182409   7.222   2.358   9.014 -1.0875 -1.9499  1.8267
27277SOL    HW282410   7.075   2.345   8.980 -1.1543  1.5118  0.4107
27278SOL     OW82411   3.264   0.641   6.731 -1.0045 -0.6029  0.1449
27278SOL    HW182412   3.300   0.612   6.814 -1.1106  1.3704  0.9127
27278SOL    HW282413   3.172   0.662   6.751 -0.9521  0.1641 -0.3889
27279SOL     OW82414   5.164   9.288   2.473  0.0403  0.3530 -0.6188
27279SOL    HW182415   5.092   9.342   2.438 -2.4373 -1.6321  1.0622
27279SOL    HW282416   5.190   9.233   2.399 -0.2401  1.0053 -1.2236
27280SOL     OW82417   2.240   4.290   6.685  0.0571 -0.0625  0.1266
27280SOL    HW182418   2.189   4.211   6.700  0.4304 -0.4112 -0.3972
27280SOL    HW282419   2.213   4.319   6.598  0.4501 -0.0220  0.0176
27281SOL     OW82420   4.477   8.705   3.658 -0.7634  0.1353  0.0994
27281SOL    HW182421   4.431   8.671   3.735  0.8486  0.3567  1.2195
27281SOL    HW282422   4.500   8.627   3.608  0.8151 -0.3042  1.4236
27282SOL     OW82423   0.575   4.011   0.113 -0.0895 -1.0011  0.5625
27282SOL    HW182424   0.570   3.981   0.204  1.0726  0.6271  1.2110
27282SOL    HW282425   0.486   4.040   0.092  0.4345  2.9887  2.8535
27283SOL     OW82426   8.350   1.671   0.000  0.4328 -0.1697 -0.6472
27283SOL    HW182427   8.342   1.645   0.092 -0.1439 -0.5347 -0.7961
27283SOL    HW282428   8.341   1.766   0.002 -0.7906 -0.2667 -0.4366
27284SOL     OW82429   5.817   4.663   6.117  0.0583  0.3837  0.1286
27284SOL    HW182430   5.829   4.661   6.212  1.2390  1.2491  0.0271
27284SOL    HW282431   5.866   4.588   6.084 -1.6975 -0.8915  0.2879
27285SOL     OW82432   3.208   2.124   9.914 -0.1810  0.1894 -0.1566
27285SOL    HW182433   3.199   2.173   9.833 -1.4378 -2.0998 -1.4797
27285SOL    HW282434   3.136   2.061   9.913  1.1411 -1.4785  1.5817
27286SOL     OW82435   5.076   3.661   9.193  0.2711 -0.6748  0.7224
27286SOL    HW182436   4.997   3.608   9.184 -0.7132  1.0925 -2.8890
27286SOL    HW282437   5.052   3.730   9.256 -0.8997 -0.4976  0.1109
27287SOL     OW82438   3.912   2.098   3.296  0.0801  0.0517 -0.1751
27287SOL    HW182439   3.860   2.171   3.330 -0.1145 -0.1691  0.0032
27287SOL    HW282440   3.994   2.102   3.346 -0.9801 -1.5163  1.8542
27288SOL     OW82441   6.871   6.196   5.584  0.5727 -0.6610  0.1245
27288SOL    HW182442   6.905   6.199   5.495 -0.8174 -0.7278 -0.4405
27288SOL    HW282443   6.803   6.264   5.586 -2.3779 -3.3527 -0.1942
27289SOL     OW82444   8.431   0.634   1.454 -0.1373  0.2637  0.1005
27289SOL    HW182445   8.403   0.589   1.534 -0.2182  0.2688  0.0750
27289SOL    HW282446   8.378   0.595   1.385 -0.1737  0.3641  0.0711
27290SOL     OW82447   7.403   6.902   7.599 -0.6292  0.0118 -0.0064
27290SOL    HW182448   7.476   6.841   7.595 -1.0681 -0.5051 -0.1989
27290SOL    HW282449   7.423   6.960   7.672 -0.5009 -0.7344  0.5539
27291SOL     OW82450   4.215   2.905   4.379 -0.5681  0.2981  0.2030
27291SOL    HW182451   4.143   2.949   4.334 -0.8966  0.2225  0.6409
27291SOL    HW282452   4.231   2.960   4.456 -0.7471 -0.1525  0.5689
27292SOL     OW82453   1.387   4.549   8.046  0.1728 -0.2401  0.2610
27292SOL    HW182454   1.443   4.592   8.110 -0.3550 -1.5177  1.6442
27292SOL    HW282455   1.361   4.467   8.087 -1.2991 -0.4934 -1.0404
27293SOL     OW82456   4.885   4.626   2.333  0.6250 -0.1548  0.2661
27293SOL    HW182457   4.879   4.721   2.326 -0.9386 -0.2282  0.3160
27293SOL    HW282458   4.872   4.594   2.244  0.1590 -0.3541  0.4027
27294SOL     OW82459   0.175   2.745   1.018  0.7465  0.1286  0.2571
27294SOL    HW182460   0.170   2.663   1.066 -1.2727 -0.2313 -0.4637
27294SOL    HW282461   0.236   2.728   0.946  0.8098 -0.5364  0.4663
27295SOL     OW82462   1.590   2.698   3.396  0.0740 -0.0613 -0.0936
27295SOL    HW182463   1.675   2.669   3.429 -0.7615 -1.3956  1.0153
27295SOL    HW282464   1.557   2.622   3.347 -0.7092  0.2541 -0.0558
27296SOL     OW82465   6.285   8.738   8.021 -0.3007 -0.0541 -0.2366
27296SOL    HW182466   6.279   8.688   7.940  0.6430 -0.3266 -0.1523
27296SOL    HW282467   6.194   8.758   8.044 -0.7217 -1.8736 -0.1837
27297SOL     OW82468   5.030   3.220   4.317 -0.2647  0.3379  0.7201
27297SOL    HW182469   5.081   3.244   4.240 -0.6434 -0.2447  0.2800
27297SOL    HW282470   5.071   3.269   4.389  0.8184 -0.0038  0.3594
27298SOL     OW82471   4.941   0.349   9.134 -0.2587 -0.1260  0.5579
27298SOL    HW182472   5.005   0.325   9.068 -1.0530 -0.6050 -0.0679
27298SOL    HW282473   4.871   0.284   9.124 -2.3049  2.1358 -0.9065
27299SOL     OW82474   1.586   5.065   0.380 -0.3316 -0.2985  0.0677
27299SOL    HW182475   1.539   5.062   0.297  1.7504  0.0318 -1.2060
27299SOL    HW282476   1.678   5.053   0.355  0.3899  0.2008  2.3011
27300SOL     OW82477   2.225   4.941   2.200 -0.3857 -0.1922 -0.6721
27300SOL    HW182478   2.315   4.957   2.170 -1.2212  3.1290 -1.8338
27300SOL    HW282479   2.229   4.956   2.295 -0.0769  2.5323 -1.0380
27301SOL     OW82480   4.482   3.142   0.034 -0.2974 -0.1938  0.1643
27301SOL    HW182481   4.525   3.217  -0.008 -1.5392 -0.0209 -0.8624
27301SOL    HW282482   4.553   3.095   0.077  0.8292  0.4296 -0.9360
27302SOL     OW82483   4.502   8.895   4.065  0.1035  0.5039  0.3698
27302SOL    HW182484   4.435   8.963   4.064 -0.0996  0.3038  0.2289
27302SOL    HW282485   4.552   8.909   3.984 -0.3467  0.0860  0.0112
27303SOL     OW82486   2.048   1.651   3.015 -0.3241  0.6101 -0.1234
27303SOL    HW182487   2.118   1.701   3.057 -0.7216  2.4634 -1.5488
27303SOL    HW282488   2.092   1.574   2.977  0.4920  0.4441  1.1012
27304SOL     OW82489   4.407   4.929   6.770 -0.1314 -0.0676 -0.1220
27304SOL    HW182490   4.407   4.955   6.678  1.4116 -0.9728 -0.4084
27304SOL    HW282491   4.425   5.010   6.818 -1.7308  0.5656 -0.5323
27305SOL     OW82492   4.235   1.277   8.060 -0.3728 -0.1981  0.4859
27305SOL    HW182493   4.304   1.304   7.999 -0.8040 -0.0165  0.0684
27305SOL    HW282494   4.271   1.295   8.147  0.6090 -1.3078  0.3350
27306SOL     OW82495   3.928   5.706   3.673 -0.2712  0.3721  0.1844
27306SOL    HW182496   3.902   5.796   3.694  1.5643  0.9437  0.2182
27306SOL    HW282497   4.016   5.715   3.636  0.3847 -1.5062  1.1790
27307SOL     OW82498   3.294   1.075   0.575  0.1815  0.5157 -0.4794
27307SOL    HW182499   3.385   1.104   0.569 -0.1157  1.3297 -1.0494
27307SOL    HW282500   3.264   1.068   0.485  0.0453 -0.9764 -0.3502
27308SOL     OW82501   0.590   9.141   5.069 -0.1509  0.2444 -1.0218
27308SOL    HW182502   0.670   9.098   5.100  0.8739  2.3467 -0.5681
27308SOL    HW282503   0.595   9.134   4.974  2.2233  2.9315 -1.2198
27309SOL     OW82504   9.776   8.403   5.396 -0.7074  0.2729 -0.6240
27309SOL    HW182505   9.842   8.471   5.405 -0.7992  0.2631  0.1535
27309SOL    HW282506   9.821   8.321   5.415 -0.9763  0.2825  0.0794
27310SOL     OW82507   6.360   2.092   3.885 -0.0889 -0.2090 -0.4342
27310SOL    HW182508   6.270   2.119   3.866 -0.2046  0.7326  1.2381
27310SOL    HW282509   6.413   2.169   3.863  0.1405 -0.2819 -0.1431
27311SOL     OW82510   2.777   9.072   5.480  0.2820  0.0577  0.1042
27311SOL    HW182511   2.763   9.043   5.570  0.8378 -0.6491 -0.0268
27311SOL    HW282512   2.804   8.993   5.433  0.5623  0.5363 -0.5575
27312SOL     OW82513   1.656   9.105   8.405  0.0371  0.1968 -0.1214
27312SOL    HW182514   1.678   9.194   8.378 -0.6352  0.2031 -0.6863
27312SOL    HW282515   1.561   9.107   8.418  0.2613  0.1029  1.9511
27313SOL     OW82516   5.859   3.540   1.457  0.5950 -0.2539  0.3106
27313SOL    HW182517   5.936   3.552   1.401  0.8529 -1.1643  0.4513
27313SOL    HW282518   5.852   3.445   1.468 -2.5087 -0.5497 -2.4919
27314SOL     OW82519   7.103   2.869   3.721  0.0822 -0.1273 -0.4570
27314SOL    HW182520   7.074   2.893   3.809 -0.6333  0.1071 -0.7485
27314SOL    HW282521   7.073   2.778   3.709  0.2491 -0.1862 -0.4292
27315SOL     OW82522   0.511   5.135   3.395 -0.2627 -0.2372  0.6394
27315SOL    HW182523   0.463   5.093   3.323  0.5932 -1.1018  0.5668
27315SOL    HW282524   0.490   5.228   3.385  0.3346 -0.2528 -1.1237
27316SOL     OW82525   8.418   9.252   6.021  0.3684  0.2061  0.0794
27316SOL    HW182526   8.469   9.177   5.990  0.5382 -0.3987  1.7264
27316SOL    HW282527   8.339   9.250   5.967  0.5727 -0.9086 -0.2166
27317SOL     OW82528   2.486   1.100   4.636  0.2691  0.5875  0.0303
27317SOL    HW182529   2.578   1.081   4.621  0.3364  1.5855 -1.0431
27317SOL    HW282530   2.474   1.187   4.598 -1.0190  0.6584  0.5512
27318SOL     OW82531   8.785   7.084   9.310 -0.3769 -0.6312 -1.4561
27318SOL    HW182532   8.880   7.082   9.324 -0.2629  0.0327 -2.0470
27318SOL    HW282533   8.766   7.003   9.262 -0.2674 -1.2579 -0.4557
27319SOL     OW82534   9.989   7.717   7.093 -0.7164 -0.4703  0.4869
27319SOL    HW182535   9.928   7.685   7.160 -1.1267 -0.8274 -0.0429
27319SOL    HW282536  10.017   7.803   7.125 -1.6391 -0.2170  0.6591
27320SOL     OW82537   2.429   5.413   7.964 -0.1127  0.2041  0.2335
27320SOL    HW182538   2.395   5.389   8.050 -2.1674 -0.4481 -0.7020
27320SOL    HW282539   2.505   5.468   7.983 -1.3582  1.2947  2.4901
27321SOL     OW82540   6.641   8.509   8.996 -0.0372 -0.1690  0.1836
27321SOL    HW182541   6.653   8.551   9.082  0.4958  0.0878 -0.0127
27321SOL    HW282542   6.676   8.421   9.008  4.1642  1.1164 -0.8982
27322SOL     OW82543   7.834   1.632   8.542 -0.3282  0.5365  0.2416
27322SOL    HW182544   7.888   1.695   8.494 -1.5761  1.5326  0.1054
27322SOL    HW282545   7.827   1.670   8.630  2.4183 -1.5411  1.5190
27323SOL     OW82546   2.677   7.276   6.109 -0.0597  0.1221  0.2801
27323SOL    HW182547   2.713   7.235   6.031 -0.8524 -1.1841  0.5727
27323SOL    HW282548   2.721   7.232   6.182 -2.6345 -2.0284  0.6691
27324SOL     OW82549   1.316   4.238   8.076  0.3582  0.4838 -0.1610
27324SOL    HW182550   1.314   4.143   8.079 -0.9083  0.4439 -1.2444
27324SOL    HW282551   1.256   4.267   8.145 -0.9171  0.4135 -1.1950
27325SOL     OW82552   7.284   3.174   2.497  0.6834  0.2495 -0.0940
27325SOL    HW182553   7.379   3.178   2.486  0.7638  1.4455  0.7347
27325SOL    HW282554   7.258   3.266   2.507 -0.1624 -0.1818  2.5048
27326SOL     OW82555   8.651   4.337   8.455  0.2236  0.2205 -0.4851
27326SOL    HW182556   8.630   4.294   8.372 -1.3026  1.8439 -1.0011
27326SOL    HW282557   8.568   4.375   8.484  0.6154 -0.6546  2.0424
27327SOL     OW82558   8.709   2.136   1.745  0.4633 -0.2170  0.6324
27327SOL    HW182559   8.746   2.077   1.811 -0.0769  0.1263  1.2559
27327SOL    HW282560   8.643   2.186   1.792 -0.1542 -0.1802 -0.2511
27328SOL     OW82561   7.550   0.630   4.853 -0.3829  0.0124  0.2328
27328SOL    HW182562   7.473   0.603   4.802 -0.1454  2.2648 -1.4329
27328SOL    HW282563   7.623   0.618   4.793  0.3166 -0.0752  1.0908
27329SOL     OW82564   7.539   8.867   8.442 -0.2900 -0.1013  0.1778
27329SOL    HW182565   7.496   8.869   8.528  0.0035 -0.5479  0.3394
27329SOL    HW282566   7.621   8.818   8.457 -0.7139 -1.0820 -0.5659
27330SOL     OW82567   4.085   4.228   8.696 -0.0874  0.1589  0.3040
27330SOL    HW182568   4.045   4.212   8.781 -0.6827 -0.4073 -0.0693
27330SOL    HW282569   4.134   4.148   8.677 -1.6585 -0.6156 -0.7937
27331SOL     OW82570   8.605   7.938   5.612  0.1214 -0.2367  0.0296
27331SOL    HW182571   8.607   7.981   5.526  1.2402 -0.2269  0.0404
27331SOL    HW282572   8.666   7.865   5.603 -0.5822 -0.8969  0.4948
27332SOL     OW82573   7.913   9.211   4.828 -0.1768 -0.2731 -0.5060
27332SOL    HW182574   7.930   9.232   4.737 -1.2125 -0.7881 -0.8366
27332SOL    HW282575   7.932   9.118   4.836  0.3071 -0.1418 -0.0925
27333SOL     OW82576   7.049   2.183   0.160 -0.4707 -0.0318 -0.1644
27333SOL    HW182577   6.957   2.177   0.185 -0.6706  2.3887 -0.0780
27333SOL    HW282578   7.092   2.113   0.209 -2.2233 -1.1615 -0.1513
27334SOL     OW82579   5.831   7.218   2.869  0.3384 -0.5540  0.0015
27334SOL    HW182580   5.801   7.307   2.847  0.0352 -0.2702  1.4565
27334SOL    HW282581   5.911   7.231   2.919  0.4756 -1.1119 -0.0700
27335SOL     OW82582   6.127   0.387  -0.024  0.0862 -0.0790  0.4586
27335SOL    HW182583   6.092   0.475  -0.036  0.0717  0.2183  2.3830
27335SOL    HW282584   6.099   0.361   0.064 -0.0206 -2.0737 -0.0958
27336SOL     OW82585   4.411   2.127   0.914  0.0950  0.3563 -0.4365
27336SOL    HW182586   4.484   2.122   0.852 -0.6474  0.7872 -1.3638
27336SOL    HW282587   4.449   2.170   0.991  1.0311 -0.1974 -0.5706
27337SOL     OW82588   6.895   8.762   9.123  0.5606 -0.3824 -0.2923
27337SOL    HW182589   6.933   8.702   9.059  0.5797 -1.3442  0.5954
27337SOL    HW282590   6.827   8.711   9.167  1.5726 -0.2627  1.5068
27338SOL     OW82591   0.809   5.469   7.294  0.2330  0.4843  0.1082
27338SOL    HW182592   0.834   5.561   7.287  1.8629  0.1428  0.9467
27338SOL    HW282593   0.816   5.435   7.204 -2.4943  1.6228 -0.6249
27339SOL     OW82594   6.292   9.224   7.084 -0.6565 -0.1088 -0.2394
27339SOL    HW182595   6.373   9.180   7.110  0.0647  0.5758 -1.2474
27339SOL    HW282596   6.223   9.168   7.119  0.2436 -0.9632  0.2440
27340SOL     OW82597   5.095   4.485   8.282  0.7338 -0.5317  0.2966
27340SOL    HW182598   5.157   4.421   8.316  0.3605 -0.8761  0.3307
27340SOL    HW282599   5.023   4.485   8.345  0.1297 -1.0344 -0.3825
27341SOL     OW82600   9.316   7.034   4.521 -0.1533 -0.3360 -0.2697
27341SOL    HW182601   9.221   7.030   4.533 -0.2475 -0.1622 -0.9332
27341SOL    HW282602   9.328   7.089   4.444  0.3939 -1.9705 -1.4048
27342SOL     OW82603   6.395   1.028   5.105 -0.2472 -0.3845  0.2153
27342SOL    HW182604   6.393   0.997   5.014 -0.6704 -0.6866  0.3230
27342SOL    HW282605   6.303   1.030   5.131 -0.1735  0.3493  0.4218
27343SOL     OW82606   3.745   4.797   5.047  0.2861 -0.3548  0.2249
27343SOL    HW182607   3.722   4.845   5.126 -0.3018 -0.3161  0.0341
27343SOL    HW282608   3.708   4.849   4.976  0.4371 -0.6145 -0.0477
27344SOL     OW82609   2.687   3.960   1.871  0.1743 -0.2963 -0.9917
27344SOL    HW182610   2.653   4.026   1.811 -1.0442  0.9276  0.9253
27344SOL    HW282611   2.771   3.996   1.901 -0.4424  0.3879 -0.0239
27345SOL     OW82612   1.543   2.315   3.804  0.1767 -0.1480  0.2945
27345SOL    HW182613   1.564   2.379   3.872 -0.6526  2.2969 -1.5805
27345SOL    HW282614   1.451   2.293   3.819 -0.0241  0.4397 -0.0204
27346SOL     OW82615   5.728   8.528   9.672 -0.1232 -1.1846  0.2737
27346SOL    HW182616   5.673   8.606   9.676 -1.1552 -1.7079 -2.0229
27346SOL    HW282617   5.668   8.455   9.688 -0.0820 -1.7221 -1.7037
27347SOL     OW82618   9.579   7.389   0.791  0.3543 -0.4836 -0.6042
27347SOL    HW182619   9.657   7.431   0.755  0.7712  1.5581  2.4174
27347SOL    HW282620   9.612   7.325   0.854 -0.3837  0.0623  0.3617
27348SOL     OW82621   4.393   7.948   0.591  0.1167  0.0035  0.4269
27348SOL    HW182622   4.468   8.003   0.617  0.5178 -0.2839 -0.1045
27348SOL    HW282623   4.316   7.999   0.617  0.4949  0.3546  0.8787
27349SOL     OW82624   2.026   2.448   4.871 -0.2332 -0.2951 -0.2692
27349SOL    HW182625   2.022   2.535   4.912  1.3063 -0.8578  1.1902
27349SOL    HW282626   1.938   2.412   4.884 -0.6045  0.6589 -0.0274
27350SOL     OW82627   4.038   9.826   5.934  0.2681 -0.3940  0.1111
27350SOL    HW182628   3.960   9.849   5.884  1.4004  1.4979 -0.8530
27350SOL    HW282629   4.019   9.856   6.023  0.0804  0.4937 -0.2273
27351SOL     OW82630   5.567   1.132   5.825 -0.8467 -0.2136  0.4454
27351SOL    HW182631   5.502   1.176   5.769 -0.5039  0.5352  0.6330
27351SOL    HW282632   5.587   1.195   5.894  1.0346  0.0873 -0.3170
27352SOL     OW82633   3.569   1.297   9.207 -0.0458  0.3828 -0.3611
27352SOL    HW182634   3.550   1.298   9.300  0.6084  0.2739 -0.2219
27352SOL    HW282635   3.499   1.349   9.167 -0.4758  0.2041  0.1564
27353SOL     OW82636   7.942   2.543   2.439  0.2374  0.2280  0.1392
27353SOL    HW182637   8.028   2.567   2.474  0.2874  1.2504 -0.6512
27353SOL    HW282638   7.884   2.545   2.515  0.7571  0.2972  0.5404
27354SOL     OW82639   8.919   6.281   4.680  0.4694 -0.3633  0.1586
27354SOL    HW182640   9.012   6.260   4.683  1.1090  1.9770 -0.6051
27354SOL    HW282641   8.914   6.360   4.626 -2.0892 -0.9492 -0.6255
27355SOL     OW82642   7.877   4.937   5.402 -0.1707  0.1319  0.0172
27355SOL    HW182643   7.834   4.982   5.329 -0.6784 -0.2596  0.0657
27355SOL    HW282644   7.809   4.881   5.439 -0.4037  1.5434  1.8567
27356SOL     OW82645   8.250   8.731   0.330 -0.2026 -0.4237  0.2142
27356SOL    HW182646   8.259   8.709   0.237 -1.6002  0.2665 -0.1022
27356SOL    HW282647   8.309   8.669   0.375 -0.4277 -1.5797 -1.0210
27357SOL     OW82648   1.866   5.970   8.662  0.2664 -0.0405 -0.1477
27357SOL    HW182649   1.806   6.045   8.665  0.3681  0.2197 -2.6361
27357SOL    HW282650   1.952   6.008   8.644  0.9412 -0.5510  1.7587
27358SOL     OW82651   8.581   9.931   0.717  0.5266  0.1663  0.4803
27358SOL    HW182652   8.587   9.886   0.801 -2.0920  0.7368  1.0615
27358SOL    HW282653   8.644   9.886   0.660  1.5945 -0.8971  2.4298
27359SOL     OW82654   6.760   3.796   7.534  0.2936 -0.2584 -0.3450
27359SOL    HW182655   6.836   3.742   7.557  0.1982  0.0083  0.6218
27359SOL    HW282656   6.686   3.735   7.534  0.2732 -0.2409  0.2125
27360SOL     OW82657   7.821   2.060   6.825 -0.4696  0.4174 -0.2962
27360SOL    HW182658   7.865   2.019   6.750 -0.7280  0.5638 -0.5292
27360SOL    HW282659   7.882   2.047   6.898 -0.4767 -0.2461 -0.3982
27361SOL     OW82660   1.945   0.306   4.500 -0.3063 -0.1508 -0.6163
27361SOL    HW182661   2.021   0.363   4.491 -0.7995  0.7428  0.5758
27361SOL    HW282662   1.871   0.366   4.510 -1.1020 -1.0058 -1.2001
27362SOL     OW82663   4.189   6.078   2.315  0.2462  0.4520 -0.0330
27362SOL    HW182664   4.248   6.096   2.388  0.5500 -0.1602 -0.1174
27362SOL    HW282665   4.171   6.164   2.276  0.8772  0.6734  0.1531
27363SOL     OW82666   0.242   6.180   1.994  0.2949 -0.0876 -0.5397
27363SOL    HW182667   0.180   6.239   1.951  1.4209  1.7591  0.2106
27363SOL    HW282668   0.232   6.097   1.949 -2.2406  0.3125 -0.8525
27364SOL     OW82669   1.981   3.751   8.474  0.5257 -0.3730 -0.0435
27364SOL    HW182670   2.067   3.741   8.515  0.4685  0.4677  0.3037
27364SOL    HW282671   1.998   3.739   8.381  0.8748 -1.0325  0.0948
27365SOL     OW82672   6.378   5.295   6.384  0.5326  0.6892  0.1689
27365SOL    HW182673   6.310   5.360   6.369 -0.5764 -0.1006  1.5826
27365SOL    HW282674   6.434   5.335   6.451 -1.0020 -0.3287  2.1684
27366SOL     OW82675   3.189   6.537   5.767 -0.5230  0.6358 -0.1176
27366SOL    HW182676   3.203   6.558   5.860  4.6370 -0.5023 -0.3080
27366SOL    HW282677   3.192   6.441   5.764 -0.7659  0.6580 -1.4073
27367SOL     OW82678   0.139   5.439   8.490 -0.4248 -0.1499  0.2265
27367SOL    HW182679   0.200   5.512   8.477 -2.0861  1.1119 -0.9322
27367SOL    HW282680   0.070   5.476   8.546 -0.4835 -1.3590  0.9919
27368SOL     OW82681   2.999   4.964   8.554  0.4997  0.1754 -0.2828
27368SOL    HW182682   2.906   4.986   8.556  0.6006  0.5645  0.8502
27368SOL    HW282683   3.019   4.935   8.643  1.0459 -1.6949 -0.9606
27369SOL     OW82684   5.632   5.357   9.759 -0.3435 -0.8833 -0.4586
27369SOL    HW182685   5.630   5.448   9.727  0.5139 -0.8154 -0.3491
27369SOL    HW282686   5.540   5.332   9.766 -0.7572  1.0171  2.5236
27370SOL     OW82687   9.351   9.611   1.042 -0.1853 -0.1757 -0.8457
27370SOL    HW182688   9.261   9.580   1.028 -0.3689 -0.0463 -0.0187
27370SOL    HW282689   9.404   9.531   1.039 -0.7787 -0.8542  2.3184
27371SOL     OW82690   4.135   0.242   6.220  0.1112  0.1303  0.2559
27371SOL    HW182691   4.183   0.170   6.262  0.3874  0.2586  0.1665
27371SOL    HW282692   4.044   0.214   6.220  0.2931 -0.4725 -0.2964
27372SOL     OW82693   4.392   0.825   3.418  0.0495  0.6701  0.1283
27372SOL    HW182694   4.381   0.879   3.496  0.9250  1.2020 -0.0986
27372SOL    HW282695   4.484   0.837   3.393  0.5518 -1.7240  0.6340
27373SOL     OW82696   2.249   3.036   8.691 -0.6843  0.2621  0.8159
27373SOL    HW182697   2.222   2.983   8.616  1.0679  1.8936 -1.1085
27373SOL    HW282698   2.305   2.978   8.743 -0.9432 -0.5513  0.2017
27374SOL     OW82699   7.849   1.608   3.049 -0.6280  0.1234  0.3327
27374SOL    HW182700   7.831   1.702   3.047 -0.5548  0.1375  0.3427
27374SOL    HW282701   7.876   1.591   3.139 -2.4063 -0.2325  0.8397
27375SOL     OW82702   0.230   0.604   9.285 -0.2914 -0.1391 -0.0163
27375SOL    HW182703   0.160   0.669   9.298 -0.3325  0.1772 -1.6128
27375SOL    HW282704   0.214   0.538   9.353 -1.1649  0.7443  0.6712
27376SOL     OW82705   7.274   8.682   1.388  0.7114  0.0357 -0.3465
27376SOL    HW182706   7.256   8.718   1.301  1.1523  0.6272 -0.2001
27376SOL    HW282707   7.252   8.589   1.381  1.0995 -0.0007 -1.1993
27377SOL     OW82708   7.914   5.084   9.192  0.1501 -0.6299 -0.0274
27377SOL    HW182709   7.936   5.022   9.122  0.8207 -0.6022  0.1605
27377SOL    HW282710   7.856   5.148   9.149  1.0218 -0.2812 -0.7140
27378SOL     OW82711   5.938   4.238   1.299  0.1977  0.3051 -0.1111
27378SOL    HW182712   5.972   4.274   1.381  0.1301 -2.1197  1.0721
27378SOL    HW282713   5.850   4.274   1.292  0.3070  0.7812  0.7366
27379SOL     OW82714   9.628   8.086   9.782  0.0325  0.1442  0.5902
27379SOL    HW182715   9.701   8.039   9.823  0.2056 -0.1733 -0.0699
27379SOL    HW282716   9.550   8.041   9.813  0.2497 -2.1821 -1.8747
27380SOL     OW82717   8.117   1.195   1.552  0.2075  0.3052  0.0818
27380SOL    HW182718   8.113   1.119   1.494  0.2322  0.0838  0.3678
27380SOL    HW282719   8.075   1.165   1.633  2.0495 -0.0901  0.9589
27381SOL     OW82720   2.085   8.809   1.115 -0.3216 -0.1250  0.0040
27381SOL    HW182721   2.034   8.770   1.044 -0.3135 -0.0349 -0.0507
27381SOL    HW282722   2.018   8.846   1.173 -0.4162 -1.4258  0.7746
27382SOL     OW82723   2.279   6.778   3.891 -0.3862 -0.5087 -0.1727
27382SOL    HW182724   2.346   6.836   3.930 -0.8449 -1.2426  1.8577
27382SOL    HW282725   2.316   6.690   3.901 -1.5504 -0.9098  0.8691
27383SOL     OW82726   9.254   9.974   4.779  0.1944 -0.4609 -0.6243
27383SOL    HW182727   9.236   9.887   4.812 -1.3853  0.3392  0.7713
27383SOL    HW282728   9.216   9.975   4.691 -1.1677 -0.7189 -0.0552
27384SOL     OW82729   3.654   5.543   9.992  0.1485  0.0661 -0.3751
27384SOL    HW182730   3.580   5.489  10.021  0.6139  0.0355  0.8008
27384SOL    HW282731   3.619   5.592   9.917 -0.8594 -0.4306 -0.2556
27385SOL     OW82732   9.547   8.129   3.059  0.4644  0.3151  0.3659
27385SOL    HW182733   9.544   8.089   2.972 -0.0299  1.3633 -0.1202
27385SOL    HW282734   9.574   8.058   3.117 -0.7800 -0.8356 -0.3891
27386SOL     OW82735   4.049   4.545   1.382  0.3341 -0.3166  0.1214
27386SOL    HW182736   4.033   4.492   1.460  0.3186 -0.6475 -0.1066
27386SOL    HW282737   4.022   4.634   1.408 -1.6659 -0.7895 -0.1750
27387SOL     OW82738   0.114   1.870   8.694 -0.1342  0.1156  0.4187
27387SOL    HW182739   0.198   1.830   8.672 -1.0752 -1.7226  0.0225
27387SOL    HW282740   0.123   1.894   8.786  0.1828 -1.8928  0.9596
27388SOL     OW82741   9.131   2.544   5.424 -0.1486 -0.0896  0.0958
27388SOL    HW182742   9.222   2.531   5.452 -1.2899 -2.0784  3.4388
27388SOL    HW282743   9.079   2.517   5.499 -3.5592  2.1142 -1.2536
27389SOL     OW82744   6.800   4.972   8.632  0.0938  0.4979 -0.4617
27389SOL    HW182745   6.871   5.035   8.623  0.0618  0.4176 -1.4034
27389SOL    HW282746   6.725   5.023   8.662  0.4791  0.6226  0.3087
27390SOL     OW82747   9.299   3.693   6.582  0.3397 -0.5614 -0.2085
27390SOL    HW182748   9.258   3.636   6.517  1.1327 -0.6740 -0.6356
27390SOL    HW282749   9.312   3.637   6.659 -2.3066  0.0576  0.7885
27391SOL     OW82750   7.351   6.271   2.649  0.4899 -0.0454 -0.0554
27391SOL    HW182751   7.274   6.312   2.609 -0.4932 -2.0738 -0.3410
27391SOL    HW282752   7.320   6.241   2.735  0.5211 -2.1193 -0.7236
27392SOL     OW82753   1.469   0.731   8.250 -0.3079  0.0748 -0.3248
27392SOL    HW182754   1.404   0.738   8.181  0.5547 -1.5516 -1.3525
27392SOL    HW282755   1.547   0.774   8.215  0.9985 -3.0730 -1.5597
27393SOL     OW82756   3.784   2.251   0.399 -0.5764 -0.1431  0.1882
27393SOL    HW182757   3.752   2.189   0.333  0.7343 -1.1480  0.4559
27393SOL    HW282758   3.878   2.238   0.400 -0.1612  2.4599 -0.2906
27394SOL     OW82759   2.346   0.712   1.457 -0.5946  0.6571  0.0054
27394SOL    HW182760   2.397   0.637   1.427 -0.6499  0.5597  0.1530
27394SOL    HW282761   2.341   0.770   1.381 -1.5601 -0.0293 -0.4675
27395SOL     OW82762   7.470   2.661   8.751  0.1110 -0.2077  0.2891
27395SOL    HW182763   7.468   2.674   8.846  2.1255  2.9029  0.0440
27395SOL    HW282764   7.442   2.570   8.739 -0.1941 -0.7322  3.8303
27396SOL     OW82765   3.013   6.178   8.667  0.2051  0.1536 -0.0990
27396SOL    HW182766   3.035   6.153   8.577 -1.7660 -0.8482 -0.3493
27396SOL    HW282767   2.991   6.271   8.661 -2.1103 -0.4012 -1.1452
27397SOL     OW82768   7.438   8.381   5.569 -0.1355  0.4155  0.3897
27397SOL    HW182769   7.428   8.377   5.664  0.1622 -0.5919  0.3935
27397SOL    HW282770   7.349   8.390   5.536 -0.4035 -0.7731  0.7216
27398SOL     OW82771   4.968   4.965   6.597  0.5905  0.0181 -0.3258
27398SOL    HW182772   4.892   4.965   6.539 -1.2948 -1.1894  1.9284
27398SOL    HW282773   4.991   5.057   6.607 -1.6217  0.5952  0.0765
27399SOL     OW82774   2.509   4.076   6.670 -0.1091  0.3568 -0.1163
27399SOL    HW182775   2.601   4.071   6.696 -0.0102  1.8722 -0.1146
27399SOL    HW282776   2.501   4.016   6.596  0.6638 -0.4749  0.4598
27400SOL     OW82777   6.732   1.086   8.005 -0.1303 -0.1082 -0.0285
27400SOL    HW182778   6.802   1.140   8.043  0.3661  0.0333 -1.1179
27400SOL    HW282779   6.734   1.005   8.057 -0.7223  0.8008  1.4567
27401SOL     OW82780   0.628   2.000   5.161 -0.0695 -0.2558  0.2983
27401SOL    HW182781   0.574   2.062   5.112  0.1098 -0.2377  0.1192
27401SOL    HW282782   0.584   1.916   5.153  1.2981 -0.8515 -2.1591
27402SOL     OW82783   1.419   3.420   0.791 -0.0233  0.3030 -0.5838
27402SOL    HW182784   1.508   3.417   0.825  0.0164  1.9174 -0.4623
27402SOL    HW282785   1.383   3.333   0.808  1.5730 -0.4207 -0.7717
27403SOL     OW82786   1.724   0.962   9.876  0.4611  0.5679 -0.3346
27403SOL    HW182787   1.677   0.917   9.806  0.4366  0.3240 -0.1631
27403SOL    HW282788   1.815   0.964   9.847  0.7483 -0.9824  0.3435
27404SOL     OW82789   0.446   0.725   5.451 -0.0365  0.1142 -0.2669
27404SOL    HW182790   0.419   0.654   5.393  1.7923 -0.9780  0.1150
27404SOL    HW282791   0.439   0.803   5.397 -1.4946 -0.4130 -0.9039
27405SOL     OW82792   9.737   4.674   3.280  0.3519  1.1646 -0.3191
27405SOL    HW182793   9.723   4.709   3.368  2.3258  1.4729 -0.0951
27405SOL    HW282794   9.662   4.706   3.229 -0.3942  1.6419  1.0429
27406SOL     OW82795   7.653   9.119   5.771 -0.1499 -0.0993  0.2079
27406SOL    HW182796   7.576   9.133   5.825 -0.4536 -2.1196  0.3658
27406SOL    HW282797   7.727   9.143   5.827 -0.5518 -0.4189  0.8851
27407SOL     OW82798   1.074   0.454   6.048  0.2119 -0.0013 -0.0728
27407SOL    HW182799   1.021   0.434   6.125  0.3902  1.1713  0.3639
27407SOL    HW282800   1.040   0.395   5.980 -1.1274  0.1757  0.4170
27408SOL     OW82801   9.450   8.480   7.200  0.1930  0.2416  0.4774
27408SOL    HW182802   9.407   8.478   7.115  0.7545  0.1250  0.1930
27408SOL    HW282803   9.382   8.452   7.262 -1.1375  3.1693  0.4889
27409SOL     OW82804   7.386   5.347   7.505  0.1572  0.0895 -0.1432
27409SOL    HW182805   7.393   5.309   7.593 -0.4833 -0.5958 -0.3814
27409SOL    HW282806   7.414   5.437   7.516 -0.5772  0.2078  0.9118
27410SOL     OW82807   4.300   4.035   1.173  0.2273 -0.8009 -0.1241
27410SOL    HW182808   4.318   4.051   1.080 -0.9473 -0.8008 -0.3693
27410SOL    HW282809   4.209   4.062   1.184  0.1225 -1.5238  0.8588
27411SOL     OW82810   6.719   8.926   6.525 -0.3421  0.3088 -0.0875
27411SOL    HW182811   6.637   8.949   6.568 -0.3903 -0.4733  0.2582
27411SOL    HW282812   6.692   8.865   6.456 -0.1789  0.9639 -0.7429
27412SOL     OW82813   3.878   1.490   6.840  0.0908  0.3594  0.3071
27412SOL    HW182814   3.920   1.418   6.794  0.2281  1.4714 -1.4158
27412SOL    HW282815   3.932   1.504   6.917  1.9663  0.6515 -0.9889
27413SOL     OW82816   6.816   4.265   7.119 -0.3005  0.1965  0.1063
27413SOL    HW182817   6.876   4.316   7.174  0.9016  0.3935 -1.3084
27413SOL    HW282818   6.738   4.253   7.173  0.7975  0.4079  1.8153
27414SOL     OW82819   8.303   8.120   2.198  0.0333 -0.1085 -0.1301
27414SOL    HW182820   8.238   8.185   2.171  0.6783  0.0053 -1.5392
27414SOL    HW282821   8.320   8.139   2.290 -1.4852  0.2278  0.1097
27415SOL     OW82822   3.325   7.132   5.952  0.5287 -0.0225  0.3664
27415SOL    HW182823   3.352   7.224   5.947  1.3652 -0.1254  2.1024
27415SOL    HW282824   3.230   7.135   5.960  0.5368  0.6814  0.2494
27416SOL     OW82825  10.011   5.344   1.556 -0.1517  0.4009 -0.6609
27416SOL    HW182826   9.919   5.353   1.532 -0.3837 -0.5782 -0.2018
27416SOL    HW282827  10.009   5.305   1.644  0.6867 -1.3720 -1.3734
27417SOL     OW82828   1.113   0.352   5.602 -0.1211 -0.4073 -0.6461
27417SOL    HW182829   1.191   0.386   5.646 -0.4812 -1.7929  1.1554
27417SOL    HW282830   1.068   0.431   5.571  1.3763  0.4768 -0.6981
27418SOL     OW82831   3.275   9.238   8.444 -0.5949  0.0517 -0.1692
27418SOL    HW182832   3.270   9.225   8.349 -2.7450  1.9660 -0.3787
27418SOL    HW282833   3.265   9.332   8.456 -1.7523 -0.2995  2.0211
27419SOL     OW82834   7.901   8.374   3.098  0.4913  0.1078  0.4268
27419SOL    HW182835   7.942   8.347   3.181  2.0147  2.3045  0.4598
27419SOL    HW282836   7.923   8.466   3.089 -1.1977  0.3853 -1.5672
27420SOL     OW82837   4.598   2.169   2.036 -0.3347  0.3182  0.2039
27420SOL    HW182838   4.520   2.139   2.082 -0.0837 -0.2816  0.2382
27420SOL    HW282839   4.563   2.219   1.962 -0.8871 -2.8438 -1.8626
27421SOL     OW82840   2.380   0.315   9.281  0.2371  0.3544 -0.1442
27421SOL    HW182841   2.457   0.364   9.311 -0.8079  1.1432  1.4331
27421SOL    HW282842   2.307   0.373   9.298 -0.8412 -0.8855 -0.3661
27422SOL     OW82843   9.907   1.802   5.854 -0.4514 -0.1612  0.2574
27422SOL    HW182844   9.837   1.840   5.801  0.2997  0.3206 -0.3992
27422SOL    HW282845   9.871   1.718   5.884 -1.8347  0.6675  1.0745
27423SOL     OW82846   3.301   8.944   7.705  0.1028  0.1160 -0.2609
27423SOL    HW182847   3.290   8.849   7.712  1.1924 -0.1938 -2.1649
27423SOL    HW282848   3.396   8.957   7.700 -0.0411  1.3067 -0.2223
27424SOL     OW82849   7.827   9.515   5.829 -0.1107  0.3436 -0.6503
27424SOL    HW182850   7.877   9.596   5.816 -0.0131  0.5141  0.7058
27424SOL    HW282851   7.886   9.458   5.878 -0.3076 -0.4411 -1.2925
27425SOL     OW82852   2.211   5.482   0.431  0.0605  0.4272  0.5953
27425SOL    HW182853   2.129   5.482   0.382 -0.0643 -0.7267  0.7755
27425SOL    HW282854   2.265   5.416   0.388  0.7522  0.8997  0.7222
27426SOL     OW82855   1.541   5.807   2.976  0.9125 -0.1794 -0.1995
27426SOL    HW182856   1.503   5.734   2.926 -0.2115 -1.0726  1.8258
27426SOL    HW282857   1.568   5.870   2.909  2.2532 -2.5491 -2.0770
27427SOL     OW82858   8.392   3.456   1.207 -0.2217 -1.0328  0.4667
27427SOL    HW182859   8.358   3.521   1.145  1.4989  0.3441  0.8853
27427SOL    HW282860   8.354   3.481   1.291  3.6791  2.3182  1.5411
27428SOL     OW82861   5.769   5.042   1.989 -0.5230 -1.0649  0.4193
27428SOL    HW182862   5.684   5.059   1.948 -0.4473  0.7809  0.9262
27428SOL    HW282863   5.772   4.947   2.001 -1.0177 -1.5852 -2.7451
27429SOL     OW82864   6.989   9.209   4.327  0.2557  0.0818 -0.1919
27429SOL    HW182865   7.077   9.220   4.290  0.0671 -0.5094 -0.8070
27429SOL    HW282866   6.930   9.215   4.253 -0.0497 -2.3333 -0.1975
27430SOL     OW82867   9.782   5.940   9.952 -0.6629  0.5070  0.0676
27430SOL    HW182868   9.875   5.953   9.935 -0.3362 -2.1199 -0.5343
27430SOL    HW282869   9.773   5.954  10.046  0.7841 -1.2248  0.5092
27431SOL     OW82870   7.282   1.809   1.916 -0.3329 -0.4445  0.1884
27431SOL    HW182871   7.326   1.834   1.834 -0.1949 -0.1101  0.3624
27431SOL    HW282872   7.336   1.848   1.985 -0.1884 -1.1134  0.4683
27432SOL     OW82873   7.469   3.542   5.616  0.6767  0.2941  0.0215
27432SOL    HW182874   7.485   3.634   5.595 -0.2987  0.8982  1.7195
27432SOL    HW282875   7.541   3.519   5.675 -0.7132  0.9293  2.0555
27433SOL     OW82876   7.804   0.348   7.850 -0.2293  0.2327  0.4255
27433SOL    HW182877   7.889   0.307   7.863  0.0565  0.8203  0.4046
27433SOL    HW282878   7.757   0.333   7.932 -0.2599 -0.4352  0.2960
27434SOL     OW82879   4.536   1.803   8.141  0.1046 -0.4486 -0.6770
27434SOL    HW182880   4.546   1.897   8.127 -0.0329 -0.4061 -0.4896
27434SOL    HW282881   4.545   1.792   8.236 -3.4214 -0.1828 -0.1727
27435SOL     OW82882   2.651   8.514   4.504  0.5684 -0.7899 -0.5361
27435SOL    HW182883   2.670   8.421   4.518 -1.3849 -1.1482  0.1193
27435SOL    HW282884   2.654   8.525   4.409  0.0396 -1.7319 -0.6761
27436SOL     OW82885   2.064   3.368   3.249 -0.0794  0.1041  0.4006
27436SOL    HW182886   2.032   3.382   3.338 -1.1445 -0.3455  0.0985
27436SOL    HW282887   2.078   3.456   3.214  1.3816  0.2953  1.3472
27437SOL     OW82888   5.436   5.452   6.416  0.2128  0.0870 -0.2706
27437SOL    HW182889   5.482   5.468   6.498 -0.1713  0.3387 -0.0984
27437SOL    HW282890   5.492   5.392   6.368  0.6264  0.2403  0.0148
27438SOL     OW82891   0.828   1.454   4.379 -0.3296  0.2834  0.0368
27438SOL    HW182892   0.790   1.516   4.316 -0.1036  1.6193  1.1567
27438SOL    HW282893   0.862   1.510   4.449  0.2858 -1.1091  0.8791
27439SOL     OW82894   2.295   0.664   6.072 -0.0400  0.0688 -0.3566
27439SOL    HW182895   2.390   0.656   6.061  0.5242  1.7397  2.3570
27439SOL    HW282896   2.283   0.751   6.111 -2.5562 -0.6482  0.6340
27440SOL     OW82897   9.656   1.492   2.627 -0.0365 -0.0283 -0.3200
27440SOL    HW182898   9.685   1.568   2.679  1.5142 -0.0830 -1.0295
27440SOL    HW282899   9.580   1.523   2.578  0.5542  1.0779 -0.5663
27441SOL     OW82900   3.441   8.276   2.382 -0.1264  0.4291  0.3688
27441SOL    HW182901   3.431   8.196   2.331 -0.0997  0.2162  0.7009
27441SOL    HW282902   3.433   8.346   2.317 -1.5099  0.2145  0.2743
27442SOL     OW82903   8.379   4.998   9.683 -0.1602  0.2585 -0.1805
27442SOL    HW182904   8.385   4.917   9.733 -1.4605  1.1728  1.5802
27442SOL    HW282905   8.382   4.970   9.591 -2.5982 -2.0320  0.3046
27443SOL     OW82906   5.505   3.749   0.924  0.3494  0.4753 -0.4355
27443SOL    HW182907   5.438   3.816   0.939  0.5964  0.3524  1.5082
27443SOL    HW282908   5.523   3.754   0.830 -1.9116  0.9379 -0.9055
27444SOL     OW82909   5.405   2.502   6.286  0.4590  0.0485  0.7879
27444SOL    HW182910   5.406   2.574   6.223 -1.4240  1.6012  2.3512
27444SOL    HW282911   5.455   2.432   6.245  1.5427  1.8979 -1.2482
27445SOL     OW82912   3.013   2.735   7.361 -0.3551  0.0172 -0.0000
27445SOL    HW182913   2.972   2.678   7.297 -0.8773  0.0599  0.2935
27445SOL    HW282914   3.106   2.713   7.357 -0.2802  0.4547 -1.2177
27446SOL     OW82915   7.092   7.044   6.918  0.2669  0.1425  0.0509
27446SOL    HW182916   7.185   7.034   6.939  0.7141  0.2391 -1.6717
27446SOL    HW282917   7.092   7.091   6.834 -1.3190 -0.3692 -0.2658
27447SOL     OW82918   4.987   2.104   8.958  0.0333  0.0409  0.6926
27447SOL    HW182919   5.078   2.113   8.929  1.0308 -1.5983  3.0531
27447SOL    HW282920   4.964   2.015   8.935 -0.4217 -0.0693  1.5617
27448SOL     OW82921   5.103   4.230   1.971  0.0211 -0.4394  0.0605
27448SOL    HW182922   5.134   4.267   1.888 -0.5609 -2.1318 -0.9576
27448SOL    HW282923   5.179   4.184   2.007 -0.2733 -1.4489 -0.5824
27449SOL     OW82924   7.288   2.173   7.768 -0.6130 -0.4346  0.0053
27449SOL    HW182925   7.253   2.128   7.691 -0.5602  0.3838 -0.5047
27449SOL    HW282926   7.219   2.233   7.795 -0.6503 -0.7486  0.6346
27450SOL     OW82927   1.251   1.129   2.480 -0.0569 -0.0983  0.1010
27450SOL    HW182928   1.221   1.218   2.462 -1.1554 -0.5432 -0.3251
27450SOL    HW282929   1.249   1.086   2.395  0.6157 -0.4917  0.2835
27451SOL     OW82930   1.328   8.574   9.486 -0.2355 -0.1289  0.8093
27451SOL    HW182931   1.288   8.642   9.540 -2.2577 -0.1058 -0.6418
27451SOL    HW282932   1.283   8.579   9.402  2.5227 -0.4313 -0.8192
27452SOL     OW82933   6.675   6.597   0.776  0.7517  0.4934  0.2626
27452SOL    HW182934   6.659   6.665   0.842  0.1498 -0.4141  1.0754
27452SOL    HW282935   6.700   6.646   0.698 -1.9717  1.8221  0.0999
27453SOL     OW82936   8.944   7.306   9.866  0.3826 -0.1474 -0.4360
27453SOL    HW182937   8.926   7.361   9.942 -0.9055 -0.9912 -0.0968
27453SOL    HW282938   9.009   7.243   9.898  0.1279 -0.2639 -0.1427
27454SOL     OW82939   8.721   1.733   7.310 -0.3138 -0.0657  0.7091
27454SOL    HW182940   8.708   1.816   7.265 -1.4324 -1.1572 -1.1490
27454SOL    HW282941   8.810   1.706   7.286 -0.1765  0.3051  0.8044
27455SOL     OW82942   6.407   6.424   6.117 -0.1351  0.4704  0.1368
27455SOL    HW182943   6.367   6.477   6.048 -0.1673 -0.4287 -0.5455
27455SOL    HW282944   6.426   6.340   6.076  1.6465  0.5575  0.6864
27456SOL     OW82945   2.861   4.735   9.530 -0.4676 -0.8312 -0.3511
27456SOL    HW182946   2.825   4.782   9.605 -1.0691 -1.2810 -0.3497
27456SOL    HW282947   2.792   4.740   9.463  0.3240  0.1465 -1.1257
27457SOL     OW82948   3.033   4.237   7.387 -0.5010  0.1890 -0.2749
27457SOL    HW182949   3.125   4.261   7.399 -0.2231 -0.7273 -0.4822
27457SOL    HW282950   3.009   4.194   7.469 -0.2976 -0.8861 -0.7547
27458SOL     OW82951   9.733   8.691   0.089 -0.1272 -0.2549  0.3309
27458SOL    HW182952   9.747   8.611   0.139  0.9128 -0.0276  0.4321
27458SOL    HW282953   9.744   8.665  -0.002 -1.8829 -0.6410  0.2064
27459SOL     OW82954   1.616   5.982   2.773 -0.0511 -0.3663  0.4780
27459SOL    HW182955   1.625   6.077   2.765 -0.6936 -0.4047 -0.8890
27459SOL    HW282956   1.680   5.946   2.711 -0.1286 -0.8275  0.6561
27460SOL     OW82957   3.863   5.360   1.362  0.7769  0.0130 -0.3756
27460SOL    HW182958   3.954   5.341   1.386  0.4674  0.8205  1.6749
27460SOL    HW282959   3.860   5.456   1.354  0.3089 -0.0738 -1.4396
27461SOL     OW82960   6.733   9.074   7.729 -0.0577  0.0164 -0.3674
27461SOL    HW182961   6.780   9.150   7.696  0.5751 -0.4097 -0.4704
27461SOL    HW282962   6.766   9.001   7.677 -0.3636 -0.3872 -0.0051
27462SOL     OW82963   6.327   6.177   3.174  0.0268  0.8067  0.4084
27462SOL    HW182964   6.284   6.137   3.249 -2.3628  2.9594  0.3304
27462SOL    HW282965   6.322   6.111   3.105 -3.4626  0.9027  0.3696
27463SOL     OW82966   4.014   7.609   2.155  0.0024  0.3079  0.2992
27463SOL    HW182967   4.040   7.517   2.156  0.2121  0.3678  0.2881
27463SOL    HW282968   3.919   7.607   2.168 -0.0200  0.0814  0.1109
27464SOL     OW82969   9.416   5.187   5.907 -0.2209 -0.5338  0.1255
27464SOL    HW182970   9.498   5.237   5.913 -0.7802  1.1738 -3.3974
27464SOL    HW282971   9.348   5.253   5.919 -1.1376 -1.6786  1.5435
27465SOL     OW82972   0.232   7.919   6.929 -0.2151 -0.1462 -0.0645
27465SOL    HW182973   0.138   7.931   6.915 -0.5692 -2.1022  0.3008
27465SOL    HW282974   0.263   7.877   6.849 -0.7879 -4.3655  1.6165
27466SOL     OW82975   0.253   5.879   7.493  0.3085  0.1483  0.2766
27466SOL    HW182976   0.267   5.965   7.453 -1.4067  0.6614  0.6961
27466SOL    HW282977   0.250   5.819   7.419 -1.9334  0.9619 -0.3652
27467SOL     OW82978   1.572   0.945   8.043  0.1068 -0.1565  0.4157
27467SOL    HW182979   1.520   0.986   7.974  2.1506  0.0205 -1.1144
27467SOL    HW282980   1.601   0.862   8.005  0.3375 -0.5868  1.4968
27468SOL     OW82981   6.843   0.649   6.156  0.1595  0.5887 -0.3224
27468SOL    HW182982   6.843   0.580   6.222  0.9224 -0.4072 -1.3335
27468SOL    HW282983   6.751   0.658   6.130 -0.2475  1.4474  1.2951
27469SOL     OW82984   8.290   3.911   7.191  0.7213  0.2905 -0.1997
27469SOL    HW182985   8.253   3.859   7.262 -0.7196  1.2334 -0.2201
27469SOL    HW282986   8.324   3.989   7.233 -1.2255  1.4296 -0.5997
27470SOL     OW82987   6.614   4.385   1.385 -0.1239 -0.0995  0.5768
27470SOL    HW182988   6.680   4.325   1.419  0.0668  0.0773  0.5241
27470SOL    HW282989   6.646   4.472   1.411  1.4467  0.3122 -2.3470
27471SOL     OW82990   7.607   3.601   9.251 -0.2393 -0.4138 -0.6830
27471SOL    HW182991   7.595   3.694   9.233  0.6690 -0.0520  0.4270
27471SOL    HW282992   7.525   3.560   9.225 -1.0396  0.8496 -0.2395
27472SOL     OW82993   1.350   2.694   7.775  0.3730  0.2570  0.8084
27472SOL    HW182994   1.392   2.728   7.696  1.1076  1.2776  1.6146
27472SOL    HW282995   1.417   2.701   7.843 -1.0169  1.7958  2.1080
27473SOL     OW82996   7.963   5.846   9.992 -0.0577  0.0135 -0.5458
27473SOL    HW182997   8.020   5.774   9.967  1.1036  0.9888 -0.7671
27473SOL    HW282998   7.976   5.912   9.925 -1.2670  0.3603 -0.4596
27474SOL     OW82999   7.464   5.658   2.913  0.3029 -0.5940  0.5403
27474SOL    HW183000   7.417   5.657   2.996  1.2898 -0.7919  1.1173
27474SOL    HW283001   7.459   5.568   2.881  1.6523 -1.0123  1.4191
27475SOL     OW83002   9.003   1.088   6.771  0.2680  0.5777  0.4658
27475SOL    HW183003   9.003   1.177   6.736  0.5135  1.1704  1.9119
27475SOL    HW283004   9.093   1.059   6.761 -0.3035 -0.5561 -2.4222
27476SOL     OW83005   1.058   6.813   1.484  0.2727 -0.3454 -0.1837
27476SOL    HW183006   1.104   6.728   1.483  1.3753  0.1956  1.1654
27476SOL    HW283007   0.985   6.799   1.544 -1.0003 -1.0125 -1.8206
27477SOL     OW83008   6.678   8.001   0.997  0.3742  0.0451 -0.5350
27477SOL    HW183009   6.699   8.016   1.089  1.1672 -0.0472 -0.6918
27477SOL    HW283010   6.760   8.018   0.951  0.2195 -0.7732 -1.1350
27478SOL     OW83011   3.462   0.887   7.048 -0.3623 -0.0342 -0.3639
27478SOL    HW183012   3.478   0.872   6.955 -0.9718 -0.1984 -0.4509
27478SOL    HW283013   3.397   0.957   7.050  0.3074  0.5961 -0.0326
27479SOL     OW83014   4.598   7.118   8.214  0.3198  0.1747 -0.3429
27479SOL    HW183015   4.634   7.031   8.197  0.7885  0.6248 -1.7612
27479SOL    HW283016   4.569   7.150   8.128 -0.8869  0.9699  0.3249
27480SOL     OW83017   9.908   8.792   1.368 -0.1566 -0.4863  0.0082
27480SOL    HW183018   9.856   8.835   1.300 -0.0780  0.8137  0.7542
27480SOL    HW283019   9.988   8.764   1.322  0.2059  0.9965 -0.3194
27481SOL     OW83020   4.274   7.898   1.932 -0.1843  0.5385  0.1974
27481SOL    HW183021   4.260   7.885   2.026 -0.7059  1.0547  0.1958
27481SOL    HW283022   4.243   7.817   1.891 -0.0682  0.3608  0.4628
27482SOL     OW83023   9.926   2.622   2.299 -0.5896 -0.2242 -0.0582
27482SOL    HW183024   9.924   2.710   2.335 -0.3367 -0.1586 -0.2011
27482SOL    HW283025  10.014   2.590   2.318 -0.7276 -0.5033  0.1258
27483SOL     OW83026   5.870   3.235   4.492 -0.3582 -0.0338 -0.3697
27483SOL    HW183027   5.906   3.268   4.574 -0.1416 -0.3797 -0.3230
27483SOL    HW283028   5.840   3.146   4.513  1.2650 -0.7823 -1.0668
27484SOL     OW83029   9.353   5.964   3.621 -0.0064  0.4373 -0.7963
27484SOL    HW183030   9.339   5.936   3.712  0.0131 -0.2173 -0.9918
27484SOL    HW283031   9.396   5.890   3.579 -0.4180  0.5622 -1.4538
27485SOL     OW83032   6.090   1.940   1.393 -0.0485  0.2851  0.9643
27485SOL    HW183033   6.034   1.957   1.469 -1.0265 -2.5033  0.9867
27485SOL    HW283034   6.032   1.899   1.329  1.5845 -1.1045  0.2937
27486SOL     OW83035   2.971   9.585   5.013 -0.0648 -0.4328  0.9038
27486SOL    HW183036   3.021   9.544   4.942 -0.1567 -1.2612  1.3138
27486SOL    HW283037   2.987   9.530   5.089 -2.8071 -1.6212  0.7195
27487SOL     OW83038   8.284   0.170   5.697 -0.2495 -0.1400 -0.1942
27487SOL    HW183039   8.190   0.160   5.677  0.1468 -0.7558 -1.9315
27487SOL    HW283040   8.324   0.187   5.612  0.8943  3.1013  0.8563
27488SOL     OW83041   6.286   0.863   8.492 -0.2691  0.0531  0.1386
27488SOL    HW183042   6.213   0.915   8.459  1.5464  0.9821 -2.8864
27488SOL    HW283043   6.279   0.780   8.444  1.3746  0.7169 -1.3921
27489SOL     OW83044   9.654   0.368   8.269  0.1233 -0.0664  0.3615
27489SOL    HW183045   9.637   0.351   8.362 -0.2565 -0.1195  0.2858
27489SOL    HW283046   9.574   0.339   8.225  0.8836 -1.4903 -0.1446
27490SOL     OW83047   9.453   2.426   3.369  0.0760 -0.5794 -0.1969
27490SOL    HW183048   9.502   2.349   3.342 -1.2341 -1.8329  0.8376
27490SOL    HW283049   9.370   2.392   3.401 -0.3138  1.2116  0.8579
27491SOL     OW83050   7.061   5.882   4.456 -0.6807 -0.7784 -0.2329
27491SOL    HW183051   7.135   5.886   4.515 -0.7690 -0.2774 -0.1537
27491SOL    HW283052   7.005   5.955   4.482 -1.1411 -1.0775 -0.3701
27492SOL     OW83053   0.115   7.466   1.170 -0.0485  0.3461 -0.0199
27492SOL    HW183054   0.193   7.473   1.225  0.4294 -0.0745 -0.6358
27492SOL    HW283055   0.061   7.540   1.196  0.4411  0.4927  0.5982
27493SOL     OW83056   3.208   3.220   0.445  0.4664 -0.1834  0.4139
27493SOL    HW183057   3.124   3.191   0.480  0.8709  0.0594  1.6106
27493SOL    HW283058   3.196   3.314   0.429  0.5666 -0.1148  0.7455
27494SOL     OW83059   0.322   5.864   2.532 -0.0896 -0.5992  0.0943
27494SOL    HW183060   0.303   5.816   2.612 -1.0456 -1.5274 -0.6668
27494SOL    HW283061   0.284   5.812   2.462  0.7249  0.1872 -0.9866
27495SOL     OW83062   8.467   6.694   6.416  0.3680  0.1173 -0.2978
27495SOL    HW183063   8.433   6.737   6.338 -0.2338 -0.3493 -0.2945
27495SOL    HW283064   8.467   6.601   6.394  1.2175  0.0684 -0.1340
27496SOL     OW83065   2.858   3.171   1.145 -0.0888 -0.2463 -0.3447
27496SOL    HW183066   2.851   3.112   1.220 -0.1481  0.6812  0.4098
27496SOL    HW283067   2.782   3.229   1.154  0.6752  0.7793 -0.2979
27497SOL     OW83068   1.452   7.863   3.651 -0.1511  0.1493  0.3684
27497SOL    HW183069   1.405   7.789   3.613  0.0314  1.1445 -1.9389
27497SOL    HW283070   1.450   7.931   3.583 -0.5129  2.3837  2.4694
27498SOL     OW83071   5.965   6.118   7.642  0.9055  0.4626 -0.0494
27498SOL    HW183072   5.922   6.033   7.648  0.8308  0.6133  1.8538
27498SOL    HW283073   6.002   6.119   7.553 -0.2544 -0.9722 -0.5871
27499SOL     OW83074   6.045   2.417   3.326 -0.4253 -0.5824  0.0138
27499SOL    HW183075   5.976   2.481   3.344 -2.1476 -2.3582  0.0280
27499SOL    HW283076   6.124   2.470   3.312 -1.3419  1.4379  1.8945
27500SOL     OW83077   6.341   5.003   9.478  0.1933 -0.5408 -0.0521
27500SOL    HW183078   6.431   5.035   9.468 -0.0786  0.4112  0.4243
27500SOL    HW283079   6.348   4.932   9.542  0.6693 -0.7866 -0.3703
27501SOL     OW83080   8.444   3.711   8.383  0.3225  0.4803 -0.7921
27501SOL    HW183081   8.428   3.785   8.441  3.2789  1.7263 -1.3418
27501SOL    HW283082   8.375   3.648   8.403 -1.2341  2.6223  0.9993
27502SOL     OW83083   6.060   5.618   0.707 -0.4065  0.1157  0.2070
27502SOL    HW183084   6.090   5.591   0.620 -1.4895 -2.3664  0.5217
27502SOL    HW283085   6.135   5.666   0.744  1.0847 -1.0961 -1.0785
27503SOL     OW83086   0.085   8.945   1.184 -0.9593  0.2151 -0.2087
27503SOL    HW183087   0.043   8.963   1.100  0.1079  1.5468 -0.4993
27503SOL    HW283088   0.137   8.866   1.168 -1.7205 -0.2600 -0.4188
27504SOL     OW83089   5.205   6.859   6.111 -0.3230  0.1610 -0.2116
27504SOL    HW183090   5.204   6.948   6.078 -0.5612 -0.0717 -0.8431
27504SOL    HW283091   5.119   6.848   6.152  0.7728  1.2285  2.6796
27505SOL     OW83092   8.011   9.854   7.798  0.7461 -0.0694  0.1654
27505SOL    HW183093   7.921   9.824   7.783  0.5116  1.5581 -2.4051
27505SOL    HW283094   8.066   9.781   7.770  0.1874 -0.1944 -0.6575
27506SOL     OW83095   0.301   1.631   3.386  0.2508 -0.6282  0.3461
27506SOL    HW183096   0.270   1.629   3.296  0.5841  0.7974  0.1672
27506SOL    HW283097   0.375   1.691   3.385  0.6547 -1.0712  1.4585
27507SOL     OW83098   0.344   6.862   7.128 -0.4231  0.3820 -0.5024
27507SOL    HW183099   0.405   6.934   7.148  0.5004  0.1867 -2.3929
27507SOL    HW283100   0.380   6.786   7.173 -0.5766  0.7543  0.2731
27508SOL     OW83101   0.660   4.649   4.580 -0.0446 -0.5610  0.0042
27508SOL    HW183102   0.650   4.708   4.504  2.9199  1.0549  0.6957
27508SOL    HW283103   0.582   4.665   4.632 -1.3153 -0.3903 -1.8362
27509SOL     OW83104   9.428   4.342   9.652  0.0537 -0.1297  0.1676
27509SOL    HW183105   9.401   4.433   9.654 -0.0852 -0.1662  2.4825
27509SOL    HW283106   9.461   4.328   9.563  0.1907  2.1923 -0.1866
27510SOL     OW83107   7.051   4.901   5.942  0.3028 -0.3273  0.9455
27510SOL    HW183108   7.047   4.844   5.865  0.3535  0.1864  0.5597
27510SOL    HW283109   7.015   4.984   5.912 -1.0793 -0.5576  1.8729
27511SOL     OW83110   4.330   6.770   8.218  0.0039  0.1317  0.0539
27511SOL    HW183111   4.362   6.691   8.260  2.5499  0.8280 -0.4364
27511SOL    HW283112   4.408   6.824   8.203 -1.5526  2.5251 -0.0982
27512SOL     OW83113   3.864   7.219   0.200 -0.2143 -0.0996  0.3493
27512SOL    HW183114   3.803   7.147   0.186 -0.6680 -0.0943  2.0529
27512SOL    HW283115   3.872   7.226   0.295  1.7629  0.4791  0.2019
27513SOL     OW83116   3.820   5.324   7.934  0.3034  0.5237 -1.0973
27513SOL    HW183117   3.763   5.395   7.965 -1.2608 -0.7437 -1.0020
27513SOL    HW283118   3.902   5.338   7.981 -0.1421  1.9725 -0.7027
27514SOL     OW83119   0.576   0.585   6.493 -0.1431 -0.1073  0.1587
27514SOL    HW183120   0.556   0.550   6.580 -0.4293 -3.3659 -1.1043
27514SOL    HW283121   0.671   0.591   6.490 -0.0746 -1.0040  0.3583
27515SOL     OW83122   9.536   9.495   9.611  0.6229  0.0406  0.3652
27515SOL    HW183123   9.613   9.493   9.667  0.3383  0.4346  0.7797
27515SOL    HW283124   9.571   9.505   9.523  1.0671 -0.4016  0.4876
27516SOL     OW83125   4.880   7.212   4.281 -0.1747  0.3967  0.2460
27516SOL    HW183126   4.787   7.189   4.291  0.4321 -2.2992  0.6181
27516SOL    HW283127   4.921   7.131   4.251  2.0966  1.4991  0.1678
27517SOL     OW83128   1.628   7.298   5.568 -0.6459 -0.5806  0.6026
27517SOL    HW183129   1.592   7.261   5.649  0.5595  0.0037  1.4376
27517SOL    HW283130   1.719   7.268   5.567 -0.8819 -1.3093 -1.0058
27518SOL     OW83131   2.439   4.366   0.314 -0.4815  0.7240  0.1871
27518SOL    HW183132   2.380   4.425   0.359 -0.4341  2.1652 -1.5305
27518SOL    HW283133   2.526   4.402   0.331 -0.4282  0.9852 -0.6073
27519SOL     OW83134   9.076   5.796   5.914 -0.3475  0.1944 -0.8535
27519SOL    HW183135   9.167   5.781   5.890 -0.4148  0.7938 -1.5149
27519SOL    HW283136   9.053   5.722   5.970 -0.2152 -1.3159 -2.7286
27520SOL     OW83137   4.022   8.384   0.568 -0.2724 -0.0578  0.2081
27520SOL    HW183138   4.017   8.303   0.518  1.6906 -0.7749  1.0547
27520SOL    HW283139   4.081   8.363   0.641 -0.3998  1.8868  0.9298
27521SOL     OW83140   7.951   6.248   3.337  0.0258 -0.0531  0.9548
27521SOL    HW183141   7.913   6.334   3.320 -1.2812 -0.1789  2.9566
27521SOL    HW283142   8.031   6.266   3.386  0.1744  0.0365  0.6832
27522SOL     OW83143   4.716   6.619   8.003 -0.0400  0.4649 -0.4737
27522SOL    HW183144   4.659   6.599   7.929  1.9593 -0.8695 -1.7602
27522SOL    HW283145   4.698   6.550   8.067  0.1994 -0.0188 -0.9241
27523SOL     OW83146   0.906   3.585   8.656 -0.4715  0.2124 -0.0203
27523SOL    HW183147   0.935   3.655   8.714 -0.2384 -1.0898  1.5357
27523SOL    HW283148   0.906   3.507   8.712 -0.9309 -0.9872 -1.6186
27524SOL     OW83149   0.445   2.900   8.569  0.0475 -0.3786 -0.1507
27524SOL    HW183150   0.537   2.912   8.592  0.2751 -1.6077 -0.3580
27524SOL    HW283151   0.407   2.987   8.577  1.0570  0.0079  0.6887
27525SOL     OW83152   7.172   4.587   8.657  0.0933  0.3215  0.5618
27525SOL    HW183153   7.080   4.560   8.657  0.0989  0.2861  1.1973
27525SOL    HW283154   7.211   4.540   8.732  0.7354 -0.0254  0.0233
27526SOL     OW83155   0.800   9.216   0.466 -0.3468 -0.4125 -0.1668
27526SOL    HW183156   0.755   9.299   0.455  1.7936  1.0233  1.1334
27526SOL    HW283157   0.792   9.196   0.560  0.6912 -0.6936 -0.1166
27527SOL     OW83158   5.241   3.825   0.527  0.0585 -0.3484  0.4472
27527SOL    HW183159   5.147   3.822   0.547 -0.5345 -0.3750 -2.0949
27527SOL    HW283160   5.251   3.769   0.451  2.1170 -0.1241  0.5145
27528SOL     OW83161   3.780   7.386   5.718 -0.4184  0.0434  0.0604
27528SOL    HW183162   3.863   7.423   5.687  0.5628 -1.0109  1.3433
27528SOL    HW283163   3.783   7.294   5.692 -1.4823  0.1276 -0.4169
27529SOL     OW83164   3.893   8.045   1.883  0.2351 -0.4787 -0.1485
27529SOL    HW183165   3.926   7.960   1.914 -0.2177 -0.6835 -0.2223
27529SOL    HW283166   3.832   8.073   1.951 -0.7610 -0.9269 -0.8370
27530SOL     OW83167   1.180   2.266   2.921 -0.3898 -0.2754  0.2254
27530SOL    HW183168   1.248   2.249   2.856 -1.1121 -0.7623 -0.4072
27530SOL    HW283169   1.176   2.362   2.926 -0.6194 -0.2251 -0.7518
27531SOL     OW83170   2.240   2.063   4.646 -0.3298 -0.2644  0.0230
27531SOL    HW183171   2.171   2.038   4.708 -2.1567  2.5364 -0.6715
27531SOL    HW283172   2.226   2.157   4.632  1.8049 -0.2127 -2.4661
27532SOL     OW83173   9.318   6.470   8.609 -0.1516  0.5817 -0.2796
27532SOL    HW183174   9.372   6.549   8.611 -2.0522  1.9592  1.4347
27532SOL    HW283175   9.328   6.432   8.696  1.5555 -1.7374 -1.4102
27533SOL     OW83176   5.537   7.416   8.349 -0.4664 -0.2224 -0.6622
27533SOL    HW183177   5.443   7.432   8.351 -0.3735  0.3664 -0.8363
27533SOL    HW283178   5.570   7.477   8.283  0.0964 -0.0962 -0.2709
27534SOL     OW83179   9.273   4.006   1.588  0.5442 -0.2685  0.1474
27534SOL    HW183180   9.356   4.035   1.626 -0.1658  0.2281  1.3969
27534SOL    HW283181   9.255   4.068   1.518  1.0417 -0.1432  0.1320
27535SOL     OW83182   8.548   9.609   8.621  0.2360 -0.1191  0.3097
27535SOL    HW183183   8.456   9.612   8.645  0.0650  0.1578 -0.3660
27535SOL    HW283184   8.552   9.645   8.533  0.7790 -1.6702 -0.3255
27536SOL     OW83185   8.315   7.734   0.437  1.0319 -0.2142 -0.0378
27536SOL    HW183186   8.278   7.662   0.488 -1.2058  1.3237  0.6561
27536SOL    HW283187   8.256   7.745   0.363  2.6530 -0.5366 -1.4428
27537SOL     OW83188   8.071   4.560   7.858  0.1550 -0.2535  0.3030
27537SOL    HW183189   8.100   4.505   7.931  3.7312 -2.0610 -2.1245
27537SOL    HW283190   8.145   4.618   7.841  0.1816 -1.0082 -2.7743
27538SOL     OW83191   4.240   5.970   6.974 -0.1761  0.8087 -0.0488
27538SOL    HW183192   4.250   5.885   6.931  0.6459  0.6209  0.4908
27538SOL    HW283193   4.146   5.990   6.967 -0.3027  0.0684 -0.5620
27539SOL     OW83194   7.677   6.067   6.521  0.1049  0.3941  0.2705
27539SOL    HW183195   7.602   6.124   6.503 -1.1034 -1.4284 -0.7479
27539SOL    HW283196   7.667   5.994   6.460  2.2354 -0.3606  0.7336
27540SOL     OW83197   3.987   9.768   1.071  0.8347  0.7587 -0.4540
27540SOL    HW183198   3.984   9.675   1.048 -0.7934  0.6684 -0.0570
27540SOL    HW283199   4.048   9.772   1.144  0.4973 -0.1159 -0.0960
27541SOL     OW83200   6.336   8.288   0.279  0.2158  0.3564 -0.1585
27541SOL    HW183201   6.407   8.289   0.215 -0.2664  2.7135 -0.7545
27541SOL    HW283202   6.257   8.301   0.227 -0.3569  0.6509  0.7703
27542SOL     OW83203   3.962   9.514   4.429 -0.4512 -0.3010 -0.0028
27542SOL    HW183204   4.043   9.559   4.406 -0.5569 -0.3282 -0.4372
27542SOL    HW283205   3.908   9.581   4.470 -0.1687 -0.3086  0.3960
27543SOL     OW83206   0.498   1.801   3.359 -0.1407  0.8376  0.1467
27543SOL    HW183207   0.464   1.891   3.362  0.6260  1.1159  1.2877
27543SOL    HW283208   0.552   1.798   3.280  0.0302  1.4546  0.2377
27544SOL     OW83209   0.064   2.964   2.053  0.2141 -0.1522 -0.6964
27544SOL    HW183210  -0.016   2.975   2.104 -0.0013 -1.3498 -0.7574
27544SOL    HW283211   0.087   3.053   2.025 -0.3321  0.3747  0.4573
27545SOL     OW83212   8.645   5.606   7.626  0.3053 -0.3781  0.6489
27545SOL    HW183213   8.609   5.541   7.687  1.6037 -0.1844  1.6908
27545SOL    HW283214   8.727   5.633   7.667  0.6262  0.6675 -0.6208
27546SOL     OW83215   4.238   1.057   6.340 -0.6815 -0.1629  0.6073
27546SOL    HW183216   4.326   1.021   6.349 -0.5527  0.0337  0.1725
27546SOL    HW283217   4.180   0.980   6.346 -0.4680 -0.3200  0.6701
27547SOL     OW83218   2.318   7.954   9.697 -0.2570 -0.1961  0.2421
27547SOL    HW183219   2.338   7.861   9.706  1.0408  0.2007  2.0263
27547SOL    HW283220   2.232   7.965   9.736  0.1422 -0.4767  1.2292
27548SOL     OW83221   7.701   4.060   1.068 -0.2724 -0.3627  0.7515
27548SOL    HW183222   7.722   4.145   1.107  0.4465 -0.2472  0.1455
27548SOL    HW283223   7.707   3.998   1.140 -0.7514  0.0894  1.1924
27549SOL     OW83224   3.190   6.806   7.954  0.1611 -0.0676 -0.4699
27549SOL    HW183225   3.221   6.847   8.034  2.3096 -0.6116 -0.9707
27549SOL    HW283226   3.269   6.775   7.910 -1.1307 -1.7513 -1.7394
27550SOL     OW83227   3.493   3.110   3.659  0.3548 -0.2029 -0.2498
27550SOL    HW183228   3.543   3.121   3.740  0.8466 -2.8109 -0.1120
27550SOL    HW283229   3.545   3.155   3.593  0.2615  1.4342  0.7267
27551SOL     OW83230   5.042   7.695   5.600  0.2369  0.0455  0.3537
27551SOL    HW183231   5.116   7.642   5.629  0.7788  0.5788 -0.0215
27551SOL    HW283232   4.977   7.631   5.572  0.3149 -0.4388  1.2528
27552SOL     OW83233  -0.025   0.315   3.778 -0.1685 -0.3606  0.1005
27552SOL    HW183234   0.067   0.337   3.765 -0.5795  0.8625 -0.8616
27552SOL    HW283235  -0.029   0.220   3.767  0.8866 -0.3619 -0.3588
27553SOL     OW83236   1.885   5.828   9.624  1.0715  0.3539  0.6048
27553SOL    HW183237   1.829   5.852   9.698  2.8542  0.8209  1.8647
27553SOL    HW283238   1.930   5.910   9.600  1.4923 -0.0836 -0.1365
27554SOL     OW83239   1.524   0.825   4.449  0.1708  0.1749 -0.3323
27554SOL    HW183240   1.508   0.873   4.531 -0.4701 -0.8581  0.1682
27554SOL    HW283241   1.582   0.882   4.399  0.0456  1.1242  0.5649
27555SOL     OW83242   7.524   1.714   2.401  0.4264  0.0619 -0.1610
27555SOL    HW183243   7.430   1.716   2.387  0.4539 -1.2386 -0.6036
27555SOL    HW283244   7.554   1.633   2.360  1.9381  1.0707 -1.1854
27556SOL     OW83245   6.255   5.969   9.236 -0.0991 -0.4716  0.0569
27556SOL    HW183246   6.297   6.041   9.189  0.7182 -1.0149 -0.0828
27556SOL    HW283247   6.206   5.922   9.169  0.2564 -0.6682 -0.0705
27557SOL     OW83248   2.646   9.312   4.596 -0.1019 -0.2340 -0.0152
27557SOL    HW183249   2.714   9.355   4.543  0.4933 -0.4264  0.5904
27557SOL    HW283250   2.676   9.322   4.686 -0.1615 -1.5832  0.1611
27558SOL     OW83251   5.702   8.289   6.006  0.4329  0.2122  0.2287
27558SOL    HW183252   5.739   8.211   5.964 -0.2425  0.8286 -1.5947
27558SOL    HW283253   5.778   8.345   6.024  0.7877 -0.3126  0.3944
27559SOL     OW83254   8.301   2.417   1.147 -0.4680  0.3294 -0.2704
27559SOL    HW183255   8.212   2.383   1.139  0.6157 -2.8667  0.1080
27559SOL    HW283256   8.321   2.452   1.060 -0.9616 -2.0462 -1.4154
27560SOL     OW83257   5.847   3.015   2.155  0.6709 -0.0615  0.0342
27560SOL    HW183258   5.780   2.968   2.206  0.2476 -0.4131 -0.8198
27560SOL    HW283259   5.914   2.949   2.138 -0.9582 -1.1035 -3.0885
27561SOL     OW83260   6.814   3.500   6.815 -0.1209 -0.1201 -0.3656
27561SOL    HW183261   6.808   3.581   6.865  1.0832  0.4648 -1.1364
27561SOL    HW283262   6.787   3.524   6.726 -1.3573 -0.9479 -0.2476
27562SOL     OW83263   2.062   9.584   6.918  0.2123  0.1308 -0.1348
27562SOL    HW183264   2.153   9.572   6.944 -0.3378  0.4075  2.1748
27562SOL    HW283265   2.036   9.501   6.878  0.7594 -0.9306  1.6113
27563SOL     OW83266   7.650   2.364   5.003 -0.0915 -0.0367 -0.3067
27563SOL    HW183267   7.599   2.340   5.080 -0.1145 -1.0181 -0.6184
27563SOL    HW283268   7.604   2.324   4.930  0.7784 -0.3985 -0.6601
27564SOL     OW83269   6.472   8.731   0.197 -0.7323  0.1943 -0.3220
27564SOL    HW183270   6.380   8.758   0.206 -0.0304  2.7243  0.2247
27564SOL    HW283271   6.484   8.717   0.103 -1.6384 -0.0558 -0.4090
27565SOL     OW83272   2.342   3.368   2.443  0.1413 -0.7859  0.6917
27565SOL    HW183273   2.276   3.300   2.461 -1.7194  0.3103 -1.4428
27565SOL    HW283274   2.291   3.447   2.425  2.1138  0.3936 -0.0662
27566SOL     OW83275   9.441   4.113   2.543 -0.0393 -0.2667 -0.2724
27566SOL    HW183276   9.383   4.163   2.485  0.4973  1.1524  0.3769
27566SOL    HW283277   9.529   4.133   2.511  0.3447  1.3942  1.5999
27567SOL     OW83278   8.985   1.341   4.533  0.6276  0.5073 -0.0082
27567SOL    HW183279   9.000   1.266   4.475  0.1915  0.3316  0.0958
27567SOL    HW283280   9.016   1.310   4.619 -1.8748 -0.5320  0.6174
27568SOL     OW83281   3.216   0.521   5.334 -0.0811 -0.1073 -0.6729
27568SOL    HW183282   3.284   0.546   5.397  0.3158 -0.7001 -0.8536
27568SOL    HW283283   3.155   0.594   5.334  1.1128  0.9315 -1.3129
27569SOL     OW83284   2.703   1.841   6.863 -0.6897 -0.1573  0.5556
27569SOL    HW183285   2.661   1.758   6.843  0.6890 -0.3851 -1.7397
27569SOL    HW283286   2.789   1.817   6.897  0.2316  0.2813 -1.3676
27570SOL     OW83287   9.356   7.859   1.600 -0.5578  0.0144 -0.1117
27570SOL    HW183288   9.385   7.811   1.523 -0.7033  0.5108 -0.4816
27570SOL    HW283289   9.262   7.841   1.605 -0.3912 -0.7189  0.4573
27571SOL     OW83290   8.855   4.576   7.536  0.4336  0.2148  0.0180
27571SOL    HW183291   8.797   4.508   7.570  0.3678 -1.2261 -2.6743
27571SOL    HW283292   8.922   4.527   7.488  1.5992  2.0107 -0.2684
27572SOL     OW83293   1.250   2.939   7.447  0.0518  0.1511  0.1103
27572SOL    HW183294   1.300   2.952   7.367 -1.5410 -0.7582 -1.0849
27572SOL    HW283295   1.284   2.857   7.483 -0.8486 -0.7138 -0.9479
27573SOL     OW83296   3.645   7.754   6.236  0.2035 -0.3563  0.0960
27573SOL    HW183297   3.704   7.752   6.311  1.2306 -2.3815 -0.6860
27573SOL    HW283298   3.698   7.788   6.164 -0.4144  0.3969 -0.0198
27574SOL     OW83299   5.100   3.727   8.614 -0.2011 -0.4376 -0.1703
27574SOL    HW183300   5.165   3.660   8.635 -0.3027 -0.4568  0.0906
27574SOL    HW283301   5.105   3.788   8.687 -1.1079 -0.9157  0.3059
27575SOL     OW83302   7.625   6.960   4.552  0.5260  0.5253  0.2736
27575SOL    HW183303   7.675   6.888   4.591  1.0102  0.5328 -0.3032
27575SOL    HW283304   7.629   7.030   4.618  1.8525  0.7562 -0.0090
27576SOL     OW83305   8.691   4.461   5.403  0.2573  0.2775  0.2466
27576SOL    HW183306   8.670   4.442   5.312  2.2736 -1.3229  0.0170
27576SOL    HW283307   8.787   4.462   5.406  0.2552  0.2847  2.3402
27577SOL     OW83308   1.945   7.596   1.342  0.2936 -0.0746 -0.4834
27577SOL    HW183309   1.952   7.502   1.324  1.0664  0.1336 -1.3355
27577SOL    HW283310   1.973   7.638   1.261  0.3695  0.8972  0.0352
27578SOL     OW83311   4.370   7.350   5.316  0.1547  0.0157 -0.1472
27578SOL    HW183312   4.326   7.282   5.265 -0.1929  1.0242 -1.2394
27578SOL    HW283313   4.377   7.424   5.256  0.8987  0.8109  0.8823
27579SOL     OW83314   6.450   6.435   9.656  0.2392 -0.9340  0.2343
27579SOL    HW183315   6.469   6.382   9.734  1.1018 -2.1880 -0.7782
27579SOL    HW283316   6.535   6.444   9.612 -0.1803  0.0005 -0.4252
27580SOL     OW83317   0.992   3.904   8.029 -0.3395  0.3448  0.0843
27580SOL    HW183318   1.000   3.852   7.949 -0.8287 -2.0527  1.4933
27580SOL    HW283319   1.079   3.941   8.042  0.1398 -0.4133 -0.8070
27581SOL     OW83320   9.449   7.899   2.378 -0.3197 -0.1160  0.1293
27581SOL    HW183321   9.514   7.959   2.415 -0.8695 -0.6019  1.9933
27581SOL    HW283322   9.488   7.869   2.295  0.3260  2.1340 -0.4436
27582SOL     OW83323   2.948   1.769   9.510 -0.2515 -0.1058 -0.4442
27582SOL    HW183324   3.031   1.730   9.537 -0.3720 -0.9365 -1.2322
27582SOL    HW283325   2.894   1.768   9.589  0.0384 -0.7783 -0.2524
27583SOL     OW83326   1.419   7.858   0.265 -0.3281  0.1411 -0.4908
27583SOL    HW183327   1.352   7.797   0.296 -0.2890 -0.3946 -1.4222
27583SOL    HW283328   1.453   7.818   0.185  1.5766  0.0541  0.2985
27584SOL     OW83329   4.597   7.794   7.838 -0.5527  0.4039 -0.4872
27584SOL    HW183330   4.637   7.854   7.901 -0.6191 -1.1501  1.1222
27584SOL    HW283331   4.503   7.804   7.852 -0.5499 -0.6541  0.4032
27585SOL     OW83332   6.517   5.108   3.670  0.0073  0.2165 -0.3609
27585SOL    HW183333   6.567   5.030   3.646 -0.4516 -0.2692  0.2045
27585SOL    HW283334   6.473   5.082   3.751  0.3217  1.2712  0.1594
27586SOL     OW83335   8.571   3.491   4.451  0.2646 -0.6711  0.0209
27586SOL    HW183336   8.639   3.485   4.518 -0.7300 -1.6748  0.9877
27586SOL    HW283337   8.588   3.574   4.406  1.6995 -0.5799  0.6810
27587SOL     OW83338   4.198   4.841   3.961 -0.3556 -0.4647 -0.2065
27587SOL    HW183339   4.260   4.914   3.954 -1.2185  0.3673  0.5189
27587SOL    HW283340   4.131   4.861   3.897 -0.3369 -0.8890 -0.3581
27588SOL     OW83341   3.299   4.548   0.589  0.3104 -0.0386  1.1506
27588SOL    HW183342   3.337   4.479   0.535  0.7391  1.7348 -0.9726
27588SOL    HW283343   3.230   4.504   0.639 -0.0669 -1.8173 -0.7983
27589SOL     OW83344   9.504   6.164   5.696  0.4294 -0.4493 -0.3802
27589SOL    HW183345   9.565   6.219   5.646 -0.5966  0.2804 -0.8467
27589SOL    HW283346   9.518   6.076   5.662 -0.0211 -0.0094 -1.7361
27590SOL     OW83347   4.803   0.826   6.708 -0.4857  0.1210 -0.4526
27590SOL    HW183348   4.849   0.743   6.714  0.4649  0.6641 -0.0830
27590SOL    HW283349   4.784   0.851   6.799  1.9515  1.7667 -0.3051
27591SOL     OW83350   3.509   6.512   9.600 -0.0719  0.0385  0.5530
27591SOL    HW183351   3.433   6.494   9.545  0.1164  0.9970 -0.0482
27591SOL    HW283352   3.562   6.573   9.549  0.3074  0.6385  1.6186
27592SOL     OW83353   3.893   0.755   6.032 -0.1466 -0.8528  0.1071
27592SOL    HW183354   3.892   0.850   6.045 -0.5906 -0.9255  0.6065
27592SOL    HW283355   3.953   0.743   5.958  0.6746 -0.2591  0.6442
27593SOL     OW83356   0.039   3.108   3.469 -0.7270  0.3116  0.0584
27593SOL    HW183357   0.023   3.132   3.561 -1.6092 -1.0126  0.2871
27593SOL    HW283358  -0.049   3.090   3.434 -0.1986 -1.9359 -0.2338
27594SOL     OW83359   9.904   7.262   1.509 -0.1776 -0.3909  0.2358
27594SOL    HW183360   9.930   7.172   1.487 -1.1177 -0.7251  0.4454
27594SOL    HW283361   9.880   7.301   1.424  0.7544 -0.1492  0.0708
27595SOL     OW83362   7.493   2.976   3.872 -0.5089  0.0776  0.5307
27595SOL    HW183363   7.450   3.003   3.953 -0.2796 -1.4528  1.2063
27595SOL    HW283364   7.587   2.982   3.892 -0.3677  2.0152 -0.4589
27596SOL     OW83365   1.971   3.299   8.068  0.2874  0.2493  0.1326
27596SOL    HW183366   1.937   3.381   8.102 -0.6828  0.5576 -1.4867
27596SOL    HW283367   2.025   3.264   8.139 -0.3776  1.6040  1.3493
27597SOL     OW83368   3.322   2.085   9.371  0.3970 -0.0896  0.0053
27597SOL    HW183369   3.367   2.039   9.300 -0.6288 -0.1048 -0.6607
27597SOL    HW283370   3.373   2.164   9.385  0.6564 -0.1288 -0.7075
27598SOL     OW83371   4.858   3.654   7.661 -0.1275  0.1990  0.9870
27598SOL    HW183372   4.891   3.744   7.652  0.0765  0.2540  2.1200
27598SOL    HW283373   4.765   3.665   7.683 -0.0216  0.1488  1.4709
27599SOL     OW83374   5.086   6.052   2.959 -0.0756  0.2039 -0.0048
27599SOL    HW183375   5.118   6.058   2.869  0.9373 -2.6197  0.0735
27599SOL    HW283376   5.138   6.117   3.007 -0.2262  1.3419 -1.3160
27600SOL     OW83377   2.016   9.792   1.758  0.5372 -0.1865 -0.5315
27600SOL    HW183378   2.082   9.852   1.793 -0.7529  0.7356  0.4612
27600SOL    HW283379   1.947   9.850   1.726  0.6461 -1.0879 -2.5553
27601SOL     OW83380   7.595   4.826   5.439  0.3148  0.2661  0.1628
27601SOL    HW183381   7.531   4.778   5.492 -0.2163 -0.0595 -0.7417
27601SOL    HW283382   7.550   4.840   5.356  0.4043  2.4745  0.4315
27602SOL     OW83383   0.195   1.090   8.233  0.4827 -0.0251 -0.1185
27602SOL    HW183384   0.278   1.089   8.186 -0.0254  0.5750 -1.0686
27602SOL    HW283385   0.162   1.180   8.222  0.2038  0.0498  1.1403
27603SOL     OW83386   3.907   9.874   1.428 -0.5026 -0.0419  0.0064
27603SOL    HW183387   3.828   9.819   1.425 -0.6652  0.2054 -0.3498
27603SOL    HW283388   3.883   9.952   1.378 -0.1234  0.1577  0.1356
27604SOL     OW83389   1.956   9.854   4.659 -0.1900  0.1155 -0.0459
27604SOL    HW183390   2.051   9.855   4.650 -0.3335  0.1885 -1.8400
27604SOL    HW283391   1.940   9.808   4.742  1.4001  0.4689  0.4927
27605SOL     OW83392   2.947   8.748   2.645 -0.0177 -0.0741 -0.0187
27605SOL    HW183393   3.001   8.822   2.616  1.7663 -1.0322  0.6576
27605SOL    HW283394   2.912   8.710   2.565 -2.3285  2.4076 -0.3058
27606SOL     OW83395   1.931   1.137   2.637  0.0676 -0.6180 -0.8215
27606SOL    HW183396   1.981   1.213   2.609  0.6071 -0.1373  1.2680
27606SOL    HW283397   1.933   1.078   2.562  1.2431  0.6393 -1.8300
27607SOL     OW83398   3.131   6.625   7.681 -0.2151  0.5086  0.4749
27607SOL    HW183399   3.131   6.674   7.763 -0.6057  0.9170  0.2306
27607SOL    HW283400   3.221   6.593   7.673 -0.1672  0.4895  1.0466
27608SOL     OW83401   1.760   1.194   0.324 -0.0327  0.4384  0.6844
27608SOL    HW183402   1.729   1.257   0.259  0.9263  1.2491  0.9877
27608SOL    HW283403   1.854   1.186   0.308  0.3161  1.0101  2.2472
27609SOL     OW83404   9.413   0.694   3.778  0.4229 -0.0084 -0.6014
27609SOL    HW183405   9.337   0.636   3.779  1.3895 -1.5919 -3.7200
27609SOL    HW283406   9.488   0.634   3.776  1.7387  1.4851  1.1157
27610SOL     OW83407   0.420   3.814   2.875  0.2382  0.0419 -0.6863
27610SOL    HW183408   0.391   3.875   2.807 -0.5123 -0.3184 -0.6923
27610SOL    HW283409   0.511   3.795   2.852  0.2533  0.5750 -1.1058
27611SOL     OW83410   1.587   3.286   6.893 -0.5881 -0.3579 -0.6141
27611SOL    HW183411   1.652   3.331   6.839 -0.5614 -1.7310 -1.7856
27611SOL    HW283412   1.636   3.219   6.940 -0.9734 -0.6797 -0.6599
27612SOL     OW83413   0.575   5.898   8.464 -0.0987 -0.4646  0.5695
27612SOL    HW183414   0.632   5.973   8.446 -1.6398  0.7492  0.5274
27612SOL    HW283415   0.597   5.834   8.397 -0.5801  1.0161 -1.0674
27613SOL     OW83416   5.286   4.570   4.741 -0.0787  0.0461  0.0149
27613SOL    HW183417   5.219   4.555   4.674  0.1901 -2.0488  0.1506
27613SOL    HW283418   5.368   4.549   4.698  0.2177 -0.1163  0.6444
27614SOL     OW83419   8.496   5.535   8.521  0.5229  0.1532 -0.2013
27614SOL    HW183420   8.424   5.535   8.584  0.4646 -0.4575 -0.2609
27614SOL    HW283421   8.573   5.509   8.573  0.2946 -1.3210 -0.5686
27615SOL     OW83422   2.410   6.149   2.166 -0.1667 -0.1420  0.2323
27615SOL    HW183423   2.455   6.136   2.249 -1.5529  0.2888  1.0878
27615SOL    HW283424   2.322   6.179   2.191 -1.1987 -1.7007 -1.3439
27616SOL     OW83425   4.484   0.905   2.277  0.3474  0.3988 -0.0954
27616SOL    HW183426   4.523   0.992   2.271  1.8043 -0.1584  0.9552
27616SOL    HW283427   4.553   0.845   2.251 -0.3623 -0.5141  0.0482
27617SOL     OW83428   7.772   9.279   1.326 -0.3556  0.2450  0.0632
27617SOL    HW183429   7.850   9.227   1.347 -0.8650 -0.0747  1.1924
27617SOL    HW283430   7.762   9.269   1.231 -0.1728 -1.3634  0.1838
27618SOL     OW83431   4.166   2.651   2.892 -0.0882 -0.0995  0.5183
27618SOL    HW183432   4.190   2.735   2.931  2.2167 -0.8805  0.9516
27618SOL    HW283433   4.131   2.600   2.965 -2.0991  0.6392  0.1283
27619SOL     OW83434   5.217   6.742   4.117 -0.2618  0.0659  0.3293
27619SOL    HW183435   5.138   6.690   4.133 -0.7001 -0.0361 -1.7926
27619SOL    HW283436   5.184   6.828   4.092  0.4390  1.1023  2.7578
27620SOL     OW83437   8.059   4.580   0.358 -0.5741  0.0574 -0.2234
27620SOL    HW183438   8.067   4.589   0.453 -0.9515  0.7160 -0.2455
27620SOL    HW283439   7.975   4.536   0.345  0.8253 -2.9098 -0.1572
27621SOL     OW83440   7.980   4.230   0.051 -0.0922 -0.9168 -0.3546
27621SOL    HW183441   7.893   4.232   0.092  0.7646  0.4589  1.6104
27621SOL    HW283442   8.021   4.150   0.084 -0.9988 -2.2293 -2.2828
27622SOL     OW83443   3.770   8.491   9.925 -0.2152  0.3218  0.7786
27622SOL    HW183444   3.699   8.427   9.917 -0.0630 -0.1144  2.4624
27622SOL    HW283445   3.735   8.558   9.984 -0.4725  1.9933 -1.1637
27623SOL     OW83446   4.492   2.961   9.666 -0.4864  0.4857  0.6189
27623SOL    HW183447   4.567   3.002   9.709  1.1021 -2.2042  0.6627
27623SOL    HW283448   4.450   2.908   9.734 -1.4756  0.7150  0.2111
27624SOL     OW83449   9.192   9.953   2.503 -0.7954 -0.5451 -0.4070
27624SOL    HW183450   9.206   9.900   2.424 -0.4443 -0.1266 -0.6338
27624SOL    HW283451   9.271   9.938   2.556 -0.4846  0.0944 -0.6780
27625SOL     OW83452   4.889   1.514   8.764 -0.0845 -0.4637  0.0832
27625SOL    HW183453   4.893   1.424   8.731 -0.6600 -0.7464  0.7702
27625SOL    HW283454   4.801   1.524   8.798 -0.3432  0.6812 -0.8306
27626SOL     OW83455   4.615   3.893   7.802 -0.5909 -0.0828 -0.3451
27626SOL    HW183456   4.582   3.823   7.745 -1.3939 -1.3672  1.5825
27626SOL    HW283457   4.556   3.966   7.787 -2.7248 -1.4267  0.9899
27627SOL     OW83458   7.343   0.336   9.930  0.2095 -0.2877 -0.9472
27627SOL    HW183459   7.290   0.263   9.895 -0.5301 -1.3627  2.0906
27627SOL    HW283460   7.419   0.339   9.873 -0.6143 -2.2482 -2.2842
27628SOL     OW83461   6.947   8.411   4.401  0.3866 -0.2983  0.1548
27628SOL    HW183462   6.905   8.482   4.352 -0.5788 -0.7819  0.2638
27628SOL    HW283463   6.888   8.337   4.391 -0.0085 -0.3352  2.3089
27629SOL     OW83464   2.849   4.531   4.554  0.1399 -0.1292 -0.4408
27629SOL    HW183465   2.875   4.545   4.645 -0.4100 -1.2410 -0.0908
27629SOL    HW283466   2.815   4.615   4.525  0.6483  0.3308  0.2675
27630SOL     OW83467   4.932   1.171   9.761 -0.5575 -0.1552  0.0615
27630SOL    HW183468   4.884   1.248   9.793 -1.3472  0.2762 -1.9927
27630SOL    HW283469   5.015   1.206   9.729  1.9463 -1.0372  4.6829
27631SOL     OW83470   8.348   3.945   0.456  0.4204 -0.1631 -0.0723
27631SOL    HW183471   8.386   4.033   0.458  0.5320 -0.1953  2.0091
27631SOL    HW283472   8.400   3.898   0.390  1.3162  0.9218 -0.1789
27632SOL     OW83473   3.539   0.518   3.456  0.2851  0.6376 -0.0451
27632SOL    HW183474   3.530   0.437   3.405 -0.4282 -0.3725  1.5742
27632SOL    HW283475   3.457   0.565   3.440  0.8774  1.2884 -1.3266
27633SOL     OW83476   3.694   9.745   5.283 -0.6880  0.0279 -0.2525
27633SOL    HW183477   3.671   9.662   5.241  0.9593 -0.7807  0.3122
27633SOL    HW283478   3.610   9.787   5.302 -1.5536 -1.3108 -0.9397
27634SOL     OW83479   4.067   5.996   5.569 -0.7655  0.3241 -0.4944
27634SOL    HW183480   3.990   5.976   5.516 -0.5960  1.1311 -1.0462
27634SOL    HW283481   4.132   6.030   5.508  0.0740 -0.4202 -0.0498
27635SOL     OW83482   6.143   8.001   2.618  0.2373 -0.7366  0.4684
27635SOL    HW183483   6.146   8.082   2.667 -1.0814  2.1182 -3.6175
27635SOL    HW283484   6.051   7.973   2.622  0.4503 -1.4219  0.8705
27636SOL     OW83485   1.879   8.821   9.660  0.0265 -0.2832  0.0112
27636SOL    HW183486   1.888   8.752   9.726 -2.7505 -1.7289 -0.9290
27636SOL    HW283487   1.851   8.898   9.709  2.8529  0.2115  1.0438
27637SOL     OW83488   5.688   6.188   3.747  0.2238  0.1778 -0.1945
27637SOL    HW183489   5.706   6.264   3.691  0.8407 -0.6068 -1.1031
27637SOL    HW283490   5.775   6.153   3.768 -0.0911 -1.2613 -1.2123
27638SOL     OW83491   4.864   7.328   9.059  0.6475  0.3578 -0.1166
27638SOL    HW183492   4.848   7.270   8.985  0.1299 -0.4121  0.5763
27638SOL    HW283493   4.960   7.336   9.063  0.7337 -0.4932 -0.1984
27639SOL     OW83494   6.928   6.581   3.294  0.0435  0.3589 -0.1696
27639SOL    HW183495   6.861   6.516   3.311 -2.1336  2.0669 -1.7155
27639SOL    HW283496   7.007   6.529   3.276 -1.2806 -1.7875 -0.1835
27640SOL     OW83497   5.833   3.537   2.037  0.3267 -0.0120  0.3941
27640SOL    HW183498   5.770   3.478   1.995  2.4375 -2.2806  0.2264
27640SOL    HW283499   5.848   3.497   2.123  1.9241  0.1866  0.2224
27641SOL     OW83500   5.314   6.672   0.851 -0.2226 -0.5816 -0.2399
27641SOL    HW183501   5.348   6.663   0.762 -0.3943  2.0731 -0.6312
27641SOL    HW283502   5.301   6.581   0.880  2.0634 -1.5763 -2.0169
27642SOL     OW83503   7.794   2.337   6.248  0.2768  0.1797 -0.5279
27642SOL    HW183504   7.782   2.295   6.163 -0.8806  1.0973 -0.8395
27642SOL    HW283505   7.723   2.401   6.254  1.7362  1.8470  0.0811
27643SOL     OW83506   1.902   7.899   2.365  0.5513 -0.2522  0.2074
27643SOL    HW183507   1.822   7.895   2.418  0.3757 -0.3000 -0.0575
27643SOL    HW283508   1.875   7.863   2.280  0.5074  0.9719 -0.3200
27644SOL     OW83509   4.467   6.729   9.625  0.2228 -0.2515  0.0458
27644SOL    HW183510   4.533   6.660   9.619  1.0908  0.6954 -1.7680
27644SOL    HW283511   4.516   6.811   9.620 -1.0539  0.4816 -1.6178
27645SOL     OW83512   2.867   8.741   3.082 -0.3428  0.4454  0.5654
27645SOL    HW183513   2.830   8.656   3.059  0.3219  0.3906 -0.3740
27645SOL    HW283514   2.868   8.790   2.999  0.9715  0.7101  0.7245
27646SOL     OW83515   0.794   6.290   0.356 -0.7513 -0.2000  0.1718
27646SOL    HW183516   0.872   6.254   0.397 -0.3037  0.5924  0.0275
27646SOL    HW283517   0.753   6.215   0.312 -1.4478 -1.1652  2.3260
27647SOL     OW83518   5.091   3.310   8.165 -0.0557  0.6712 -0.2745
27647SOL    HW183519   5.100   3.215   8.154  2.7176  0.8319 -0.1721
27647SOL    HW283520   5.096   3.345   8.077 -0.6673  0.7701 -0.2754
27648SOL     OW83521   7.830   2.564   6.805 -0.0362 -0.3747  0.6214
27648SOL    HW183522   7.819   2.621   6.881 -0.3432  0.8980 -0.3496
27648SOL    HW283523   7.924   2.562   6.789 -0.0939  0.7054  0.0554
27649SOL     OW83524   5.838   3.563   0.865  0.5417 -0.0845  0.4085
27649SOL    HW183525   5.931   3.565   0.888  1.1423  3.5214 -1.5152
27649SOL    HW283526   5.838   3.556   0.769 -0.9583  2.2570  0.1492
27650SOL     OW83527   7.402   3.046   7.528  0.9965  1.2333 -0.5665
27650SOL    HW183528   7.397   2.952   7.545  0.9518  0.9517 -1.9629
27650SOL    HW283529   7.395   3.087   7.614 -2.9195  0.0998 -0.1233
27651SOL     OW83530   0.995   9.613  10.015  0.5078  0.4231  0.0169
27651SOL    HW183531   1.055   9.668   9.964  0.6558 -0.5279 -0.8715
27651SOL    HW283532   0.951   9.559   9.949  1.3161 -1.4508  0.9281
27652SOL     OW83533   5.984   3.569   9.460 -0.3965 -0.2334 -0.1144
27652SOL    HW183534   5.947   3.583   9.372  0.9616 -1.2438 -0.8733
27652SOL    HW283535   6.078   3.564   9.446 -0.1647 -0.5323  1.4011
27653SOL     OW83536   3.080   0.595   0.744 -0.3869  0.0728  0.3141
27653SOL    HW183537   3.109   0.679   0.709 -1.0446  0.5021  0.7686
27653SOL    HW283538   3.066   0.611   0.838  1.6552 -1.1350  0.9003
27654SOL     OW83539   0.226   7.853   8.184 -0.2644  0.0930 -0.0040
27654SOL    HW183540   0.216   7.946   8.163  1.2299  0.1043 -0.7622
27654SOL    HW283541   0.177   7.808   8.115  1.2754  0.2624 -1.2651
27655SOL     OW83542   4.190   9.591   6.008  0.2155  0.0053  0.2958
27655SOL    HW183543   4.241   9.664   6.042 -0.5928  1.1717 -0.9176
27655SOL    HW283544   4.103   9.627   5.993 -0.5243 -1.4978  0.6894
27656SOL     OW83545   3.043   9.124   0.448 -0.2821  0.0693 -0.0690
27656SOL    HW183546   3.086   9.210   0.454  0.4527 -0.3739  1.7148
27656SOL    HW283547   3.113   9.065   0.420 -0.5433 -0.1352 -0.2940
27657SOL     OW83548   0.703   3.695   6.244 -0.3214 -0.1191  0.4250
27657SOL    HW183549   0.638   3.765   6.256 -0.6897 -0.3190 -0.3404
27657SOL    HW283550   0.692   3.640   6.322 -2.1068 -0.9530 -0.3552
27658SOL     OW83551   7.015   1.932   9.081  0.0824 -0.2606 -0.4257
27658SOL    HW183552   7.006   1.913   9.174 -1.3136  1.2725 -0.1949
27658SOL    HW283553   6.977   1.856   9.037 -1.5412  0.0422  0.3478
27659SOL     OW83554   6.204   4.898   7.055  0.3966 -0.2806  0.1116
27659SOL    HW183555   6.180   4.915   7.146 -0.3181  0.3804 -0.1835
27659SOL    HW283556   6.140   4.833   7.026  1.2886 -1.3102  0.3739
27660SOL     OW83557   9.516   7.375   3.806 -0.0298 -0.0580 -0.0726
27660SOL    HW183558   9.595   7.426   3.824 -0.2788  0.0426  0.8114
27660SOL    HW283559   9.480   7.414   3.726  1.5357 -1.0078 -1.2968
27661SOL     OW83560   5.115   6.386   8.459 -0.5441 -0.4060 -0.0020
27661SOL    HW183561   5.139   6.457   8.519 -0.8478 -0.2781 -0.0313
27661SOL    HW283562   5.198   6.342   8.441 -0.1169  0.7197 -0.9834
27662SOL     OW83563   5.118   9.615   4.593  0.3798  0.0522 -0.5728
27662SOL    HW183564   5.191   9.667   4.627 -0.6156  0.8259  0.4375
27662SOL    HW283565   5.157   9.565   4.521  1.7714  0.8827 -0.4488
27663SOL     OW83566   5.637   0.646   5.768  0.0338  0.2785 -0.5748
27663SOL    HW183567   5.667   0.720   5.715  2.7682 -0.5200 -0.2834
27663SOL    HW283568   5.592   0.686   5.842  0.2133  1.5895 -1.1423
27664SOL     OW83569   6.991   8.315   0.827 -0.2686  0.3533 -0.2572
27664SOL    HW183570   6.922   8.381   0.823 -1.1147 -0.3543  1.6967
27664SOL    HW283571   6.957   8.248   0.886  0.2512 -2.2327 -2.6702
27665SOL     OW83572   2.988   1.150   0.382  0.1404 -0.3802  0.0667
27665SOL    HW183573   2.948   1.069   0.412  0.9557 -1.2226 -1.0209
27665SOL    HW283574   3.082   1.133   0.383  0.3967  0.9230  0.8250
27666SOL     OW83575   3.927   7.944   3.591  0.1480  0.0470  0.4664
27666SOL    HW183576   3.954   7.936   3.683  0.8287 -2.2045  0.1318
27666SOL    HW283577   4.009   7.937   3.542 -0.3064  0.3493 -0.3457
27667SOL     OW83578   2.113   0.542   7.178 -0.3056 -0.2592  1.0916
27667SOL    HW183579   2.079   0.631   7.179 -0.1415 -0.1061 -1.1361
27667SOL    HW283580   2.124   0.522   7.085  1.9101 -1.7629  1.6051
27668SOL     OW83581   8.676   6.768   4.559 -0.1306  0.7000 -0.0256
27668SOL    HW183582   8.706   6.848   4.517  0.7549  0.0797 -0.6167
27668SOL    HW283583   8.738   6.701   4.530 -0.4563 -0.0692  0.9858
27669SOL     OW83584   3.097   3.889   0.500 -0.0341 -0.0682 -0.1299
27669SOL    HW183585   3.166   3.823   0.496  1.7919  1.7812 -1.1515
27669SOL    HW283586   3.144   3.971   0.520 -1.8744  1.3304 -1.2579
27670SOL     OW83587   5.999   2.974   9.587 -0.1161  0.4699 -0.0088
27670SOL    HW183588   6.006   3.067   9.566  1.4661  0.1101 -1.3434
27670SOL    HW283589   6.020   2.929   9.505 -0.6793 -1.0725  0.6456
27671SOL     OW83590   1.402   0.065   7.799 -0.4190 -0.0370  0.1313
27671SOL    HW183591   1.307   0.074   7.804 -0.5028 -1.1383  1.4483
27671SOL    HW283592   1.427   0.104   7.715 -1.9858  0.5649 -0.0750
27672SOL     OW83593   4.558   1.258   4.697 -0.0829 -0.1850 -0.0895
27672SOL    HW183594   4.562   1.292   4.607  0.7357 -1.5348 -0.5807
27672SOL    HW283595   4.471   1.217   4.703  0.3700 -1.2756 -0.7256
27673SOL     OW83596   5.909   4.037   8.762 -0.2307  0.6127  0.4531
27673SOL    HW183597   5.818   4.065   8.764 -0.2801  0.4122  1.0700
27673SOL    HW283598   5.944   4.061   8.847  0.0340 -0.1682  0.5782
27674SOL     OW83599   4.429   0.125   3.342  0.4221  0.3914  0.0151
27674SOL    HW183600   4.357   0.071   3.309  0.4014  1.8087 -2.4956
27674SOL    HW283601   4.421   0.118   3.437 -1.9068 -0.9377 -0.1734
27675SOL     OW83602   8.231   6.882   5.266  0.6413  0.0694 -0.1580
27675SOL    HW183603   8.322   6.868   5.237  1.4911  0.5479  2.0401
27675SOL    HW283604   8.214   6.811   5.328  0.1274  0.8995  0.6835
27676SOL     OW83605   2.759   2.419   6.577  0.5215  0.1115  0.0350
27676SOL    HW183606   2.849   2.444   6.595  0.4885  2.0339 -2.0905
27676SOL    HW283607   2.761   2.379   6.490 -0.5782 -0.4539  0.2435
27677SOL     OW83608   5.296   3.381   6.275 -0.7495  0.0959  0.0383
27677SOL    HW183609   5.301   3.447   6.206 -1.2124  0.5211  0.4056
27677SOL    HW283610   5.311   3.298   6.230  0.0170  0.4624 -0.4004
27678SOL     OW83611   8.008   0.199   4.321 -0.1287  0.0077  0.1790
27678SOL    HW183612   7.944   0.195   4.392 -1.3456  1.4593 -0.7744
27678SOL    HW283613   7.968   0.152   4.249  0.4309 -0.1345 -0.0466
27679SOL     OW83614   8.475   8.871   7.481  0.1135  0.3309 -0.5890
27679SOL    HW183615   8.408   8.936   7.503  0.1530  0.1512  0.0549
27679SOL    HW283616   8.475   8.810   7.554  1.2545  0.5417 -0.3947
27680SOL     OW83617   0.919   1.677   8.090 -0.1919  0.2627 -0.1438
27680SOL    HW183618   0.966   1.690   8.008  1.0559  0.8787  0.6266
27680SOL    HW283619   0.887   1.765   8.113 -0.7177  0.0556 -0.0727
27681SOL     OW83620   8.904   3.989   6.275 -0.3998  0.1813 -0.9247
27681SOL    HW183621   8.894   3.894   6.263 -0.4981 -0.0684  0.8858
27681SOL    HW283622   8.896   4.025   6.187 -1.8206 -1.3749 -1.4860
27682SOL     OW83623   1.605   2.058   3.849  0.2336 -0.1324 -0.4071
27682SOL    HW183624   1.699   2.066   3.866  0.2511 -0.7845 -0.1744
27682SOL    HW283625   1.574   2.148   3.846  1.0461  0.1314 -1.5422
27683SOL     OW83626   7.940   3.331   9.565 -0.0489  0.2843 -0.1243
27683SOL    HW183627   7.960   3.390   9.492 -0.6204  0.5970 -0.0292
27683SOL    HW283628   7.929   3.389   9.640 -0.8404  0.0813 -0.0752
27684SOL     OW83629   9.829   1.349   5.942 -0.3433  0.6333 -0.2976
27684SOL    HW183630   9.874   1.307   6.016 -1.2553 -0.5295 -0.3714
27684SOL    HW283631   9.819   1.279   5.877  0.4678  1.6398 -1.5570
27685SOL     OW83632   7.784   7.520   1.765  0.3128 -0.4627  0.4582
27685SOL    HW183633   7.765   7.573   1.843  0.6882  0.8289 -0.3066
27685SOL    HW283634   7.879   7.511   1.764  0.2521 -1.2089  0.6002
27686SOL     OW83635   0.565   6.186   3.910  0.3273  0.5366 -0.4382
27686SOL    HW183636   0.632   6.118   3.912 -0.9789 -0.7971  0.1889
27686SOL    HW283637   0.517   6.174   3.991  0.3174  2.5212 -0.1087
27687SOL     OW83638   3.774   9.142   6.100  0.0962 -0.1995 -0.3264
27687SOL    HW183639   3.862   9.170   6.077 -0.2481  1.1266 -0.1216
27687SOL    HW283640   3.773   9.048   6.081  1.2597 -0.0609 -1.1855
27688SOL     OW83641   4.440   8.275   4.771  0.1461  0.4570 -0.3767
27688SOL    HW183642   4.475   8.343   4.829  1.0573 -1.0739  0.9425
27688SOL    HW283643   4.515   8.248   4.719  0.2549 -0.7893  0.3953
27689SOL     OW83644   6.242   9.971   8.046 -0.1660  0.2734  0.8723
27689SOL    HW183645   6.322   9.931   8.078 -0.8014 -0.1039  2.0555
27689SOL    HW283646   6.272  10.045   7.994  0.9541  0.0829  1.2115
27690SOL     OW83647   9.851   4.740   0.352  0.0721 -0.6663  0.5136
27690SOL    HW183648   9.813   4.824   0.328  1.1296 -0.7213 -1.6638
27690SOL    HW283649   9.897   4.756   0.434 -1.5593  0.2771  1.2944
27691SOL     OW83650   0.520   1.440   2.000 -0.0169  0.2284  0.2493
27691SOL    HW183651   0.425   1.447   1.989 -0.0751 -0.5339  0.1840
27691SOL    HW283652   0.531   1.381   2.074  0.4122  0.5147  0.4168
27692SOL     OW83653   5.821   2.668   6.812 -0.4604 -0.1454 -0.3330
27692SOL    HW183654   5.833   2.656   6.717  2.0786  1.1499 -0.2765
27692SOL    HW283655   5.728   2.686   6.822 -0.7291  0.1131 -2.6427
27693SOL     OW83656   4.087   9.274   9.253  0.0265 -0.2880  0.1872
27693SOL    HW183657   4.080   9.290   9.347  0.5897  0.2782  0.1423
27693SOL    HW283658   4.145   9.343   9.222 -1.8678  0.8652 -0.9534
27694SOL     OW83659   9.012   4.891   2.620 -0.5811 -0.0331  0.2621
27694SOL    HW183660   8.959   4.970   2.612 -0.4473 -0.0228 -0.6101
27694SOL    HW283661   8.950   4.823   2.644 -0.5409  0.5237  2.0787
27695SOL     OW83662   0.030   6.398   7.631 -0.0502  0.1622 -0.2604
27695SOL    HW183663   0.035   6.306   7.605 -0.4203  0.8370 -3.0426
27695SOL    HW283664   0.098   6.408   7.698  1.3503 -1.7180 -1.3050
27696SOL     OW83665   0.433   5.221   4.910  0.7307  0.5119  0.1419
27696SOL    HW183666   0.426   5.288   4.979 -1.1086  1.8858 -1.2885
27696SOL    HW283667   0.439   5.271   4.829  0.7589 -1.0785 -0.8729
27697SOL     OW83668   4.230   6.380   6.902 -0.4034 -0.2206  0.6814
27697SOL    HW183669   4.240   6.449   6.836  0.0744 -0.2244  0.7447
27697SOL    HW283670   4.179   6.420   6.972  2.0935  0.9568  1.9530
27698SOL     OW83671   5.184   4.498   9.376  0.2631 -0.4751 -0.3984
27698SOL    HW183672   5.257   4.553   9.404  1.9711 -2.9799  0.5111
27698SOL    HW283673   5.126   4.494   9.452  1.1357 -1.4166  0.2468
27699SOL     OW83674   1.041   0.772   4.165 -0.1210  0.3052 -0.1481
27699SOL    HW183675   1.029   0.867   4.168 -0.9570  0.1736  0.8136
27699SOL    HW283676   1.135   0.760   4.180  0.0354  0.9829 -0.5230
27700SOL     OW83677   8.207   7.390   8.139 -0.7382  0.0041  0.2478
27700SOL    HW183678   8.128   7.442   8.122 -1.1908 -0.8668 -0.3396
27700SOL    HW283679   8.178   7.321   8.198 -0.2039  0.2108  0.7637
27701SOL     OW83680   0.392   6.100   4.153 -0.4934  0.2750  0.0630
27701SOL    HW183681   0.338   6.050   4.092 -1.0994  1.2517 -0.2222
27701SOL    HW283682   0.469   6.045   4.169 -1.6161 -1.1908  0.5679
27702SOL     OW83683   6.388   6.079   4.738  0.6821  0.6463 -0.4269
27702SOL    HW183684   6.423   6.058   4.651  0.1868  1.2060 -0.7601
27702SOL    HW283685   6.344   6.163   4.728 -1.4789 -0.3782 -0.2213
27703SOL     OW83686   4.008   7.650   0.238  0.0119 -0.1495  0.2901
27703SOL    HW183687   3.917   7.677   0.251 -0.4284 -1.5446  0.2121
27703SOL    HW283688   4.020   7.648   0.143 -0.1702 -0.8957  0.2799
27704SOL     OW83689   6.083   0.320   5.449  0.7768 -0.0763  0.0734
27704SOL    HW183690   6.082   0.354   5.360 -2.4672  1.8323  0.6595
27704SOL    HW283691   6.138   0.382   5.498  1.9377 -0.7012 -0.3989
27705SOL     OW83692   5.583   6.041   4.359 -0.2216  0.5376 -0.3566
27705SOL    HW183693   5.598   5.949   4.339  1.1851  1.0059 -1.6578
27705SOL    HW283694   5.563   6.043   4.452  2.6727 -0.7939  0.3826
27706SOL     OW83695   2.099   4.601   0.211  0.5982 -0.3045 -0.3452
27706SOL    HW183696   2.023   4.544   0.217 -0.0828  0.3797 -1.8640
27706SOL    HW283697   2.144   4.573   0.131  2.3139 -1.0957  0.8341
27707SOL     OW83698   4.980   6.525   7.506  0.2672  0.5450 -0.0778
27707SOL    HW183699   4.979   6.432   7.485 -0.0439  0.8332 -1.5015
27707SOL    HW283700   4.957   6.568   7.423 -2.4716  1.7852  1.1727
27708SOL     OW83701   8.062   7.708   9.493 -0.2040  0.3488  0.1085
27708SOL    HW183702   8.039   7.674   9.580  0.7329 -0.6664 -0.0147
27708SOL    HW283703   8.149   7.746   9.505 -0.2101  0.4925 -0.3113
27709SOL     OW83704   6.066   9.352   7.859  0.3490 -0.2876  0.4074
27709SOL    HW183705   6.140   9.291   7.857  2.6540  2.2747 -0.1937
27709SOL    HW283706   6.041   9.362   7.768 -0.0180 -0.3217  0.5032
27710SOL     OW83707   2.752   3.203   2.899  0.1255 -0.8380  0.1189
27710SOL    HW183708   2.756   3.163   2.813  0.5197  0.0482 -0.2837
27710SOL    HW283709   2.767   3.296   2.884  1.9298 -0.8749  1.3123
27711SOL     OW83710   3.751   5.314   6.760  0.1679 -0.5887 -0.0898
27711SOL    HW183711   3.666   5.348   6.788  1.2735  1.8135  0.6282
27711SOL    HW283712   3.810   5.334   6.833  1.8772  0.3305 -1.6367
27712SOL     OW83713   2.957   3.189   0.532 -0.2170 -0.6588 -0.3735
27712SOL    HW183714   2.913   3.170   0.614  0.6671  0.4306  0.3948
27712SOL    HW283715   2.893   3.239   0.481 -0.4794 -0.5928  0.0177
27713SOL     OW83716   4.983   4.448   4.800  0.0733  0.7247  0.2480
27713SOL    HW183717   4.902   4.400   4.781  0.3420  0.1309  0.5750
27713SOL    HW283718   5.009   4.486   4.716  0.0978 -0.0828 -0.1175
27714SOL     OW83719   1.414   3.525   5.202  0.3764  0.0064 -0.2876
27714SOL    HW183720   1.505   3.552   5.198  0.7002 -0.7721  1.0666
27714SOL    HW283721   1.414   3.448   5.259 -0.9471 -0.8271 -1.3530
27715SOL     OW83722   4.226   9.957   0.884  0.2883  1.1794  0.5024
27715SOL    HW183723   4.138   9.927   0.864  0.3268  1.3602  0.0384
27715SOL    HW283724   4.229   9.964   0.979 -0.3504  1.6404  0.4894
27716SOL     OW83725   8.178   1.617   0.278 -0.5742  0.4168  0.4764
27716SOL    HW183726   8.210   1.695   0.326 -0.3802 -1.3919  3.5574
27716SOL    HW283727   8.083   1.625   0.280 -0.5453  1.4213 -0.8504
27717SOL     OW83728   0.326   2.532   7.035  0.7214  0.3273  0.3212
27717SOL    HW183729   0.285   2.496   7.113  0.5511  0.8860  0.4935
27717SOL    HW283730   0.352   2.620   7.059 -0.3237  0.9084 -0.5733
27718SOL     OW83731   3.547   1.251   2.718 -0.4250  0.3283  0.2901
27718SOL    HW183732   3.579   1.310   2.650  1.1813 -0.7857  0.0317
27718SOL    HW283733   3.478   1.200   2.674  1.1391 -0.9349 -0.8024
27719SOL     OW83734   1.557   8.133   6.135 -0.4265 -0.3008  0.0041
27719SOL    HW183735   1.524   8.139   6.225  1.4789  1.2739  0.6506
27719SOL    HW283736   1.480   8.151   6.081 -1.3565 -0.0713  1.3291
27720SOL     OW83737   7.365   3.322   1.543  0.0426 -0.6022  0.1389
27720SOL    HW183738   7.300   3.273   1.593  0.8967 -1.5515  0.3649
27720SOL    HW283739   7.405   3.257   1.485  1.7157 -0.3740  0.9661
27721SOL     OW83740   6.251   0.235   7.932 -0.3895  0.1148  0.0521
27721SOL    HW183741   6.262   0.292   8.008  0.5674 -1.2472  0.9844
27721SOL    HW283742   6.174   0.270   7.887 -0.6317  1.3107  1.3130
27722SOL     OW83743   3.042   5.178   2.860  0.0631  0.0946  0.2493
27722SOL    HW183744   3.082   5.265   2.860 -0.1051  0.1955 -1.0100
27722SOL    HW283745   3.068   5.140   2.944  0.5762  1.1567  0.5951
27723SOL     OW83746   1.546   0.149   8.191  0.1589  0.0441 -0.1075
27723SOL    HW183747   1.614   0.162   8.257 -0.5241 -0.9699  0.8312
27723SOL    HW283748   1.473   0.203   8.221  0.2729  0.5273 -0.6948
27724SOL     OW83749   2.327   4.667   8.303  0.0706 -0.2037 -0.0149
27724SOL    HW183750   2.390   4.637   8.238  0.8980  0.9795  0.2026
27724SOL    HW283751   2.247   4.682   8.253  0.5482  0.1912 -0.6847
27725SOL     OW83752   7.580   9.206   9.642 -0.7339 -0.1487  0.2857
27725SOL    HW183753   7.598   9.146   9.715 -0.5015  0.8244  1.0532
27725SOL    HW283754   7.544   9.150   9.573  0.6309 -1.3773  0.5124
27726SOL     OW83755   2.466   5.884   7.211  0.2511  0.3598 -0.4706
27726SOL    HW183756   2.413   5.937   7.271  1.0647  1.3021 -0.5400
27726SOL    HW283757   2.464   5.796   7.248  0.4831  0.8591  0.7858
27727SOL     OW83758   9.181   6.205   2.209 -0.0024 -0.1834 -0.3213
27727SOL    HW183759   9.265   6.249   2.221 -0.3936  1.1045 -1.9051
27727SOL    HW283760   9.119   6.261   2.256 -0.3381  0.3985 -1.4140
27728SOL     OW83761   1.220   2.359   7.349 -0.3866 -0.0152 -0.2472
27728SOL    HW183762   1.182   2.327   7.430 -0.5869 -0.0500 -0.3544
27728SOL    HW283763   1.165   2.323   7.280 -0.0891 -0.1620 -0.4100
27729SOL     OW83764   6.352   6.274   5.197 -0.4988 -0.0398 -0.5845
27729SOL    HW183765   6.413   6.289   5.125  3.0157 -1.5590  1.7806
27729SOL    HW283766   6.294   6.204   5.165  2.4861 -2.4251 -1.3180
27730SOL     OW83767   6.551   8.900   1.062  0.2322  0.3402  0.2015
27730SOL    HW183768   6.639   8.869   1.082  0.6710 -0.4889 -2.5816
27730SOL    HW283769   6.564   8.990   1.031  0.1316  0.2314 -0.1726
27731SOL     OW83770   2.538   1.507   1.268 -0.0092  0.4123  0.9632
27731SOL    HW183771   2.479   1.469   1.333  1.1244  1.2084  2.5143
27731SOL    HW283772   2.486   1.576   1.226 -0.6150  0.1796  1.3194
27732SOL     OW83773   4.249   6.601   5.389  0.6017  0.4358  0.2682
27732SOL    HW183774   4.306   6.668   5.352  1.6014 -1.0697 -1.0346
27732SOL    HW283775   4.295   6.519   5.374 -1.6338 -0.7942 -0.3450
27733SOL     OW83776   3.668   2.594   1.049 -0.1301  0.2239 -0.1172
27733SOL    HW183777   3.624   2.510   1.061 -1.5348  1.2160  2.5361
27733SOL    HW283778   3.606   2.648   1.001 -0.4915  0.5860  0.7194
27734SOL     OW83779   4.764   4.308   7.599 -0.7220 -0.0617 -0.0813
27734SOL    HW183780   4.683   4.303   7.651 -0.4610 -1.3794  0.2612
27734SOL    HW283781   4.749   4.248   7.526 -0.3898  0.3747 -0.5089
27735SOL     OW83782   4.212   3.839   4.976  0.1772 -0.0174 -0.4298
27735SOL    HW183783   4.233   3.766   5.034  0.5510  0.8017  0.4767
27735SOL    HW283784   4.134   3.810   4.929 -0.9697 -0.1497  1.4787
27736SOL     OW83785   1.903   8.676   6.017 -0.0597 -0.1956 -0.2155
27736SOL    HW183786   1.869   8.641   6.100  2.6443 -1.1691  0.5738
27736SOL    HW283787   1.934   8.764   6.039 -1.6986  0.5845 -0.8694
27737SOL     OW83788   4.829   4.201   3.087 -0.1389 -0.5797 -0.3413
27737SOL    HW183789   4.826   4.135   3.156  0.9102 -0.3982 -0.0955
27737SOL    HW283790   4.888   4.269   3.121  1.3856 -1.0512 -1.8809
27738SOL     OW83791   0.229   3.676   9.755 -0.0980 -0.0804  0.1104
27738SOL    HW183792   0.232   3.641   9.844  1.0311 -0.2832  0.0020
27738SOL    HW283793   0.269   3.608   9.701 -1.2337 -0.1896 -0.6481
27739SOL     OW83794   4.619   2.367   4.335 -0.1997  0.3697  0.9505
27739SOL    HW183795   4.572   2.296   4.291 -0.0024  0.3838  0.7162
27739SOL    HW283796   4.660   2.325   4.411 -0.2242  0.2682  0.9075
27740SOL     OW83797   2.737   3.155   6.963  0.0500 -0.6065 -0.6235
27740SOL    HW183798   2.808   3.158   6.899  0.9828 -0.0968  0.3990
27740SOL    HW283799   2.704   3.245   6.967  0.2505 -0.5498 -0.1296
27741SOL     OW83800   5.493   8.173   0.344 -0.4582  0.0930  0.1506
27741SOL    HW183801   5.540   8.251   0.371  0.5003  0.1346 -1.4690
27741SOL    HW283802   5.411   8.176   0.392  0.1718  1.3273  1.1978
27742SOL     OW83803   8.701   3.973   2.785  0.3260 -0.0862  0.4787
27742SOL    HW183804   8.632   3.959   2.850  0.6195  0.6462  0.9652
27742SOL    HW283805   8.660   3.953   2.701 -0.1882 -0.6119  0.8488
27743SOL     OW83806   0.625   9.685   5.151 -0.0948 -0.3303 -0.0532
27743SOL    HW183807   0.539   9.724   5.161 -0.5587 -0.1630 -3.5474
27743SOL    HW283808   0.679   9.755   5.114  1.0031 -1.0299  0.1705
27744SOL     OW83809   2.334   6.445   7.771 -0.0979 -0.3373 -0.4849
27744SOL    HW183810   2.379   6.400   7.843  1.4381 -0.5252 -1.5054
27744SOL    HW283811   2.391   6.432   7.696 -0.6921  1.4896 -1.3157
27745SOL     OW83812   7.746   6.398   6.468  0.1085  0.3798 -0.4232
27745SOL    HW183813   7.756   6.394   6.373 -0.3532  2.7146 -0.6171
27745SOL    HW283814   7.805   6.468   6.495 -1.4747  1.3380  0.7075
27746SOL     OW83815   6.221   2.012   1.860  0.3085  0.1105 -0.0988
27746SOL    HW183816   6.303   1.963   1.859  1.1573  1.5024 -0.5917
27746SOL    HW283817   6.191   2.008   1.951  1.1782  0.0225  0.1877
27747SOL     OW83818   0.584   5.431   3.602 -0.4395  0.2971  0.2132
27747SOL    HW183819   0.544   5.514   3.629  0.2681  0.8412 -0.3798
27747SOL    HW283820   0.549   5.416   3.514  0.1338  0.4227 -0.0342
27748SOL     OW83821   5.393   5.153   3.326  0.1432 -0.3704  0.1405
27748SOL    HW183822   5.361   5.154   3.416 -0.3801  3.4552  0.0516
27748SOL    HW283823   5.315   5.134   3.273 -0.4660  1.4819  0.3257
27749SOL     OW83824   0.895   6.087   8.719  0.5657 -0.0385 -0.0111
27749SOL    HW183825   0.874   5.999   8.751 -2.4266  0.4373 -0.4058
27749SOL    HW283826   0.867   6.146   8.789 -2.8346  0.8153 -1.8812
27750SOL     OW83827   0.009   5.477   0.441 -0.3063 -0.0327 -0.0743
27750SOL    HW183828   0.040   5.472   0.350 -2.9044 -0.4207 -1.0163
27750SOL    HW283829   0.040   5.395   0.481 -2.3085 -1.7558 -1.7761
27751SOL     OW83830   4.708   4.769   0.364  0.6587 -0.4492 -0.0874
27751SOL    HW183831   4.796   4.801   0.386  1.5535 -2.0120 -1.1673
27751SOL    HW283832   4.682   4.822   0.289  0.6887  0.0020  0.2168
27752SOL     OW83833   5.719   2.527   7.367  0.7192  0.2691  0.1086
27752SOL    HW183834   5.741   2.434   7.370  0.4944  0.2380  2.1349
27752SOL    HW283835   5.804   2.571   7.365  0.8355  0.0298 -0.3730
27753SOL     OW83836   5.870   1.601   1.044 -0.0569 -0.5245 -0.3399
27753SOL    HW183837   5.882   1.524   0.989 -2.1862  0.0382 -1.7234
27753SOL    HW283838   5.779   1.595   1.073  0.2044  0.6708  0.8228
27754SOL     OW83839   2.909   0.342   9.660 -0.4426  0.2722  0.0942
27754SOL    HW183840   2.965   0.323   9.735 -1.4081  1.4084  1.1266
27754SOL    HW283841   2.821   0.320   9.689 -0.7564  0.1608 -0.9174
27755SOL     OW83842   4.715   0.035   2.904  0.3549  0.2437 -0.0868
27755SOL    HW183843   4.714   0.081   2.988  1.3361  2.9464 -1.4307
27755SOL    HW283844   4.630  -0.009   2.899  0.8468 -1.2382  2.9010
27756SOL     OW83845   3.295   7.570   8.773  0.3261  0.0464 -0.2292
27756SOL    HW183846   3.377   7.555   8.820 -0.3048 -0.6966  0.6681
27756SOL    HW283847   3.313   7.541   8.683  1.3228  0.8048 -0.2898
27757SOL     OW83848   5.936   3.985   7.453  0.0036 -0.7230  0.3308
27757SOL    HW183849   5.852   4.031   7.453  1.2372  1.7449  0.9125
27757SOL    HW283850   5.954   3.968   7.360  0.2632  1.7048 -0.1509
27758SOL     OW83851   0.643   7.068   6.247  0.2315  0.4070 -0.9213
27758SOL    HW183852   0.561   7.117   6.241 -1.5125 -2.0783  0.5799
27758SOL    HW283853   0.635   7.001   6.179 -1.1398 -2.5754  1.9165
27759SOL     OW83854   5.629   1.460   7.658  0.1324 -0.3580 -0.2275
27759SOL    HW183855   5.621   1.410   7.739  0.4554  0.5689  0.3849
27759SOL    HW283856   5.605   1.550   7.682  0.4312 -0.0300 -1.1115
27760SOL     OW83857   5.896   2.772   5.141  0.4337 -0.4577  0.5953
27760SOL    HW183858   5.899   2.676   5.139 -1.0563 -0.5640  1.5336
27760SOL    HW283859   5.803   2.792   5.154  0.6280  1.1448 -0.3154
27761SOL     OW83860   8.158   6.079   8.452 -0.4100  0.2959  0.2246
27761SOL    HW183861   8.066   6.108   8.453 -0.3408  0.5517 -0.2978
27761SOL    HW283862   8.207   6.158   8.477 -0.1404  0.9954 -2.2060
27762SOL     OW83863   8.967   5.113   0.859 -0.1606 -0.0908 -0.0058
27762SOL    HW183864   8.975   5.171   0.935 -0.9495 -0.2388  0.2012
27762SOL    HW283865   9.038   5.050   0.870 -0.3191 -0.1674  0.6616
27763SOL     OW83866   5.295   8.800   2.752 -0.1410  0.3301  0.3661
27763SOL    HW183867   5.225   8.736   2.740  0.5452 -0.7553  1.9333
27763SOL    HW283868   5.367   8.768   2.697  0.2603 -0.3765  1.2740
27764SOL     OW83869   3.608   8.380   3.470 -0.4488 -0.3020 -0.4990
27764SOL    HW183870   3.696   8.370   3.505 -0.4951 -1.8567 -0.7380
27764SOL    HW283871   3.607   8.467   3.429  1.0844 -0.4196 -0.8239
27765SOL     OW83872   1.178   6.864   5.967  0.4976  0.3313 -0.0275
27765SOL    HW183873   1.088   6.889   5.945  0.4982  1.2339  0.9166
27765SOL    HW283874   1.208   6.933   6.027  1.5265 -0.4139  0.3385
27766SOL     OW83875   5.249   4.275   8.456 -0.7106 -0.3315  0.1475
27766SOL    HW183876   5.233   4.180   8.453 -1.2438 -0.2493  0.3191
27766SOL    HW283877   5.215   4.302   8.541 -2.4906  0.3415 -0.7128
27767SOL     OW83878   4.743   3.328   8.011  0.4303  0.3821 -0.7725
27767SOL    HW183879   4.799   3.308   8.086  1.1983 -1.1229 -1.7080
27767SOL    HW283880   4.732   3.245   7.965 -1.8175  0.8359 -1.1647
27768SOL     OW83881   3.579   3.608   2.621  0.3270 -0.1161  0.0552
27768SOL    HW183882   3.629   3.627   2.700 -0.1875  0.4502  0.2545
27768SOL    HW283883   3.617   3.527   2.587  1.2430  0.1966  0.3066
27769SOL     OW83884   1.933   4.030   8.968 -0.4023  0.2903  0.0965
27769SOL    HW183885   1.913   4.124   8.964 -0.3549  0.2440 -2.2474
27769SOL    HW283886   1.897   3.994   8.887 -1.2376 -1.9220  1.3550
27770SOL     OW83887   7.264   8.532   1.698 -0.8280 -0.4029 -0.0502
27770SOL    HW183888   7.175   8.538   1.663 -0.1924 -0.0121 -1.6825
27770SOL    HW283889   7.309   8.609   1.664  0.7948 -1.8200 -1.3259
27771SOL     OW83890   9.508   4.954   6.128 -0.3093 -0.1060  0.1511
27771SOL    HW183891   9.434   5.011   6.149 -0.0335  0.2268  0.2422
27771SOL    HW283892   9.476   4.898   6.058 -0.0601  1.3178 -1.1458
27772SOL     OW83893   8.677   4.120   0.433 -0.0922  0.2787  0.0042
27772SOL    HW183894   8.645   4.053   0.372 -1.4775 -0.2176  1.2325
27772SOL    HW283895   8.611   4.190   0.429  1.0508  1.3601 -0.8415
27773SOL     OW83896   1.688   7.585   0.921 -0.0410 -0.2623  0.3290
27773SOL    HW183897   1.608   7.542   0.890  0.7672 -0.0293 -2.3000
27773SOL    HW283898   1.662   7.675   0.939 -0.7356 -0.6402  1.3039
27774SOL     OW83899   1.711   3.605   0.426 -0.0770  0.1209  0.2043
27774SOL    HW183900   1.792   3.556   0.438  0.0681  0.1526 -0.5948
27774SOL    HW283901   1.645   3.556   0.476  0.0318 -0.9844 -0.6954
27775SOL     OW83902   8.372   7.510   7.877  0.4834  0.0655  0.2531
27775SOL    HW183903   8.430   7.477   7.945 -0.0411  0.3044  0.8276
27775SOL    HW283904   8.334   7.590   7.914 -0.2913 -0.1402 -0.0628
27776SOL     OW83905   7.008   6.464   8.280 -0.5660 -0.1444  0.3851
27776SOL    HW183906   7.047   6.409   8.212 -0.3242 -0.2933  0.6451
27776SOL    HW283907   7.038   6.426   8.362 -0.6633  0.1823  0.5722
27777SOL     OW83908   1.265   9.312   3.777 -0.4511 -0.0111  0.5028
27777SOL    HW183909   1.273   9.359   3.694  1.0485 -0.1770  0.5258
27777SOL    HW283910   1.297   9.374   3.842 -1.1727 -0.0537  0.9064
27778SOL     OW83911   6.962   7.968   2.097 -0.3670 -0.1710 -0.1966
27778SOL    HW183912   6.958   8.030   2.170  2.2334 -1.1329  0.8670
27778SOL    HW283913   6.880   7.982   2.050 -0.7949  2.6034  1.1648
27779SOL     OW83914   9.304   6.563   9.457 -0.0425 -0.5809  0.2792
27779SOL    HW183915   9.360   6.487   9.466  2.3308  1.0656  0.3111
27779SOL    HW283916   9.277   6.583   9.547  0.8321 -0.3358  0.4960
27780SOL     OW83917   5.341   1.345   4.492 -0.0227 -0.5696 -0.0339
27780SOL    HW183918   5.278   1.318   4.425 -0.4164 -0.2400  0.2035
27780SOL    HW283919   5.301   1.318   4.575 -0.8300  1.4508  0.2916
27781SOL     OW83920   8.097   3.941   4.751  0.1919 -0.2657 -0.0003
27781SOL    HW183921   8.102   3.953   4.656  1.2009  1.3967  0.2406
27781SOL    HW283922   8.004   3.923   4.767  0.3645 -3.2100 -1.5222
27782SOL     OW83923   7.098   4.666   1.143  0.1409 -0.4062  0.2250
27782SOL    HW183924   7.169   4.708   1.191 -0.2119  0.6796 -0.1714
27782SOL    HW283925   7.020   4.716   1.166 -0.3960 -1.1973  0.1759
27783SOL     OW83926   3.823   0.139   9.377 -0.2250  0.8960  0.9036
27783SOL    HW183927   3.759   0.080   9.416  1.2282 -1.3091  0.1427
27783SOL    HW283928   3.772   0.193   9.316 -1.6678  0.7777  1.9577
27784SOL     OW83929   0.286   7.655   8.807 -0.6272  0.2289  0.3028
27784SOL    HW183930   0.313   7.744   8.829  1.6139 -0.3862  0.2843
27784SOL    HW283931   0.352   7.624   8.745 -2.3212 -0.8781 -1.0478
27785SOL     OW83932   4.281   5.255   1.973 -0.3390 -0.5294 -0.3969
27785SOL    HW183933   4.253   5.285   2.059  1.7726 -0.6836  0.3971
27785SOL    HW283934   4.203   5.266   1.918 -1.3783  0.7729  1.2120
27786SOL     OW83935   7.826   3.927   4.072 -0.4092  0.1386  0.4956
27786SOL    HW183936   7.759   3.883   4.123 -0.5445  0.5379  0.6612
27786SOL    HW283937   7.780   4.000   4.030  0.1986  1.2623  1.7149
27787SOL     OW83938   8.156   1.192   1.093 -0.0852  0.5572  0.3255
27787SOL    HW183939   8.137   1.263   1.155  1.8790  1.2345  0.2234
27787SOL    HW283940   8.152   1.234   1.007  0.1757  0.3202  0.1982
27788SOL     OW83941   0.345   2.474   2.078  0.6368  0.1406  0.1456
27788SOL    HW183942   0.433   2.440   2.064  0.5115  0.0208 -0.3729
27788SOL    HW283943   0.354   2.569   2.067  0.7061  0.1309  0.1164
27789SOL     OW83944   3.045   4.533   9.483 -0.0309 -0.3029 -0.2330
27789SOL    HW183945   3.061   4.526   9.389  0.5439 -2.7982 -0.0229
27789SOL    HW283946   2.967   4.587   9.490  0.5917  0.9417 -2.0461
27790SOL     OW83947   6.821   4.965   5.211 -0.0657 -0.4484 -0.0798
27790SOL    HW183948   6.869   5.036   5.168 -0.8762  0.9456  1.2146
27790SOL    HW283949   6.750   4.945   5.151 -0.0953  0.1641 -0.2620
27791SOL     OW83950   7.795   9.941   2.717  0.2084  0.4676 -0.4191
27791SOL    HW183951   7.749   9.999   2.657 -1.8024 -0.9878 -0.3621
27791SOL    HW283952   7.764   9.966   2.804 -2.4684 -2.0242 -0.5121
27792SOL     OW83953   3.328   8.009   6.859  0.5527  0.4609 -0.6186
27792SOL    HW183954   3.349   8.053   6.777  1.6127  0.6582 -0.2544
27792SOL    HW283955   3.237   7.981   6.849  0.3131  1.4763 -1.4209
27793SOL     OW83956   9.803   1.123   5.249 -0.1269  1.0961  0.6143
27793SOL    HW183957   9.897   1.122   5.268  0.1751  0.7199 -0.8266
27793SOL    HW283958   9.772   1.038   5.281  0.3058  0.6183 -0.2007
27794SOL     OW83959   6.925   2.397   1.763  0.6094  0.1906 -0.3572
27794SOL    HW183960   6.925   2.357   1.850  0.0347 -0.2317 -0.5420
27794SOL    HW283961   7.015   2.392   1.734  0.5023 -1.2900 -0.5095
27795SOL     OW83962   6.600   5.139   2.171 -0.2932  0.4604 -0.3941
27795SOL    HW183963   6.528   5.162   2.230 -0.4613 -1.0551  0.0445
27795SOL    HW283964   6.565   5.153   2.083 -1.4143 -0.9852 -0.2080
27796SOL     OW83965   9.102   1.897   9.117  0.1286  0.0239 -0.0374
27796SOL    HW183966   9.039   1.866   9.052 -1.0745  1.3193  0.4638
27796SOL    HW283967   9.160   1.822   9.132 -2.2710 -1.7816  0.7027
27797SOL     OW83968   7.913   8.047   4.241  0.3934 -0.0796 -0.0802
27797SOL    HW183969   7.996   8.075   4.203 -0.0425 -1.1368 -1.9123
27797SOL    HW283970   7.933   7.964   4.284  0.3346 -0.2620 -0.3984
27798SOL     OW83971   3.960   9.400   7.413  0.0776 -0.0561  0.0796
27798SOL    HW183972   4.006   9.479   7.442  0.9670 -0.8110  0.7895
27798SOL    HW283973   3.948   9.413   7.319  0.8704  0.6073  0.0534
27799SOL     OW83974   5.146   3.190   7.281  0.2034  0.5060  0.4257
27799SOL    HW183975   5.073   3.162   7.336  0.4096 -0.1101  0.3924
27799SOL    HW283976   5.202   3.113   7.274 -0.2696  0.2947 -1.4213
27800SOL     OW83977   6.296   9.372   5.958 -0.2882  0.8052  0.7216
27800SOL    HW183978   6.319   9.436   6.025  0.6555  0.4021  0.8107
27800SOL    HW283979   6.298   9.288   6.004  1.3057  0.4190  0.0212
27801SOL     OW83980   1.289   6.700   3.063  0.3001  0.0324  0.0519
27801SOL    HW183981   1.245   6.646   3.128  1.5867 -0.9096  0.1952
27801SOL    HW283982   1.269   6.790   3.088  0.7445 -0.3044  1.7669
27802SOL     OW83983   6.452   1.266   4.743 -0.2612 -0.3472 -0.3244
27802SOL    HW183984   6.515   1.194   4.753  0.1186  0.1325  0.9368
27802SOL    HW283985   6.456   1.312   4.826  0.4602  1.9421 -1.5563
27803SOL     OW83986   8.656   0.859   2.534  0.1364 -0.3865 -0.4292
27803SOL    HW183987   8.717   0.925   2.500  0.7005 -0.6211  0.0927
27803SOL    HW283988   8.571   0.883   2.497  0.7417 -0.7471 -2.1273
27804SOL     OW83989   8.605   9.250   4.234  0.1686  0.4819  0.0068
27804SOL    HW183990   8.593   9.174   4.291  0.2618 -0.3260 -1.0059
27804SOL    HW283991   8.631   9.321   4.292  1.1496 -0.5399  0.8573
27805SOL     OW83992   8.280   7.897   4.891  0.1718 -0.4652  0.8185
27805SOL    HW183993   8.197   7.940   4.914 -0.1285 -0.3301 -0.4118
27805SOL    HW283994   8.337   7.912   4.966 -0.8072 -0.2695  1.5504
27806SOL     OW83995   4.440   1.944   4.164 -0.6558  0.4957  0.9251
27806SOL    HW183996   4.407   1.895   4.239  1.0833 -0.4051  1.1611
27806SOL    HW283997   4.379   1.924   4.093  0.4165 -2.7919  0.7732
27807SOL     OW83998   5.966   4.476   2.675 -0.7917  0.4698 -0.5286
27807SOL    HW183999   5.973   4.421   2.753 -6.2231  0.0371  0.0065
27807SOL    HW284000   5.965   4.415   2.602 -1.3614  0.3537 -0.4235
27808SOL     OW84001   2.431   7.322   2.372 -0.2947 -0.1804 -0.3662
27808SOL    HW184002   2.524   7.299   2.372 -0.2967 -0.3276 -2.5352
27808SOL    HW284003   2.430   7.415   2.351 -0.5984  0.3955  1.8751
27809SOL     OW84004   9.842   3.082   0.922 -0.3159  0.6264 -0.0960
27809SOL    HW184005   9.848   3.007   0.863  0.1215  0.5649  0.0205
27809SOL    HW284006   9.755   3.075   0.962 -0.2935  0.2048 -0.1218
27810SOL     OW84007   0.447   0.859   3.318 -0.3430 -0.0903 -0.2159
27810SOL    HW184008   0.448   0.945   3.360  1.0748  0.8304 -2.0139
27810SOL    HW284009   0.525   0.815   3.351 -1.1809 -0.8382  0.8724
27811SOL     OW84010   9.835   1.100   1.716  0.2259  0.1611 -0.1865
27811SOL    HW184011   9.907   1.114   1.778  2.1639  0.1277 -2.3211
27811SOL    HW284012   9.877   1.097   1.630 -2.1721 -1.2789 -1.4153
27812SOL     OW84013   1.723   2.891   7.144  0.4753 -0.0393 -0.8320
27812SOL    HW184014   1.750   2.890   7.052  1.5201 -0.8899 -0.5437
27812SOL    HW284015   1.803   2.871   7.193 -0.2901 -0.7544  0.1918
27813SOL     OW84016   5.382   5.266   2.477  0.1390  0.1023  0.0924
27813SOL    HW184017   5.448   5.219   2.528 -0.6358 -0.9009  0.2078
27813SOL    HW284018   5.412   5.357   2.476  1.4962 -0.3341  0.1536
27814SOL     OW84019   3.474   9.586   0.063 -0.7101  0.5419 -0.6386
27814SOL    HW184020   3.502   9.672   0.093  0.5917 -0.4251  1.0926
27814SOL    HW284021   3.378   9.591   0.060 -0.7320  1.5831  0.9254
27815SOL     OW84022   3.488   6.916   0.889 -0.1079  0.1703  0.3264
27815SOL    HW184023   3.525   6.876   0.967  0.4463  0.2026  0.0845
27815SOL    HW284024   3.556   6.908   0.822 -0.3649  0.6231 -0.0046
27816SOL     OW84025   0.020   0.940   0.507  0.2519  0.7824  0.8849
27816SOL    HW184026   0.091   0.878   0.526  0.6112  0.7446 -0.4941
27816SOL    HW284027   0.063   1.025   0.502  0.5045  0.5782 -1.4295
27817SOL     OW84028   2.045   4.074   9.729 -0.5016 -0.2044 -0.4837
27817SOL    HW184029   2.109   4.005   9.712 -0.6696 -0.6429  0.5423
27817SOL    HW284030   1.964   4.027   9.747 -0.5299  0.2212  0.5927
27818SOL     OW84031   7.148   3.049   9.939 -0.3974  0.1943  0.1986
27818SOL    HW184032   7.100   3.106   9.879 -2.6140 -1.4942  0.2667
27818SOL    HW284033   7.106   3.062  10.024 -0.4519 -0.9992  0.3638
27819SOL     OW84034   7.296   0.926   8.768  0.6196  0.2245  0.1907
27819SOL    HW184035   7.268   0.923   8.860 -0.9501 -0.5360 -0.2762
27819SOL    HW284036   7.305   1.020   8.749  0.1148  0.4239  0.8924
27820SOL     OW84037   8.742   9.782   8.742 -0.1745  0.3053 -0.3598
27820SOL    HW184038   8.822   9.745   8.779  1.1009  0.3930 -2.8189
27820SOL    HW284039   8.688   9.706   8.720 -0.4007  0.2108  0.4954
27821SOL     OW84040   0.022   5.239   1.836 -0.1761  0.7544  0.1345
27821SOL    HW184041   0.034   5.159   1.887 -0.0695  2.0663  2.2374
27821SOL    HW284042  -0.032   5.295   1.891  0.9297  2.6964 -0.6892
27822SOL     OW84043   0.060   5.890   2.148 -0.3629  0.3068  0.0034
27822SOL    HW184044   0.110   5.934   2.080  0.8464  1.2848  1.4688
27822SOL    HW284045  -0.032   5.902   2.121  0.0518  1.2793 -1.0776
27823SOL     OW84046   3.367   0.741   8.412 -0.4675  0.0816  1.0385
27823SOL    HW184047   3.456   0.725   8.380 -0.7813 -1.6641  0.9434
27823SOL    HW284048   3.366   0.706   8.501 -1.2382 -0.5419  0.7953
27824SOL     OW84049   4.653   7.655   0.931  0.0268 -0.2393 -0.1139
27824SOL    HW184050   4.584   7.717   0.907  0.9005  1.0261  0.5651
27824SOL    HW284051   4.653   7.655   1.026  2.6368  1.7822 -0.0083
27825SOL     OW84052   3.606   4.211   3.754 -0.2966  0.0359  0.3589
27825SOL    HW184053   3.640   4.141   3.698 -0.9146  0.1684 -0.1888
27825SOL    HW284054   3.534   4.250   3.704  0.4903  1.5475  0.3210
27826SOL     OW84055   7.412   8.566   0.309  0.3431 -0.4702 -0.5333
27826SOL    HW184056   7.316   8.566   0.312  0.3241 -0.6763 -1.0276
27826SOL    HW284057   7.438   8.530   0.394 -0.0187 -0.6776 -0.5059
27827SOL     OW84058   2.498   4.160   9.328  0.0265 -0.3059  0.3651
27827SOL    HW184059   2.559   4.093   9.297  1.8930  0.8873  1.2988
27827SOL    HW284060   2.481   4.136   9.419 -1.1334 -0.7559  0.0517
27828SOL     OW84061   4.300   1.589   8.802 -0.0712  0.4283  0.0223
27828SOL    HW184062   4.353   1.534   8.745  2.0581  2.3050  0.0745
27828SOL    HW284063   4.212   1.587   8.763  0.6932 -0.4794 -1.7402
27829SOL     OW84064   5.610   7.007   3.460  0.4799  0.2769  0.2638
27829SOL    HW184065   5.697   6.995   3.423 -0.4753  0.1778 -2.1698
27829SOL    HW284066   5.619   7.081   3.519  2.8808 -1.7637  2.6998
27830SOL     OW84067   4.344   4.376   2.562  0.0613  0.4223  0.3982
27830SOL    HW184068   4.295   4.350   2.639  0.0001 -0.8526 -0.0388
27830SOL    HW284069   4.421   4.422   2.596 -0.9806  1.6747  1.1115
27831SOL     OW84070   9.044   0.115   0.813 -0.9175  0.3587 -0.1035
27831SOL    HW184071   9.125   0.158   0.839 -0.2231 -0.4637 -0.8689
27831SOL    HW284072   8.990   0.116   0.892 -0.1933  0.9622  0.3965
27832SOL     OW84073   7.403   6.584   5.929 -0.4398  0.2003 -0.1501
27832SOL    HW184074   7.484   6.590   5.980 -0.4500 -1.5116  0.1248
27832SOL    HW284075   7.416   6.509   5.871 -1.7990 -0.0639 -0.1551
27833SOL     OW84076   8.961   9.259   1.756  0.1159  0.2242 -0.1837
27833SOL    HW184077   8.958   9.166   1.737 -0.3053  0.0888  0.5043
27833SOL    HW284078   9.010   9.266   1.838  1.0625  0.7066 -0.7714
27834SOL     OW84079   1.816   7.113   8.834 -0.3743  0.3194 -0.1790
27834SOL    HW184080   1.862   7.171   8.895 -1.3871  0.1691  0.7625
27834SOL    HW284081   1.767   7.053   8.891 -2.8584  1.3528 -1.0729
27835SOL     OW84082   1.348   5.223   8.850  0.0566  0.2241  0.2341
27835SOL    HW184083   1.288   5.220   8.775 -1.3511 -1.7195  1.3214
27835SOL    HW284084   1.435   5.221   8.811 -0.6021  0.7551 -1.3646
27836SOL     OW84085   5.744   6.702   8.998 -0.9030 -0.3892  0.1890
27836SOL    HW184086   5.755   6.607   9.010 -1.6429 -0.2783  2.2043
27836SOL    HW284087   5.750   6.738   9.087 -2.8714  1.2046 -0.2614
27837SOL     OW84088   9.747   8.731   8.691 -0.2154  0.5576 -0.5719
27837SOL    HW184089   9.836   8.766   8.700 -0.3628  0.9229 -0.4925
27837SOL    HW284090   9.750   8.646   8.734  0.7769 -0.6565 -2.8493
27838SOL     OW84091   5.533   7.482   8.706  0.2058  0.1280  0.6978
27838SOL    HW184092   5.504   7.515   8.621 -0.5704  0.2591  1.0094
27838SOL    HW284093   5.628   7.495   8.705  0.2697 -0.3038 -0.3344
27839SOL     OW84094   4.733   4.090   7.442 -0.2299 -0.0858  0.2393
27839SOL    HW184095   4.658   4.059   7.492  0.2267 -0.8382  0.4754
27839SOL    HW284096   4.805   4.033   7.468 -0.1580 -1.0705 -1.8745
27840SOL     OW84097   8.416   9.563   6.581 -0.5605 -0.4754 -0.4014
27840SOL    HW184098   8.473   9.581   6.507  0.0537 -0.9037 -0.0369
27840SOL    HW284099   8.475   9.545   6.654 -1.1480  0.1140  0.2453
27841SOL     OW84100   0.353   9.369   4.557 -0.0041 -0.4328  0.0247
27841SOL    HW184101   0.296   9.378   4.633  0.2534  1.5245  0.0251
27841SOL    HW284102   0.311   9.420   4.488  0.0083 -1.7945 -1.0442
27842SOL     OW84103   1.579   2.872   4.574  0.7509 -0.5657  0.2772
27842SOL    HW184104   1.486   2.885   4.593  0.2157 -0.3351 -2.2020
27842SOL    HW284105   1.594   2.779   4.593  0.2534 -0.4199  1.4985
27843SOL     OW84106   7.766   7.217   6.872 -1.0104 -0.4739 -0.1963
27843SOL    HW184107   7.819   7.212   6.793 -0.9736  1.3744 -0.3230
27843SOL    HW284108   7.691   7.271   6.848 -0.4845  0.9871  1.2794
27844SOL     OW84109   4.628   5.541   5.754 -0.6276  0.0471  0.0494
27844SOL    HW184110   4.645   5.557   5.846  0.4000  0.4885 -0.2070
27844SOL    HW284111   4.539   5.575   5.739 -0.2200  1.3833  0.5365
27845SOL     OW84112   1.198   7.444   7.205  0.0272  0.2393 -0.5344
27845SOL    HW184113   1.219   7.370   7.148  0.3569  0.5139 -0.7699
27845SOL    HW284114   1.276   7.456   7.258 -0.1038  0.2878 -0.3521
27846SOL     OW84115   5.580   2.811   1.333 -1.0038  0.3855  0.1805
27846SOL    HW184116   5.575   2.889   1.389  0.4408  0.0847  0.7534
27846SOL    HW284117   5.666   2.774   1.351 -0.3490  0.4514 -2.4789
27847SOL     OW84118   5.871   6.922   1.287  0.0299  0.0120 -0.5700
27847SOL    HW184119   5.889   6.963   1.372  0.7338 -0.3390 -0.5414
27847SOL    HW284120   5.957   6.916   1.245 -0.3050  0.1288 -1.2876
27848SOL     OW84121   9.395   6.654   0.236 -0.3725  0.8740 -0.7911
27848SOL    HW184122   9.370   6.746   0.243 -0.7570  0.8392 -1.5912
27848SOL    HW284123   9.458   6.652   0.164 -0.6802  0.4524 -1.0497
27849SOL     OW84124   9.078   3.234   5.296 -0.0574 -0.5369 -0.0093
27849SOL    HW184125   9.094   3.143   5.269 -2.2137 -1.2465  0.8817
27849SOL    HW284126   9.051   3.278   5.216 -1.2679 -1.2972 -0.0457
27850SOL     OW84127   8.715   1.470   5.209  0.0098  0.2265 -0.2998
27850SOL    HW184128   8.622   1.448   5.197 -0.6388  2.5279 -0.0119
27850SOL    HW284129   8.748   1.403   5.269 -1.6879 -0.1563  0.2684
27851SOL     OW84130   5.568   0.164   4.892 -0.0602 -0.2551  0.2206
27851SOL    HW184131   5.648   0.112   4.903 -0.7072 -1.2583  0.4141
27851SOL    HW284132   5.527   0.163   4.979  0.3347  1.3399  0.4537
27852SOL     OW84133   8.821   3.886   8.324 -0.1453 -0.0476 -0.3175
27852SOL    HW184134   8.787   3.975   8.309 -0.3734 -0.1435 -0.3723
27852SOL    HW284135   8.763   3.830   8.274 -0.0832 -0.2415 -0.1712
27853SOL     OW84136   9.140   9.160   1.461  0.3536 -0.3207  0.1286
27853SOL    HW184137   9.190   9.081   1.481  0.8700  0.0317  0.2565
27853SOL    HW284138   9.117   9.196   1.547  0.7855  0.0816  0.0745
27854SOL     OW84139   3.389   9.800   1.702  0.0895  0.5758 -0.2289
27854SOL    HW184140   3.483   9.813   1.698  0.0253  1.1214 -0.0724
27854SOL    HW284141   3.354   9.863   1.638 -0.1653  0.3579 -0.3067
27855SOL     OW84142   7.673   1.796   8.260  0.5513 -0.0330 -0.3526
27855SOL    HW184143   7.685   1.744   8.180  1.3316 -0.6913  0.1836
27855SOL    HW284144   7.593   1.761   8.299 -0.6921  1.2845 -1.5726
27856SOL     OW84145   0.412   5.662   4.145  0.7445  0.1324  0.3275
27856SOL    HW184146   0.390   5.754   4.164  0.9602 -0.0049  1.3149
27856SOL    HW284147   0.484   5.668   4.082  0.3731  0.6293 -0.0657
27857SOL     OW84148   8.861   6.021   2.103 -1.0181  0.3020  0.1506
27857SOL    HW184149   8.954   6.042   2.111 -1.0036  0.1442  0.3996
27857SOL    HW284150   8.855   5.966   2.024 -0.9983  0.8768 -0.2603
27858SOL     OW84151   0.178   8.320   9.277 -0.7324 -0.8924  0.4074
27858SOL    HW184152   0.264   8.336   9.317 -0.3235  0.9548 -1.0305
27858SOL    HW284153   0.120   8.385   9.319 -1.2205 -1.5111  0.7073
27859SOL     OW84154   5.050   9.412   0.971 -0.0178 -0.3850  0.1142
27859SOL    HW184155   5.014   9.499   0.991  0.3953 -0.6307  2.1693
27859SOL    HW284156   5.066   9.414   0.877 -3.4719  0.4405 -0.6058
27860SOL     OW84157   2.179   8.523   1.984  0.2155  0.4858  0.4843
27860SOL    HW184158   2.179   8.438   2.028 -0.7756  0.5008  0.5276
27860SOL    HW284159   2.158   8.586   2.053 -0.7751  0.5707  0.1312
27861SOL     OW84160   7.496   8.969   5.175  0.5009  0.1809 -0.1066
27861SOL    HW184161   7.539   8.929   5.101 -0.6070 -0.0627 -0.6385
27861SOL    HW284162   7.558   8.960   5.247  1.6020  0.4594 -1.0037
27862SOL     OW84163   6.538   2.188   0.505 -0.4993  0.2579 -0.5080
27862SOL    HW184164   6.531   2.143   0.420 -0.7367 -0.2013 -0.2499
27862SOL    HW284165   6.511   2.122   0.569  0.3467  0.3766 -0.0110
27863SOL     OW84166   4.609   7.315   5.951 -0.0916 -0.1972 -0.0808
27863SOL    HW184167   4.597   7.327   5.857  0.6259 -0.4726 -0.2078
27863SOL    HW284168   4.610   7.220   5.963 -0.4061 -0.1611  0.2343
27864SOL     OW84169   7.736   2.688   6.561  0.2814  0.0715 -0.0916
27864SOL    HW184170   7.809   2.629   6.579 -0.0624 -0.3076  0.0751
27864SOL    HW284171   7.707   2.717   6.648  0.7544  0.8737 -0.1869
27865SOL     OW84172   1.310   2.445   2.077  0.1441 -0.7760 -0.1576
27865SOL    HW184173   1.362   2.492   2.011  0.7797  0.0678  0.9183
27865SOL    HW284174   1.295   2.509   2.146 -2.7521 -0.8400 -0.6131
27866SOL     OW84175   0.827   8.155   0.401  0.3652 -0.0447  0.3115
27866SOL    HW184176   0.875   8.234   0.429  0.7040 -0.6508  1.4984
27866SOL    HW284177   0.891   8.085   0.408 -0.3912 -0.6914  0.8243
27867SOL     OW84178   0.556   2.711   6.700 -0.1841  0.1820  0.0046
27867SOL    HW184179   0.530   2.803   6.705 -1.3345  0.0513 -2.1520
27867SOL    HW284180   0.649   2.713   6.678 -0.3295  0.8836 -0.5945
27868SOL     OW84181   5.430   7.947   5.677  0.9177  0.1493  0.4649
27868SOL    HW184182   5.516   7.987   5.666  1.1134 -0.6091 -1.1367
27868SOL    HW284183   5.443   7.876   5.739  1.0970  0.9515  1.3783
27869SOL     OW84184   5.168   9.231   8.157  0.1420 -0.1910 -0.0981
27869SOL    HW184185   5.117   9.306   8.185  0.4552 -0.1146  0.2858
27869SOL    HW284186   5.251   9.239   8.205  1.0271  0.3865 -1.6510
27870SOL     OW84187   6.965   8.931   8.241  0.3093 -0.5808 -0.9155
27870SOL    HW184188   6.911   8.930   8.162 -1.0998 -2.6237 -0.0149
27870SOL    HW284189   7.020   8.853   8.233  2.9236  1.1986 -1.5891
27871SOL     OW84190   0.903   2.406   9.138  0.9469  0.0043  0.5498
27871SOL    HW184191   0.954   2.329   9.164  1.0128  0.0836  0.6566
27871SOL    HW284192   0.939   2.477   9.191 -0.2556 -0.2244  1.7033
27872SOL     OW84193   6.407   7.032   6.314 -0.4683  0.0682 -0.0465
27872SOL    HW184194   6.405   6.939   6.334  0.3393  0.2816  1.1639
27872SOL    HW284195   6.391   7.075   6.398 -2.5823  1.0476 -0.8744
27873SOL     OW84196   5.899   6.829   4.668  0.0651 -0.2792  0.0577
27873SOL    HW184197   5.889   6.777   4.589  0.2294 -0.6539  0.2830
27873SOL    HW284198   5.920   6.917   4.636 -1.7347  0.0271 -0.3657
27874SOL     OW84199   7.747   8.982   6.089 -0.3180  0.1472  0.2654
27874SOL    HW184200   7.712   9.062   6.129  0.6067  0.0238  1.3631
27874SOL    HW284201   7.789   9.012   6.008 -0.1808  0.7554  0.5571
27875SOL     OW84202   8.028   0.587   2.509 -0.2817  0.6271 -0.2337
27875SOL    HW184203   8.095   0.573   2.442 -1.6952  0.2828 -1.6453
27875SOL    HW284204   8.073   0.573   2.592  1.2372 -0.1946 -1.1530
27876SOL     OW84205   9.564   6.961   7.721 -0.1664 -0.4855 -0.4405
27876SOL    HW184206   9.571   7.057   7.720  0.4182 -0.4234  2.4538
27876SOL    HW284207   9.574   6.936   7.629  1.3023  2.1405 -1.1075
27877SOL     OW84208   0.820   6.584   4.144  0.1688  0.6261 -0.0178
27877SOL    HW184209   0.831   6.615   4.054 -0.4552  3.1656  0.6992
27877SOL    HW284210   0.905   6.548   4.168  0.4848  0.3793 -1.4540
27878SOL     OW84211   7.283   3.358   8.392  0.3308  0.1332  0.2748
27878SOL    HW184212   7.215   3.422   8.377  0.8619  0.4739 -0.7525
27878SOL    HW284213   7.362   3.410   8.409  0.7958 -0.2160 -0.7062
27879SOL     OW84214   4.500   6.297   0.749 -0.4131 -0.6810  0.1383
27879SOL    HW184215   4.480   6.235   0.679  1.2075 -1.6153  0.4670
27879SOL    HW284216   4.508   6.243   0.827  1.8038 -0.1970  0.2892
27880SOL     OW84217   1.261   1.449   3.401 -0.6153  0.3064  0.1541
27880SOL    HW184218   1.297   1.465   3.313  1.9059 -1.7281  0.6819
27880SOL    HW284219   1.265   1.354   3.411 -0.5428  0.5016  2.5750
27881SOL     OW84220   1.945   2.259   3.654  0.0253  0.4525  0.3207
27881SOL    HW184221   1.965   2.292   3.567  0.6536  0.9368  0.6383
27881SOL    HW284222   1.913   2.336   3.702 -0.7500  0.0960  0.3911
27882SOL     OW84223   1.023   0.994   8.472 -0.5863 -0.1591  0.1478
27882SOL    HW184224   1.021   1.079   8.427 -1.8377 -0.4229 -0.3222
27882SOL    HW284225   1.034   0.930   8.402 -2.4492 -0.5663  0.1951
27883SOL     OW84226   3.276   0.348   1.935  0.1288  0.8369  0.4494
27883SOL    HW184227   3.341   0.281   1.954 -0.8866 -0.2405  0.2276
27883SOL    HW284228   3.269   0.349   1.839  0.8388  1.9630  0.3929
27884SOL     OW84229   0.366   1.630   2.481 -0.3189 -0.0453  0.3880
27884SOL    HW184230   0.457   1.632   2.509 -0.1488 -0.8419 -0.0730
27884SOL    HW284231   0.333   1.718   2.499  0.1942 -0.0935  1.6689
27885SOL     OW84232   5.935   2.345   7.424 -0.2397  0.4066  0.6060
27885SOL    HW184233   5.978   2.398   7.491 -0.3131 -0.7245  1.5756
27885SOL    HW284234   5.988   2.360   7.345  1.1917  0.0659  1.4531
27886SOL     OW84235   1.893   4.760   1.618 -0.1465 -0.3930  0.7083
27886SOL    HW184236   1.975   4.711   1.609  0.3274  0.5357 -0.4182
27886SOL    HW284237   1.827   4.704   1.579  0.2529 -0.4835  0.1409
27887SOL     OW84238   1.036   3.245   3.676 -0.1722  0.4030  0.0611
27887SOL    HW184239   0.994   3.321   3.716  0.2925  0.7524 -0.1002
27887SOL    HW284240   1.122   3.241   3.718 -0.9461 -1.2930  1.6219
27888SOL     OW84241   3.793   3.362   5.224 -0.4606  0.1158 -0.4558
27888SOL    HW184242   3.840   3.442   5.198 -0.0915  0.1319  0.2328
27888SOL    HW284243   3.853   3.291   5.204  0.3780  0.2138  1.5074
27889SOL     OW84244   4.673   4.143   8.803 -0.0425  0.0885 -0.2979
27889SOL    HW184245   4.649   4.107   8.888 -2.5437 -1.6017 -1.5746
27889SOL    HW284246   4.740   4.084   8.770  0.7984  0.6408  0.3824
27890SOL     OW84247   1.402   3.985   8.852  0.2762  0.5062  0.7134
27890SOL    HW184248   1.463   3.983   8.925  1.5524 -0.9823 -0.3415
27890SOL    HW284249   1.325   3.937   8.884  0.6294  0.2855  1.2419
27891SOL     OW84250   7.774   0.820   6.049  0.1965 -0.1670 -0.1767
27891SOL    HW184251   7.857   0.791   6.088  0.1500  0.3990  0.3550
27891SOL    HW284252   7.790   0.816   5.955  0.9861  0.3491 -0.0789
27892SOL     OW84253   6.935   5.674   9.170  0.7696  0.1785  0.2911
27892SOL    HW184254   6.874   5.602   9.156  1.0106  0.3316 -1.8527
27892SOL    HW284255   7.012   5.632   9.209  0.8615 -0.7426 -0.8107
27893SOL     OW84256   6.557   0.250   4.889 -0.0665 -0.5992  0.1299
27893SOL    HW184257   6.632   0.191   4.885  1.1773  0.9946 -1.0995
27893SOL    HW284258   6.590   0.334   4.858 -2.1681  0.3739  0.3446
27894SOL     OW84259   9.355   6.303   3.264 -0.1933 -0.4286 -0.6738
27894SOL    HW184260   9.445   6.280   3.286 -0.2916 -1.1086 -0.9530
27894SOL    HW284261   9.328   6.236   3.201 -0.8451 -0.1473 -0.7013
27895SOL     OW84262   2.297   3.636   5.925  0.3444  0.0197  0.4580
27895SOL    HW184263   2.351   3.557   5.924  0.2179 -0.0753 -1.1332
27895SOL    HW284264   2.254   3.635   6.011  0.9746 -1.1981  0.7748
27896SOL     OW84265   3.105   8.075   5.981  0.0724 -0.3455  0.2133
27896SOL    HW184266   3.110   8.050   5.889 -0.0362  1.1359 -0.2129
27896SOL    HW284267   3.112   7.992   6.029 -1.0919 -1.2643 -1.1426
27897SOL     OW84268   4.358   0.925   3.157  0.2348 -0.5520 -0.7458
27897SOL    HW184269   4.358   0.895   3.248 -0.7510 -0.0487 -0.5628
27897SOL    HW284270   4.414   1.003   3.157 -0.1193 -0.2921 -0.4644
27898SOL     OW84271   4.843   0.512   1.678  0.3409  0.0856  0.1390
27898SOL    HW184272   4.904   0.529   1.750  1.0371  0.6548 -0.5759
27898SOL    HW284273   4.856   0.419   1.657 -0.2991 -0.2525  1.1204
27899SOL     OW84274   9.732   8.433   0.243 -0.2066  0.7777  0.6978
27899SOL    HW184275   9.750   8.413   0.335  0.8347  3.1429  1.0904
27899SOL    HW284276   9.766   8.358   0.195 -1.8101 -1.0509  2.2562
27900SOL     OW84277   8.776   0.772   0.122  0.6561  0.4657  0.2237
27900SOL    HW184278   8.714   0.789   0.193 -1.0038  1.0495 -1.2898
27900SOL    HW284279   8.847   0.834   0.137  1.7088 -1.2207  2.8387
27901SOL     OW84280   8.307   6.633   7.679  0.7414  0.0274 -0.1456
27901SOL    HW184281   8.236   6.656   7.620 -0.0280 -0.0058  0.7557
27901SOL    HW284282   8.376   6.696   7.659 -0.1090  1.0362  0.0055
27902SOL     OW84283   7.456   7.058   5.499 -0.0376  0.2750  0.2627
27902SOL    HW184284   7.368   7.087   5.523 -0.7220 -0.5581 -1.1367
27902SOL    HW284285   7.466   6.974   5.543  0.8339  1.2164  1.9687
27903SOL     OW84286   9.344   2.740   6.949  0.1397  0.0823  0.4880
27903SOL    HW184287   9.421   2.756   6.893 -0.4159 -1.1126 -0.6830
27903SOL    HW284288   9.377   2.687   7.021  0.1624 -1.8513 -0.8815
27904SOL     OW84289   1.598   6.556   2.267 -0.7881  0.0590  0.1149
27904SOL    HW184290   1.611   6.470   2.308 -0.8282  0.8825  1.9725
27904SOL    HW284291   1.611   6.541   2.174  2.9810 -1.2841  0.6757
27905SOL     OW84292   4.077   9.292   8.707  0.0970  0.2902 -0.8238
27905SOL    HW184293   4.014   9.221   8.716 -0.5394  0.3540 -3.7215
27905SOL    HW284294   4.113   9.304   8.795 -3.9258  0.2721  1.0369
27906SOL     OW84295   4.389   8.443   0.468  0.4428  0.6234 -0.3835
27906SOL    HW184296   4.309   8.395   0.488  1.5788 -1.0537  0.3884
27906SOL    HW284297   4.422   8.473   0.553  2.3553 -1.6734 -0.2095
27907SOL     OW84298   9.573   5.769   8.582  0.2119  0.7465 -0.4341
27907SOL    HW184299   9.570   5.810   8.495 -1.3143 -2.3504 -2.0070
27907SOL    HW284300   9.488   5.789   8.620 -0.0224  0.1577 -0.6475
27908SOL     OW84301   4.187   9.177   1.456  0.9697  0.2216  0.1414
27908SOL    HW184302   4.128   9.141   1.390  0.7599  2.3204 -0.9151
27908SOL    HW284303   4.274   9.145   1.432  0.5278 -1.5357  0.7316
27909SOL     OW84304   7.333   4.228   0.997 -0.4888 -0.4142  0.1980
27909SOL    HW184305   7.240   4.228   0.972 -0.0372  0.0372 -1.6145
27909SOL    HW284306   7.334   4.269   1.084 -1.9443  0.0048  0.0526
27910SOL     OW84307   3.565   5.443   5.869  0.3087 -0.2692  0.2638
27910SOL    HW184308   3.491   5.500   5.890 -0.3421 -0.7213 -0.7283
27910SOL    HW284309   3.616   5.439   5.950 -0.6056  0.2653  0.8838
27911SOL     OW84310   2.677   1.357   3.627 -0.3671  0.4802 -0.7752
27911SOL    HW184311   2.691   1.441   3.670 -2.1008  0.1300  0.6147
27911SOL    HW284312   2.757   1.307   3.645  0.0711  1.3233 -0.3281
27912SOL     OW84313   9.500   6.838   3.417 -0.0185  0.0633  0.3891
27912SOL    HW184314   9.497   6.816   3.510 -1.3090 -1.2883  0.0596
27912SOL    HW284315   9.486   6.755   3.372  0.6993  0.6847 -1.0356
27913SOL     OW84316   1.083   7.394   5.918 -0.2208  0.5409 -0.7811
27913SOL    HW184317   1.081   7.458   5.848 -2.6399  0.9742 -0.4096
27913SOL    HW284318   1.133   7.435   5.988 -1.1937  1.8039 -0.7941
27914SOL     OW84319   5.245   8.830   0.792  0.4170 -0.2381 -0.0243
27914SOL    HW184320   5.210   8.826   0.704  3.3138 -1.8488 -1.2569
27914SOL    HW284321   5.283   8.743   0.807  0.9171  0.3072  2.4027
27915SOL     OW84322   8.230   4.436   0.643 -0.4200  0.5976  0.5799
27915SOL    HW184323   8.160   4.499   0.659 -0.6040  0.2652  1.1353
27915SOL    HW284324   8.185   4.351   0.638 -0.2280  0.5539 -0.6005
27916SOL     OW84325   1.982   8.156   0.785 -0.2371  0.2305  0.4226
27916SOL    HW184326   1.990   8.092   0.857  1.9620  1.2090  1.1361
27916SOL    HW284327   1.923   8.223   0.819  0.0167  0.1933  0.9545
27917SOL     OW84328   1.315   5.551   7.107  0.0494 -0.9585  0.1883
27917SOL    HW184329   1.266   5.509   7.178 -0.3832  0.0256  0.4924
27917SOL    HW284330   1.405   5.552   7.139 -0.1982 -0.1938  0.9012
27918SOL     OW84331   7.505   4.185   2.354  0.1764  0.6241  0.2003
27918SOL    HW184332   7.492   4.099   2.394 -0.5270  0.7477  0.2444
27918SOL    HW284333   7.584   4.175   2.302  2.0008  0.8451  2.7130
27919SOL     OW84334   9.640   5.508   4.540 -0.0260  0.2282 -0.0110
27919SOL    HW184335   9.678   5.496   4.453  2.3331  0.1491  0.9699
27919SOL    HW284336   9.636   5.420   4.577  0.6400  0.4368  0.5886
27920SOL     OW84337   9.008   3.583   1.991 -0.0041 -0.5157 -0.6685
27920SOL    HW184338   8.951   3.650   1.955 -1.6865 -1.2081  0.5570
27920SOL    HW284339   8.954   3.538   2.057  2.0149 -1.1045  0.6849
27921SOL     OW84340   4.682   4.116   8.313  0.0178  0.2273  0.6542
27921SOL    HW184341   4.611   4.077   8.364 -1.2198  1.4645 -0.0770
27921SOL    HW284342   4.749   4.047   8.309 -2.1785 -1.9558 -0.8114
27922SOL     OW84343   2.092   8.674   5.440 -0.3228 -0.3354 -0.0438
27922SOL    HW184344   2.176   8.630   5.449 -0.0713  0.0717 -0.3876
27922SOL    HW284345   2.036   8.610   5.395 -0.6333 -1.1503  1.4180
27923SOL     OW84346   4.734   1.166   2.982  0.3583  0.8245  0.0719
27923SOL    HW184347   4.748   1.071   2.979  0.6289  0.8737 -0.3204
27923SOL    HW284348   4.648   1.176   3.022  1.2564  0.4943  2.2655
27924SOL     OW84349   8.071   9.179   1.569  0.4864  0.6906  0.2322
27924SOL    HW184350   8.165   9.176   1.550  1.0896  0.0899  2.8125
27924SOL    HW284351   8.067   9.208   1.661 -1.8401  0.4601  0.2502
27925SOL     OW84352   3.303   0.962   0.327  0.2460  0.4490  0.8272
27925SOL    HW184353   3.226   0.920   0.289 -2.6603  3.6870  2.5667
27925SOL    HW284354   3.316   1.041   0.273  0.5213  1.3898  2.2149
27926SOL     OW84355   4.763   4.386   2.440  0.4837 -0.5994 -0.0449
27926SOL    HW184356   4.805   4.464   2.404 -0.3145 -0.1013  0.0776
27926SOL    HW284357   4.700   4.359   2.373 -0.8112  0.1671  0.8268
27927SOL     OW84358   1.743   5.381   8.143  0.4007 -0.5369 -0.2621
27927SOL    HW184359   1.719   5.316   8.077  2.1991  1.1614 -2.7460
27927SOL    HW284360   1.816   5.342   8.190  0.3794 -0.9713 -0.5855
27928SOL     OW84361   7.071   1.263   1.805  0.4906 -0.1580  0.0970
27928SOL    HW184362   6.985   1.270   1.847  0.9458  2.6780  0.7640
27928SOL    HW284363   7.093   1.352   1.779  2.1890 -1.1666 -2.3084
27929SOL     OW84364   4.847   0.662   7.647  0.1033  0.3656 -0.1793
27929SOL    HW184365   4.797   0.612   7.582  1.6579  0.4358 -1.4956
27929SOL    HW284366   4.861   0.600   7.719  1.6886 -1.0632 -1.6340
27930SOL     OW84367   3.936   9.349   2.168 -0.2096 -0.0386 -0.5419
27930SOL    HW184368   4.027   9.351   2.195 -0.2393  0.7500 -0.4597
27930SOL    HW284369   3.939   9.337   2.073 -0.0628 -1.2321 -0.4002
27931SOL     OW84370   8.458   3.236   1.042 -0.3670 -0.0978 -0.4210
27931SOL    HW184371   8.445   3.317   1.091  0.0177  0.8304 -1.7907
27931SOL    HW284372   8.435   3.258   0.952 -1.5075 -1.8723 -0.6158
27932SOL     OW84373   8.911   4.127   5.766  0.1161 -0.3507  0.4115
27932SOL    HW184374   8.834   4.144   5.712 -0.6003 -2.0858  0.8139
27932SOL    HW284375   8.960   4.061   5.717  0.4933 -0.4655  0.9336
27933SOL     OW84376   1.736   4.591   3.424 -0.4055 -0.1069 -0.2045
27933SOL    HW184377   1.794   4.545   3.484 -1.3379 -0.4330  0.4798
27933SOL    HW284378   1.648   4.566   3.452 -0.9297  1.5712 -0.2334
27934SOL     OW84379   6.089   6.436   4.125 -0.2543  0.2411  0.1621
27934SOL    HW184380   6.000   6.424   4.159 -0.3396  2.3985  0.8314
27934SOL    HW284381   6.086   6.519   4.078  1.0705 -0.3914 -1.1234
27935SOL     OW84382   9.322   4.564   6.387  0.4901  0.3630 -0.2781
27935SOL    HW184383   9.409   4.544   6.420  0.1476 -0.5504  0.1086
27935SOL    HW284384   9.277   4.604   6.461 -0.1403 -1.2950  0.2954
27936SOL     OW84385   9.001   1.752   6.360 -0.1093 -0.5212 -0.2791
27936SOL    HW184386   8.980   1.702   6.282 -1.1988 -0.5263  0.0013
27936SOL    HW284387   9.053   1.826   6.328 -0.9734 -0.2425 -1.0826
27937SOL     OW84388   4.233   0.117   3.806  0.2819  0.2805  0.7378
27937SOL    HW184389   4.221   0.212   3.808  1.2978  0.4101  1.1513
27937SOL    HW284390   4.304   0.103   3.743 -0.7596 -0.3243 -0.3496
27938SOL     OW84391   6.271   3.534   7.547  0.3656 -0.3006 -0.5498
27938SOL    HW184392   6.219   3.614   7.552  0.9068 -0.0011  0.7745
27938SOL    HW284393   6.245   3.493   7.465 -0.1195  1.1008 -1.1202
27939SOL     OW84394   4.024   6.836   1.863 -0.3655 -0.0159 -0.4054
27939SOL    HW184395   3.974   6.764   1.901  0.1026 -0.4563 -0.6062
27939SOL    HW284396   3.969   6.913   1.875 -1.2421 -0.5464 -0.9379
27940SOL     OW84397   7.334   2.605   4.185 -0.4714  0.2454  0.0618
27940SOL    HW184398   7.383   2.543   4.238 -0.7103 -0.2543 -0.2926
27940SOL    HW284399   7.245   2.601   4.219 -0.6023  0.0016 -0.3117
27941SOL     OW84400   5.384   3.705   7.434 -0.2542 -0.5064  0.1812
27941SOL    HW184401   5.441   3.658   7.495 -1.3850 -0.4128  1.3361
27941SOL    HW284402   5.371   3.644   7.361 -0.1911 -1.2499  0.7818
27942SOL     OW84403   4.502   1.386   3.898 -0.2667 -0.3308  0.8477
27942SOL    HW184404   4.465   1.299   3.914  2.0319 -1.5397  0.1111
27942SOL    HW284405   4.517   1.389   3.804  0.5451  0.4876  0.9886
27943SOL     OW84406   7.887   7.158   8.213  0.7460 -0.0634 -0.0494
27943SOL    HW184407   7.829   7.149   8.289 -0.2606 -2.4987 -1.0109
27943SOL    HW284408   7.972   7.180   8.250  0.6359 -2.6208  1.9784
27944SOL     OW84409   3.080   2.174   5.542 -0.3394 -0.0313  0.1192
27944SOL    HW184410   3.138   2.189   5.467  1.1152  1.8640  1.5233
27944SOL    HW284411   3.113   2.093   5.582  1.4279  1.0204  0.8996
27945SOL     OW84412   3.473   9.884   0.531 -0.2492 -0.0260  0.1348
27945SOL    HW184413   3.464   9.948   0.460 -0.1942 -1.3925 -1.1550
27945SOL    HW284414   3.514   9.808   0.489 -0.9002 -1.1506  1.4721
27946SOL     OW84415   0.660   7.068   0.125 -0.4455  0.5204  0.0191
27946SOL    HW184416   0.647   7.114   0.042  0.0269 -1.3287 -1.1236
27946SOL    HW284417   0.572   7.066   0.164 -1.1018 -0.3809 -1.4269
27947SOL     OW84418   7.925   6.229   8.561 -0.0927  0.0950  0.5179
27947SOL    HW184419   7.862   6.167   8.524  1.8821 -1.2685 -0.7334
27947SOL    HW284420   7.871   6.297   8.601 -2.3409 -1.3350  0.0841
27948SOL     OW84421   5.032   9.756   6.504 -0.0883  0.1702 -0.2490
27948SOL    HW184422   5.013   9.817   6.575 -1.2367  0.0080 -0.4024
27948SOL    HW284423   5.105   9.796   6.457 -0.3049  1.0252  0.1232
27949SOL     OW84424   7.488   5.328   4.708 -0.1116  0.1177 -0.0092
27949SOL    HW184425   7.518   5.417   4.691 -0.9086 -0.0067 -2.6278
27949SOL    HW284426   7.545   5.295   4.777 -0.3200  2.8877  1.6224
27950SOL     OW84427   1.792   9.409   2.982  0.1405  0.2124  0.0736
27950SOL    HW184428   1.849   9.431   3.056  0.8500  1.0117 -0.6834
27950SOL    HW284429   1.844   9.431   2.905 -0.5240 -0.7492 -0.6802
27951SOL     OW84430   2.648   1.006   8.239  0.3855 -0.0108 -0.6788
27951SOL    HW184431   2.612   0.953   8.168  0.6884 -1.3907  0.1571
27951SOL    HW284432   2.726   1.047   8.201 -1.1011  1.7415 -2.0271
27952SOL     OW84433   7.838   9.061   1.660  0.1209  0.0368 -0.1829
27952SOL    HW184434   7.907   9.102   1.608  1.1900  0.5596  1.5461
27952SOL    HW284435   7.884   9.021   1.734 -1.3319 -0.6219  0.4084
27953SOL     OW84436   1.700   4.467   6.874 -0.1293 -0.2018 -0.0530
27953SOL    HW184437   1.778   4.418   6.850 -0.7665 -1.4814  0.3853
27953SOL    HW284438   1.672   4.508   6.792  0.2032 -0.8925 -0.5203
27954SOL     OW84439   7.595   5.604   3.950  0.1882  1.2870 -0.3206
27954SOL    HW184440   7.541   5.655   4.010 -0.3993  0.6841 -0.3311
27954SOL    HW284441   7.656   5.557   4.007 -2.5143 -1.9131  0.1708
27955SOL     OW84442   0.082   5.734   4.082 -0.5619 -0.3705 -0.3300
27955SOL    HW184443   0.136   5.712   4.158  1.3210  0.7748 -1.2465
27955SOL    HW284444   0.021   5.801   4.113  0.1013 -0.0074  0.2126
27956SOL     OW84445   4.827   2.654   3.837 -0.0380  0.1312  0.4028
27956SOL    HW184446   4.802   2.744   3.857 -0.1855  0.2067 -0.1076
27956SOL    HW284447   4.771   2.629   3.764  0.8971  0.0796 -0.3190
27957SOL     OW84448   0.669   2.486   5.608  0.0156 -0.2066  0.4468
27957SOL    HW184449   0.647   2.418   5.672  1.4855 -0.4441  0.7428
27957SOL    HW284450   0.637   2.451   5.525 -0.7432 -0.4924  0.8468
27958SOL     OW84451   4.295   9.071   4.094 -0.5733 -0.0782 -0.7765
27958SOL    HW184452   4.226   9.125   4.132  0.5348  1.0572 -0.2949
27958SOL    HW284453   4.371   9.129   4.089  0.1279 -1.0551 -2.0406
27959SOL     OW84454   1.353   7.042   1.859  0.2215 -0.2525 -0.2956
27959SOL    HW184455   1.291   6.972   1.838  1.1026 -1.1680  0.1007
27959SOL    HW284456   1.419   7.037   1.789 -0.4134  1.0900 -1.0446
27960SOL     OW84457   1.234   7.683   6.696 -0.2058 -0.2072 -0.3377
27960SOL    HW184458   1.141   7.661   6.688  0.1357 -1.5743 -0.7917
27960SOL    HW284459   1.280   7.613   6.650  1.0914  0.0919  0.4363
27961SOL     OW84460   1.545   7.681   6.440 -0.1985 -0.2013 -0.0424
27961SOL    HW184461   1.584   7.706   6.356  0.9242 -2.2950 -0.2008
27961SOL    HW284462   1.617   7.687   6.503 -0.7939  0.4060  0.5981
27962SOL     OW84463   2.037   5.036   2.862  0.7623  0.3787 -0.2836
27962SOL    HW184464   2.120   5.077   2.836  1.2789  0.1004  0.8503
27962SOL    HW284465   2.040   5.034   2.958 -0.2572 -0.2561 -0.2482
27963SOL     OW84466   5.790   0.857   0.587  0.0447 -0.0775  0.0827
27963SOL    HW184467   5.883   0.869   0.567 -0.1103  0.6833 -0.2016
27963SOL    HW284468   5.767   0.933   0.640 -0.7510  0.4671 -1.0121
27964SOL     OW84469   0.776   9.280   3.995 -0.1534  0.3177 -0.3579
27964SOL    HW184470   0.831   9.206   3.967 -2.4845 -1.5328 -0.3390
27964SOL    HW284471   0.705   9.282   3.931 -1.1100  1.4008  0.7004
27965SOL     OW84472   1.883   5.559   1.244  0.1731 -0.0578 -0.9095
27965SOL    HW184473   1.888   5.643   1.290  1.5137  0.1844 -1.4432
27965SOL    HW284474   1.807   5.516   1.282 -0.4158  1.3037 -0.4654
27966SOL     OW84475   8.057   5.472   1.619 -0.4114 -0.2568  0.4443
27966SOL    HW184476   8.139   5.494   1.663 -2.2389  0.2903  3.9796
27966SOL    HW284477   8.006   5.554   1.621 -0.5457 -0.0429 -3.3479
27967SOL     OW84478   5.054   2.933   1.208  0.4573 -0.3028  0.2900
27967SOL    HW184479   5.037   2.971   1.294  1.1417  1.9058 -0.4820
27967SOL    HW284480   5.146   2.952   1.191  0.0663  0.2808 -1.3632
27968SOL     OW84481   6.079   0.922   8.888 -0.0339  0.1218 -0.0434
27968SOL    HW184482   5.983   0.921   8.878  0.0233 -0.9727 -0.6025
27968SOL    HW284483   6.104   1.011   8.863 -0.9529  0.5966  0.6487
27969SOL     OW84484   5.395   1.168   8.317  0.3856 -0.3902  0.2121
27969SOL    HW184485   5.350   1.083   8.320 -1.4232  0.5081  0.1489
27969SOL    HW284486   5.461   1.158   8.249  3.1013 -3.0130  2.8544
27970SOL     OW84487   9.795   8.167   0.151  0.0603  0.3330 -0.2690
27970SOL    HW184488   9.763   8.093   0.101  0.3398 -0.7858  1.1400
27970SOL    HW284489   9.888   8.173   0.129 -0.0427  0.5202 -0.6684
27971SOL     OW84490   2.175   5.642   6.698  0.3526 -0.3393  0.2313
27971SOL    HW184491   2.217   5.612   6.779  1.0891  1.1171  0.4282
27971SOL    HW284492   2.082   5.649   6.719  0.3769 -1.0803  0.5937
27972SOL     OW84493   2.253   9.280   2.535  0.0377  0.2046  0.6377
27972SOL    HW184494   2.266   9.366   2.575  0.0846 -0.2591  1.6620
27972SOL    HW284495   2.158   9.269   2.531 -0.0020  0.8478 -0.7441
27973SOL     OW84496   4.112   6.546   9.056  0.0109 -0.5721  0.1437
27973SOL    HW184497   4.195   6.516   9.093  0.8625 -0.1754 -1.3708
27973SOL    HW284498   4.058   6.467   9.051  1.0109 -1.2266 -0.6662
27974SOL     OW84499   7.540   9.669   7.384 -0.0335 -0.7921  0.2672
27974SOL    HW184500   7.608   9.625   7.435  0.3704 -2.2776 -1.4508
27974SOL    HW284501   7.465   9.610   7.388 -0.2933 -0.4954 -0.1168
27975SOL     OW84502   2.097   7.098   5.042  0.8772 -0.8522 -0.1541
27975SOL    HW184503   2.166   7.039   5.014  2.3419  0.5697  0.3095
27975SOL    HW284504   2.061   7.057   5.121  1.9133 -1.0931  0.2008
27976SOL     OW84505   0.132   1.980   8.935  0.3549  0.6122  0.2586
27976SOL    HW184506   0.046   2.023   8.941 -0.7544 -1.1145 -1.7472
27976SOL    HW284507   0.140   1.932   9.017 -0.5412  0.8930  0.5266
27977SOL     OW84508   0.759   7.258   4.617 -0.1618  0.2117  0.5013
27977SOL    HW184509   0.801   7.247   4.532  1.9205 -2.2772  1.6961
27977SOL    HW284510   0.767   7.351   4.636 -0.1091  0.7018 -1.7266
27978SOL     OW84511   1.406   3.908   7.609  0.5043  0.1230 -0.3317
27978SOL    HW184512   1.385   3.815   7.623  0.0792 -0.1280 -2.3475
27978SOL    HW284513   1.331   3.942   7.561  2.2674  0.5366 -2.9629
27979SOL     OW84514   2.861   0.042   6.646 -0.2278 -0.7865  0.0169
27979SOL    HW184515   2.953   0.054   6.671  0.1537 -1.0146 -1.2158
27979SOL    HW284516   2.850   0.094   6.567 -1.6269  0.5584  1.0501
27980SOL     OW84517   8.662   5.465   8.225  0.1508 -0.3836 -0.2404
27980SOL    HW184518   8.646   5.492   8.315 -1.0623  1.6074 -0.9948
27980SOL    HW284519   8.607   5.387   8.213  0.9712 -1.1799  0.9477
27981SOL     OW84520   0.036   5.671   1.110  0.0155  0.6463 -0.4583
27981SOL    HW184521   0.092   5.735   1.065  0.3910 -1.1943 -2.8730
27981SOL    HW284522   0.093   5.595   1.121 -0.4497  0.5904  2.2447
27982SOL     OW84523   3.864   2.326   6.237 -0.1116 -0.3514 -1.0670
27982SOL    HW184524   3.851   2.382   6.161  2.3717  1.0686 -0.5654
27982SOL    HW284525   3.954   2.344   6.265  0.3191 -3.5489  0.0206
27983SOL     OW84526   8.224   5.293   9.108  0.3345 -0.2353 -0.7360
27983SOL    HW184527   8.247   5.284   9.015  1.5539 -2.4619 -0.3047
27983SOL    HW284528   8.294   5.347   9.145 -0.1490  0.6482 -1.0950
27984SOL     OW84529   8.725   0.448   2.891 -0.0871  0.3111  0.1022
27984SOL    HW184530   8.726   0.487   2.978 -0.2856  0.5508  0.0001
27984SOL    HW284531   8.682   0.514   2.836 -0.9912 -0.3032  0.0491
27985SOL     OW84532   9.136   4.903   7.981  0.7294  0.5638  0.1736
27985SOL    HW184533   9.131   4.904   8.076 -1.0708  0.1168  0.1174
27985SOL    HW284534   9.080   4.975   7.953 -2.5459 -2.0463 -0.5737
27986SOL     OW84535   7.546   3.051   5.576  0.3725 -0.5877  0.5530
27986SOL    HW184536   7.498   3.051   5.494  0.1757 -0.0137  0.6656
27986SOL    HW284537   7.489   3.095   5.638  0.3165 -1.4403  1.1259
27987SOL     OW84538   6.736   6.898   4.199  0.5905 -0.1631 -0.5169
27987SOL    HW184539   6.683   6.862   4.271  0.5509 -2.0234 -1.4281
27987SOL    HW284540   6.727   6.835   4.128  0.5862  1.6560 -2.2252
27988SOL     OW84541   6.476   5.766   9.523  0.6669  0.4292  0.1076
27988SOL    HW184542   6.384   5.775   9.496  0.3933 -1.8642  0.0674
27988SOL    HW284543   6.525   5.775   9.441  0.2197 -1.3872 -0.3929
27989SOL     OW84544   5.754   9.940   8.602 -0.6237 -0.3436 -0.2959
27989SOL    HW184545   5.764   9.972   8.692  0.9504 -0.9800 -0.2104
27989SOL    HW284546   5.800   9.856   8.602 -0.7205 -0.4139 -1.6744
27990SOL     OW84547   1.849   5.503   0.347  0.3098  0.3684 -0.1119
27990SOL    HW184548   1.801   5.445   0.407 -0.3220  0.8366 -0.1540
27990SOL    HW284549   1.858   5.585   0.395  3.1839 -0.3754  0.8593
27991SOL     OW84550   1.007   9.900   8.649 -0.3420  0.1203  0.1986
27991SOL    HW184551   1.015   9.958   8.724 -0.1536  1.4267 -0.8006
27991SOL    HW284552   1.044   9.817   8.678  1.7515  1.2261  0.8725
27992SOL     OW84553   3.947   5.921   4.531 -0.5886 -0.1797 -0.4414
27992SOL    HW184554   3.906   5.963   4.606 -1.5671 -0.9503 -0.5192
27992SOL    HW284555   4.001   5.989   4.491  2.0650 -0.4165  2.4215
27993SOL     OW84556   8.072   8.732   9.921  0.1799  0.1926  0.4563
27993SOL    HW184557   8.087   8.643   9.953  0.0247  0.0951  0.2600
27993SOL    HW284558   8.144   8.749   9.861  0.1950  0.1923  0.4740
27994SOL     OW84559   6.694   0.324   3.203 -0.0179  0.1646  0.1901
27994SOL    HW184560   6.626   0.258   3.191  1.8774 -1.5190 -2.6715
27994SOL    HW284561   6.748   0.292   3.275 -0.4903 -0.0930  0.4308
27995SOL     OW84562   0.129   1.221   5.637  0.5467  0.7141 -0.3923
27995SOL    HW184563   0.186   1.194   5.564 -0.7455 -0.1580 -1.1173
27995SOL    HW284564   0.127   1.145   5.695  2.0480  1.6102  0.9240
27996SOL     OW84565   2.484   2.751   1.967  0.1742 -0.2406  0.0031
27996SOL    HW184566   2.456   2.830   1.920 -1.0462  1.0329  2.6989
27996SOL    HW284567   2.575   2.769   1.992  0.8090 -0.8967 -1.6772
27997SOL     OW84568   9.278   1.897   3.337  0.3609  0.1449 -0.7592
27997SOL    HW184569   9.305   1.986   3.314 -0.2276  0.3706 -0.5830
27997SOL    HW284570   9.293   1.892   3.432 -2.2969  1.0440 -0.2099
27998SOL     OW84571   7.284   0.450   5.190 -0.3236 -0.3265 -0.0242
27998SOL    HW184572   7.268   0.377   5.131 -1.1359 -1.8364  1.9607
27998SOL    HW284573   7.366   0.428   5.235 -0.4326  0.1119  0.4046
27999SOL     OW84574   7.974   1.272   0.038  0.0186 -0.4818 -0.3796
27999SOL    HW184575   8.028   1.248  -0.038  1.3607 -0.1724  0.4300
27999SOL    HW284576   8.038   1.296   0.105 -1.1491 -0.4158  0.7404
28000SOL     OW84577   2.955   7.993   7.449  0.0541  0.4553 -0.3706
28000SOL    HW184578   2.953   8.036   7.535  2.0408 -0.0827  0.0031
28000SOL    HW284579   2.963   8.066   7.387  0.2213  0.7790  0.0208
28001SOL     OW84580   8.342   6.842   6.201 -0.2266  0.5219  0.2514
28001SOL    HW184581   8.389   6.808   6.125 -1.4152  0.6489 -0.5601
28001SOL    HW284582   8.318   6.931   6.177 -2.4294 -0.0988 -0.1141
28002SOL     OW84583   9.678   2.864   4.775 -0.5175 -0.0674  0.5260
28002SOL    HW184584   9.751   2.870   4.836  0.3935  4.3843 -0.6259
28002SOL    HW284585   9.601   2.885   4.827 -0.2404  0.3518  0.7693
28003SOL     OW84586   6.906   4.507   3.154 -0.4501  0.1886 -0.5092
28003SOL    HW184587   6.820   4.526   3.117  0.4124  2.3038 -1.5931
28003SOL    HW284588   6.886   4.457   3.234 -2.7903  1.9106  0.1190
28004SOL     OW84589   0.948   1.999   8.622  0.4569 -0.5373 -0.0162
28004SOL    HW184590   0.947   2.079   8.570  0.9960  0.5441  1.5709
28004SOL    HW284591   0.951   2.029   8.713 -0.4682 -2.3563  0.6701
28005SOL     OW84592   6.134   1.877   5.359 -0.7970  0.3266 -0.0630
28005SOL    HW184593   6.143   1.824   5.280 -3.0160  0.0652 -0.1946
28005SOL    HW284594   6.140   1.967   5.328 -1.8558  0.2295 -0.5919
28006SOL     OW84595   5.482   0.855   6.893  0.7232 -0.0597  0.4768
28006SOL    HW184596   5.556   0.912   6.916  2.0793 -1.3864 -0.3755
28006SOL    HW284597   5.405   0.899   6.929  1.8649  1.6280  0.9690
28007SOL     OW84598   2.921   0.786   4.356  0.3044 -0.5044  0.2619
28007SOL    HW184599   3.015   0.771   4.363  0.5256  0.8448  0.5553
28007SOL    HW284600   2.898   0.828   4.439 -0.0192  1.6033 -0.8134
28008SOL     OW84601   8.132   3.752   0.433 -0.5949 -0.8742  0.2636
28008SOL    HW184602   8.222   3.781   0.450 -0.6909 -0.7562  0.5869
28008SOL    HW284603   8.090   3.757   0.519 -0.9188 -0.8957  0.1044
28009SOL     OW84604   9.676   8.876   6.623  0.6657 -0.4237 -0.2457
28009SOL    HW184605   9.659   8.956   6.573  0.6987  0.0516  0.4928
28009SOL    HW284606   9.772   8.870   6.627  0.6628 -0.4830 -0.2680
28010SOL     OW84607   1.228   6.304   1.444  0.1786  0.0384  0.4979
28010SOL    HW184608   1.218   6.375   1.508  0.7711  0.2121  0.4044
28010SOL    HW284609   1.154   6.246   1.461  0.1693  0.2309  1.1562
28011SOL     OW84610   2.336   2.214   6.713  0.5671 -0.6067 -0.5322
28011SOL    HW184611   2.247   2.231   6.682  0.2172  2.2911  1.6705
28011SOL    HW284612   2.392   2.262   6.652  0.2113  1.2920  0.5579
28012SOL     OW84613   6.992   8.691   3.499 -0.5181 -0.0095  0.1492
28012SOL    HW184614   7.013   8.598   3.486 -1.2969 -0.4059  1.5103
28012SOL    HW284615   7.002   8.730   3.413  1.2699 -1.0541 -0.1693
28013SOL     OW84616   9.315   8.652   0.432  0.1086  0.2189 -0.0609
28013SOL    HW184617   9.294   8.568   0.472 -1.3781 -0.3329 -1.8869
28013SOL    HW284618   9.241   8.709   0.454 -0.0836  0.2996 -0.8996
28014SOL     OW84619   1.272   4.608   3.059  0.2828 -0.0291  0.4198
28014SOL    HW184620   1.280   4.547   2.987 -0.5877  0.3663 -0.0258
28014SOL    HW284621   1.342   4.672   3.044  0.8256 -0.5779  0.5691
28015SOL     OW84622   0.365   1.570   5.509 -0.7035 -0.2600  0.3876
28015SOL    HW184623   0.347   1.542   5.420 -0.0908  0.1629  0.1246
28015SOL    HW284624   0.413   1.497   5.549 -1.4610 -0.6781  0.5551
28016SOL     OW84625   6.053   0.769   1.208 -0.1707 -0.1342  0.0370
28016SOL    HW184626   6.128   0.712   1.187  1.5905  1.0670  2.6120
28016SOL    HW284627   5.997   0.715   1.263 -0.2527 -0.4289 -0.3265
28017SOL     OW84628   6.540   4.154   7.573 -0.2520  0.3414  0.4733
28017SOL    HW184629   6.575   4.200   7.649  0.4438 -0.0002  0.3644
28017SOL    HW284630   6.540   4.062   7.599 -4.7003  0.5066  2.0024
28018SOL     OW84631   8.871   1.550   2.187  0.1288  0.1663  0.4706
28018SOL    HW184632   8.874   1.519   2.097  0.6231  1.3359  0.0797
28018SOL    HW284633   8.797   1.502   2.226  0.2377 -0.7260 -0.3966
28019SOL     OW84634   4.035   7.473   7.974 -0.0764  0.8923  0.3617
28019SOL    HW184635   3.985   7.538   8.023  1.8397  2.3037  0.6147
28019SOL    HW284636   4.124   7.481   8.008  0.3253 -1.6452  0.1069
28020SOL     OW84637   9.420   6.594   3.891  0.6639 -0.1696 -0.1534
28020SOL    HW184638   9.335   6.571   3.928  0.9402 -2.0073 -0.5727
28020SOL    HW284639   9.420   6.554   3.805  2.3117 -1.0496  0.2145
28021SOL     OW84640   1.484   3.131   2.039 -0.2156 -0.4730  0.3386
28021SOL    HW184641   1.579   3.139   2.042 -0.2721  1.1985 -0.8384
28021SOL    HW284642   1.456   3.130   2.130  0.8734 -0.0313  0.6832
28022SOL     OW84643   2.381   1.719   4.264 -0.3017 -0.4639  0.1004
28022SOL    HW184644   2.382   1.768   4.346 -0.8974 -1.1504  0.5303
28022SOL    HW284645   2.398   1.784   4.197  2.2626 -0.1915  0.8933
28023SOL     OW84646   9.719   0.172   1.445  0.1778 -0.1837 -0.3787
28023SOL    HW184647   9.723   0.136   1.534  0.4067  0.0733 -0.2854
28023SOL    HW284648   9.669   0.107   1.396 -0.5743  0.0093  0.1056
28024SOL     OW84649   8.009   8.638   6.013  0.4134  0.9273  1.1755
28024SOL    HW184650   7.971   8.672   5.932 -0.7326 -1.1341  0.7797
28024SOL    HW284651   7.988   8.705   6.079  0.1615  1.9942  0.0508
28025SOL     OW84652   3.136   7.176   5.171  0.2517  0.0333  0.3638
28025SOL    HW184653   3.099   7.258   5.138  0.9706 -0.3668 -1.5598
28025SOL    HW284654   3.215   7.203   5.219  0.4694  0.4766 -0.2358
28026SOL     OW84655   9.368   1.002   9.905 -0.2477  0.3287 -0.5059
28026SOL    HW184656   9.413   0.990   9.822 -0.8492  0.8968 -0.9211
28026SOL    HW284657   9.298   0.936   9.905 -1.1805  1.2760 -1.1252
28027SOL     OW84658   2.438   0.924   2.481  0.2733  0.0526  0.2135
28027SOL    HW184659   2.442   0.900   2.389 -0.6537  0.8913 -0.0545
28027SOL    HW284660   2.526   0.953   2.503  0.5144 -0.2338 -0.3786
28028SOL     OW84661   9.080   1.277   7.046  0.3714 -0.3218  0.3108
28028SOL    HW184662   9.014   1.254   6.982  1.9606  1.1303 -1.9930
28028SOL    HW284663   9.118   1.193   7.072 -0.7614 -0.9845 -0.1055
28029SOL     OW84664   4.028   6.984   1.196 -0.2013 -0.2079 -0.2631
28029SOL    HW184665   4.074   6.993   1.279  1.2008 -0.0696 -1.0232
28029SOL    HW284666   3.937   6.968   1.220  0.5543 -2.6193  1.3456
28030SOL     OW84667   8.806   2.286   7.368  0.0812  0.4911  0.1222
28030SOL    HW184668   8.832   2.294   7.460 -1.2490  1.6776  0.4408
28030SOL    HW284669   8.711   2.297   7.370  0.1383  1.5978 -1.4963
28031SOL     OW84670   2.335   2.225   5.420  0.4519 -0.0665 -0.0962
28031SOL    HW184671   2.382   2.142   5.411  0.4218 -0.0187 -0.7917
28031SOL    HW284672   2.335   2.243   5.514  0.1292 -1.0429  0.1106
28032SOL     OW84673   2.532   9.390   2.802 -0.2587 -0.2402  0.1270
28032SOL    HW184674   2.607   9.332   2.790  0.4023  0.3854  1.1695
28032SOL    HW284675   2.563   9.476   2.777 -0.7955 -0.0702  0.0343
28033SOL     OW84676   9.053   1.127   4.398 -0.6487  0.3854 -0.1629
28033SOL    HW184677   9.009   1.043   4.409  0.1712 -0.1622 -0.8933
28033SOL    HW284678   9.070   1.133   4.304  0.7496  0.6034  0.0780
28034SOL     OW84679   8.076   2.289   6.620  0.2591  0.0269  0.1447
28034SOL    HW184680   8.141   2.262   6.555 -1.8377  1.7946 -2.9329
28034SOL    HW284681   7.993   2.259   6.586 -1.0747  2.0152  1.3974
28035SOL     OW84682   9.859   5.746   4.348 -0.2611 -0.4910  0.0477
28035SOL    HW184683   9.817   5.823   4.309 -0.9977 -0.9749 -0.1503
28035SOL    HW284684   9.858   5.764   4.442  2.3517  1.0911 -0.1474
28036SOL     OW84685   0.393   1.812   9.680  0.4639 -0.2969  0.2294
28036SOL    HW184686   0.459   1.872   9.646  1.7839 -1.3062  0.8984
28036SOL    HW284687   0.417   1.727   9.644 -1.3750 -0.4554 -0.7107
28037SOL     OW84688   8.837   9.376   0.641 -0.7377  0.2356  0.2932
28037SOL    HW184689   8.822   9.468   0.660  1.4500  1.0681 -1.6199
28037SOL    HW284690   8.931   9.364   0.655 -0.1674 -0.6110 -3.3843
28038SOL     OW84691   9.790   6.042   9.707 -0.3387  0.6345  0.0101
28038SOL    HW184692   9.766   6.134   9.720  0.4073  0.8770 -0.3029
28038SOL    HW284693   9.800   6.007   9.796  0.8527  1.2519  0.1308
28039SOL     OW84694   9.078   2.786   7.494  0.1196  0.3224 -0.7055
28039SOL    HW184695   9.023   2.710   7.512 -1.1353  1.0988 -1.2090
28039SOL    HW284696   9.038   2.829   7.419  0.6692  1.6184 -0.2919
28040SOL     OW84697   3.407   4.689   8.852  0.0916 -0.1137 -0.1897
28040SOL    HW184698   3.386   4.783   8.859  0.5396 -0.0491  0.3010
28040SOL    HW284699   3.325   4.645   8.875 -0.6586  0.1429 -2.1222
28041SOL     OW84700   6.602   1.889   7.659 -0.4092 -0.3817  0.1571
28041SOL    HW184701   6.587   1.951   7.588 -2.2547 -1.0032 -0.0357
28041SOL    HW284702   6.530   1.826   7.653  0.6651 -1.7909  1.1681
28042SOL     OW84703   2.006   0.660   5.134  0.3259  0.4134 -0.5216
28042SOL    HW184704   1.923   0.625   5.101  0.0847 -0.2764  0.7520
28042SOL    HW284705   2.016   0.744   5.089 -1.7193  1.1307  0.2127
28043SOL     OW84706   2.409   2.318   8.491  0.5174 -0.3286 -0.4050
28043SOL    HW184707   2.348   2.296   8.420  0.2154 -0.0723 -0.2281
28043SOL    HW284708   2.445   2.403   8.465 -1.2075  0.8400  0.7708
28044SOL     OW84709   0.109   5.937   4.979  0.0069  0.0480  0.3100
28044SOL    HW184710   0.149   5.915   5.063  0.0343  1.3062  0.6401
28044SOL    HW284711   0.175   5.913   4.914  0.7049  0.7226  0.7616
28045SOL     OW84712   8.707   9.810   3.666 -0.2461  0.2913 -0.0520
28045SOL    HW184713   8.698   9.777   3.756 -1.2304 -1.6682 -0.8012
28045SOL    HW284714   8.773   9.752   3.627 -0.2717  0.7370 -0.7675
28046SOL     OW84715   3.610   4.657   8.097 -0.1430 -0.0815 -0.1520
28046SOL    HW184716   3.616   4.570   8.057 -1.7469 -1.4388  2.3178
28046SOL    HW284717   3.517   4.678   8.095  0.1525  1.2969 -0.0943
28047SOL     OW84718   6.917   4.003   6.352  0.9032  0.8596  0.1126
28047SOL    HW184719   6.861   3.954   6.413 -0.9827  1.2313 -1.2172
28047SOL    HW284720   6.962   4.067   6.407  0.8667 -0.1836  1.3930
28048SOL     OW84721   5.742   9.212   3.619  0.1397  0.2875  0.3266
28048SOL    HW184722   5.719   9.192   3.528  0.9427  1.3479 -0.1247
28048SOL    HW284723   5.836   9.199   3.624  0.2987  1.4545  0.6636
28049SOL     OW84724   9.070   2.916   8.819 -0.1610  0.0411  0.0624
28049SOL    HW184725   8.999   2.979   8.810  0.1617  0.9430  2.9312
28049SOL    HW284726   9.087   2.886   8.729 -1.9636  2.1732 -1.0849
28050SOL     OW84727   3.389   4.307   9.965 -0.0291  0.0755  0.4360
28050SOL    HW184728   3.370   4.401   9.975 -1.6294  0.0976 -1.8732
28050SOL    HW284729   3.472   4.305   9.916 -1.5129  0.4748 -2.2847
28051SOL     OW84730   4.830   7.684   0.127 -0.0040 -0.0931  0.1170
28051SOL    HW184731   4.853   7.708   0.217  1.6225  0.3564 -0.3840
28051SOL    HW284732   4.900   7.720   0.074 -0.3933 -1.2425 -1.2456
28052SOL     OW84733   7.305   3.109   1.031  0.5145 -0.5905 -0.5618
28052SOL    HW184734   7.248   3.124   0.956  3.1260 -1.2985 -2.8497
28052SOL    HW284735   7.327   3.016   1.027  0.2305 -0.8038  1.5314
28053SOL     OW84736   4.296   6.958   9.856 -0.3305 -0.0643  0.5664
28053SOL    HW184737   4.243   7.002   9.922 -1.2383 -0.4856  0.1359
28053SOL    HW284738   4.240   6.887   9.824  0.8208 -1.0466  0.6968
28054SOL     OW84739   1.651   8.214   0.131  0.1854 -0.0700 -0.2038
28054SOL    HW184740   1.675   8.123   0.110  0.8594  0.2073 -0.6736
28054SOL    HW284741   1.563   8.207   0.169 -0.4099 -0.7629 -1.6345
28055SOL     OW84742   9.653   3.267   1.460  0.6190 -0.1958 -0.2575
28055SOL    HW184743   9.615   3.290   1.545  0.4710  1.5288 -0.7650
28055SOL    HW284744   9.590   3.300   1.396  1.3596 -0.3120 -1.0650
28056SOL     OW84745   8.866   6.361   6.899  0.4221  0.6291 -0.0761
28056SOL    HW184746   8.910   6.373   6.814  1.4656 -0.6161  0.2492
28056SOL    HW284747   8.923   6.405   6.962  0.3606  0.3835  0.1527
28057SOL     OW84748   6.963   9.567   4.387 -0.0370  0.5076 -0.4077
28057SOL    HW184749   7.056   9.587   4.385 -0.1200  0.8897 -0.6258
28057SOL    HW284750   6.953   9.503   4.458  0.6503 -0.9502 -1.5815
28058SOL     OW84751   4.754   8.501   1.735 -0.0755 -0.7092  0.2935
28058SOL    HW184752   4.747   8.477   1.643 -2.1829 -2.1948  0.7555
28058SOL    HW284753   4.782   8.420   1.779 -0.0517 -0.3029  1.0538
28059SOL     OW84754   3.217   2.557   5.074 -0.4984  0.6379  0.1835
28059SOL    HW184755   3.169   2.638   5.091 -0.7391  0.2082  1.6798
28059SOL    HW284756   3.162   2.488   5.111  0.0032 -0.1613 -0.5044
28060SOL     OW84757   3.017   6.968   9.105 -0.0796  0.1319 -0.5652
28060SOL    HW184758   3.088   7.018   9.065 -0.5513 -0.1507 -1.8130
28060SOL    HW284759   2.944   7.030   9.110  0.0847  0.2620  0.1764
28061SOL     OW84760   4.988   1.581   2.463  0.2880 -0.0826  0.3597
28061SOL    HW184761   4.939   1.646   2.412  0.8276 -0.3604 -0.5386
28061SOL    HW284762   4.920   1.531   2.509 -0.3458 -0.8386 -1.3130
28062SOL     OW84763   5.099   8.203   0.710 -0.0817  0.3952 -0.0253
28062SOL    HW184764   5.190   8.196   0.738 -0.2083  1.2282  0.6274
28062SOL    HW284765   5.048   8.168   0.783 -0.3671  1.6685  0.4079
28063SOL     OW84766   5.603   0.838   5.328  0.3839 -0.3108  0.4241
28063SOL    HW184767   5.552   0.762   5.359 -2.2066  1.3064  0.4699
28063SOL    HW284768   5.638   0.878   5.407  1.9346 -1.5017  0.3854
28064SOL     OW84769   8.003   2.447   0.402  0.3947  0.2700  0.3946
28064SOL    HW184770   8.000   2.524   0.460 -0.9051  1.4415 -1.1272
28064SOL    HW284771   7.941   2.385   0.442  1.4495 -0.0406  1.6331
28065SOL     OW84772   5.587   5.512   9.343 -0.3699 -0.1925 -0.1107
28065SOL    HW184773   5.507   5.465   9.321  0.3810 -1.8213  0.4812
28065SOL    HW284774   5.610   5.482   9.431  0.6110  0.6407 -0.0622
28066SOL     OW84775   4.522   4.121   5.316 -0.0292 -0.1827  0.2718
28066SOL    HW184776   4.576   4.073   5.379 -1.3830  0.4341  2.0120
28066SOL    HW284777   4.472   4.053   5.271  0.3495 -0.5924  0.4620
28067SOL     OW84778   8.920   5.337   4.857  0.1418 -0.0788  0.3588
28067SOL    HW184779   8.968   5.388   4.923 -0.8141  0.6207  0.5562
28067SOL    HW284780   8.953   5.369   4.773 -0.1273  0.5582  0.4883
28068SOL     OW84781   7.088   8.316   4.725 -0.0509  0.1419 -0.3597
28068SOL    HW184782   7.055   8.320   4.815  1.4889  0.0111  0.2343
28068SOL    HW284783   7.075   8.404   4.691 -0.2809  0.3003  0.1256
28069SOL     OW84784   4.635   7.625   1.223 -0.2884 -0.2482  0.8062
28069SOL    HW184785   4.718   7.580   1.241  0.8075  0.6972 -1.4891
28069SOL    HW284786   4.619   7.677   1.302  0.0069 -2.2396  2.2625
28070SOL     OW84787   4.598   4.385   9.111 -0.6408  0.3345 -0.9112
28070SOL    HW184788   4.680   4.406   9.155 -0.0390 -1.6768 -0.9427
28070SOL    HW284789   4.614   4.403   9.019 -0.1326 -0.2847 -0.9486
28071SOL     OW84790   1.476   6.183   6.377 -0.2533 -0.5093 -0.3784
28071SOL    HW184791   1.391   6.176   6.421  0.2454  0.2542  0.7575
28071SOL    HW284792   1.510   6.269   6.403  0.3932 -0.3319 -1.7028
28072SOL     OW84793   6.843   5.299   3.015 -0.1083 -0.0292 -0.0564
28072SOL    HW184794   6.916   5.238   3.000  1.3504  1.8421 -1.0646
28072SOL    HW284795   6.863   5.338   3.100  0.5774  1.0830 -0.7010
28073SOL     OW84796   2.567   3.410   8.660 -0.3877  0.1139 -0.0583
28073SOL    HW184797   2.481   3.385   8.694  0.7085 -2.0753  1.3108
28073SOL    HW284798   2.581   3.352   8.586 -0.1557  0.6176 -0.4174
28074SOL     OW84799   4.498   5.806   2.388 -0.3467  0.5756  0.4744
28074SOL    HW184800   4.434   5.773   2.324  0.0371  0.7393 -0.0052
28074SOL    HW284801   4.570   5.838   2.334 -0.4819  1.7135  0.9401
28075SOL     OW84802   0.585   1.255   4.280  0.1483  0.1270 -0.2692
28075SOL    HW184803   0.511   1.292   4.328  0.4092  0.4514 -0.1167
28075SOL    HW284804   0.646   1.327   4.270 -0.3127  0.3464 -1.9500
28076SOL     OW84805   8.746   8.470   2.247  0.1465  0.0837  0.4979
28076SOL    HW184806   8.798   8.540   2.208 -2.0568  1.9458  0.6881
28076SOL    HW284807   8.750   8.399   2.183  1.2420  0.9103 -0.4033
28077SOL     OW84808   9.438   7.783   4.606  0.0430  0.0296 -0.3254
28077SOL    HW184809   9.515   7.758   4.658 -0.8829 -1.0745  0.5536
28077SOL    HW284810   9.446   7.878   4.597  1.3280 -0.0185  0.0319
28078SOL     OW84811   4.123   7.726   2.393  0.2683 -0.3640  0.3112
28078SOL    HW184812   4.070   7.651   2.422 -0.2521 -0.1083  0.0401
28078SOL    HW284813   4.147   7.705   2.303 -0.3810  0.0588  0.0328
28079SOL     OW84814   5.556   7.137   7.283 -0.8254 -0.0004  0.0156
28079SOL    HW184815   5.577   7.203   7.218  2.1201  0.0772  0.9033
28079SOL    HW284816   5.568   7.180   7.367 -0.9384 -1.0974  0.6209
28080SOL     OW84817   0.362   7.798   6.704  0.4439  0.2478 -0.1898
28080SOL    HW184818   0.420   7.721   6.707  1.7842  1.2505  0.7295
28080SOL    HW284819   0.414   7.866   6.664 -0.2538  1.0685  0.2661
28081SOL     OW84820   5.753   6.118   0.961  0.2310  0.0525  0.3738
28081SOL    HW184821   5.817   6.187   0.946  1.5415 -1.0407  0.6856
28081SOL    HW284822   5.794   6.063   1.028 -0.4373 -1.4296 -0.3982
28082SOL     OW84823   6.490   6.906   7.549  0.5329  0.1101 -0.3937
28082SOL    HW184824   6.512   6.813   7.550 -0.0875 -0.0497 -1.2283
28082SOL    HW284825   6.575   6.950   7.540  0.6741 -0.4622 -2.3941
28083SOL     OW84826   5.793   1.090   0.737  0.0381 -0.3613 -0.0655
28083SOL    HW184827   5.814   1.048   0.820  0.6610 -0.1197 -0.0983
28083SOL    HW284828   5.878   1.107   0.696 -0.2518 -0.1915 -0.6072
28084SOL     OW84829   8.829   3.981   6.699  0.1407  0.1295 -0.4651
28084SOL    HW184830   8.839   4.040   6.624 -3.0567 -1.9624 -2.7816
28084SOL    HW284831   8.742   3.999   6.733 -0.2552 -2.0019 -0.1875
28085SOL     OW84832   5.353   3.460   4.914  0.3658  0.0372 -0.1309
28085SOL    HW184833   5.313   3.469   4.828  0.1162  1.7141  0.1245
28085SOL    HW284834   5.339   3.544   4.956  4.0487  0.7421  0.0425
28086SOL     OW84835   0.208   4.501   4.924 -0.0179 -0.4494  0.0887
28086SOL    HW184836   0.301   4.515   4.942 -0.2903  0.5082  0.8773
28086SOL    HW284837   0.181   4.578   4.874 -0.1828 -1.1833 -0.9793
28087SOL     OW84838   8.554   9.926   0.288  0.3238  0.5549  0.0449
28087SOL    HW184839   8.562   9.858   0.221 -1.2731  1.7520 -1.4233
28087SOL    HW284840   8.592   9.886   0.367  2.3506 -0.8624 -1.5486
28088SOL     OW84841   1.889   6.964   0.756 -0.6372 -0.4674 -0.6431
28088SOL    HW184842   1.930   7.051   0.764 -1.5060 -0.1658  1.2972
28088SOL    HW284843   1.960   6.903   0.773 -0.4257 -0.0370  0.1049
28089SOL     OW84844   4.653   5.305   8.428 -0.1448  0.6514  0.1460
28089SOL    HW184845   4.589   5.318   8.358 -0.9975  3.3582  1.3172
28089SOL    HW284846   4.621   5.229   8.476 -1.5792  0.9993 -0.2264
28090SOL     OW84847   7.954   3.677   7.062 -0.2956 -0.4989  0.2835
28090SOL    HW184848   7.963   3.771   7.046  0.4588 -0.4691  0.8045
28090SOL    HW284849   7.875   3.652   7.014 -0.7135  0.4649  0.4404
28091SOL     OW84850   4.321   8.868   4.992  0.1750  0.4766  0.2101
28091SOL    HW184851   4.393   8.903   5.044  0.7626  0.2888 -0.4491
28091SOL    HW284852   4.345   8.890   4.901 -1.3964  1.8704  0.0836
28092SOL     OW84853   4.137   3.800   9.834  0.1947  0.5052  0.6224
28092SOL    HW184854   4.074   3.746   9.786 -0.5637 -0.3660  2.4669
28092SOL    HW284855   4.222   3.778   9.795 -0.2032 -1.3658  0.6803
28093SOL     OW84856   6.576   9.001   8.226 -0.1407  0.0826  0.5918
28093SOL    HW184857   6.511   9.067   8.202 -0.0389  0.1020  0.3610
28093SOL    HW284858   6.634   8.996   8.150 -0.6167 -0.8392  0.2697
28094SOL     OW84859   8.118   6.329   9.790  0.6330  0.1808  0.2799
28094SOL    HW184860   8.190   6.360   9.734  0.5975  0.5485  0.4334
28094SOL    HW284861   8.039   6.340   9.736  0.4280  1.8140  0.8657
28095SOL     OW84862   2.711   9.138   5.171  0.2381 -0.8952 -0.4797
28095SOL    HW184863   2.751   9.070   5.225  2.1824  0.2096 -0.4339
28095SOL    HW284864   2.622   9.148   5.205  0.0604 -3.0812 -0.2194
28096SOL     OW84865   8.360   9.290   4.749  0.0663  0.0181 -0.0677
28096SOL    HW184866   8.290   9.237   4.789  0.6890 -0.3609  0.5318
28096SOL    HW284867   8.342   9.379   4.778 -1.5217  0.3441 -1.8084
28097SOL     OW84868   8.052   1.207   8.708  0.0190 -0.3422 -0.2570
28097SOL    HW184869   8.145   1.231   8.703 -0.0449 -0.1368 -0.4444
28097SOL    HW284870   8.039   1.181   8.799  0.2317 -0.2567 -0.2021
28098SOL     OW84871   8.098   2.318   5.096 -0.4834  0.3823 -0.3232
28098SOL    HW184872   8.120   2.331   5.004  0.4927 -0.5121 -0.2461
28098SOL    HW284873   8.128   2.229   5.115 -1.9063  0.0476  0.5142
28099SOL     OW84874   9.361   4.444   6.007  0.5463 -0.1755 -0.3218
28099SOL    HW184875   9.359   4.530   6.050  1.6558  0.0299 -0.6528
28099SOL    HW284876   9.372   4.382   6.079  4.3229  0.2771 -0.2947
28100SOL     OW84877   0.535   5.658   0.213 -0.4074 -0.0156  0.2737
28100SOL    HW184878   0.592   5.697   0.279 -2.1134  1.5184  0.9187
28100SOL    HW284879   0.595   5.627   0.145  1.2424  0.6540  1.3649
28101SOL     OW84880   1.849   9.092   1.085  0.1863 -0.0002 -0.1164
28101SOL    HW184881   1.873   9.032   1.155  0.8822 -2.3282 -2.2057
28101SOL    HW284882   1.925   9.149   1.075  0.3639 -0.1164  0.5257
28102SOL     OW84883   1.360   5.382   9.084 -0.0580 -0.1310 -0.5817
28102SOL    HW184884   1.268   5.410   9.087 -0.2035 -0.6394 -0.0248
28102SOL    HW284885   1.369   5.339   8.999 -0.7435 -1.3797 -0.0599
28103SOL     OW84886   5.287   8.048   5.482  0.4211  0.4827  0.0578
28103SOL    HW184887   5.336   8.015   5.557  0.2234 -0.0315 -0.0347
28103SOL    HW284888   5.201   8.005   5.489  0.5154  0.1716 -0.6499
28104SOL     OW84889   1.564   1.963   0.589  0.6389 -0.2593  0.1730
28104SOL    HW184890   1.579   2.017   0.666 -1.3848 -0.4789  0.7537
28104SOL    HW284891   1.589   2.020   0.516  2.7583 -0.1138  0.9438
28105SOL     OW84892   2.837   3.210   7.266 -0.6805  0.0387  0.1631
28105SOL    HW184893   2.835   3.137   7.327 -0.8562 -0.0017  0.1110
28105SOL    HW284894   2.836   3.169   7.179  0.4621  0.0665  0.1186
28106SOL     OW84895   6.967   0.260   0.959  0.2624 -0.0418  0.4914
28106SOL    HW184896   6.984   0.188   0.898  0.6085  1.4492 -1.2594
28106SOL    HW284897   6.916   0.323   0.909  1.1604  1.5765  1.5041
28107SOL     OW84898   9.098   3.564   6.448  0.0052 -0.3311 -0.1991
28107SOL    HW184899   9.011   3.526   6.452 -1.4165  2.6076 -0.6329
28107SOL    HW284900   9.118   3.571   6.355  1.7492 -2.9125 -0.1389
28108SOL     OW84901   9.565   6.963   2.134  0.2155  0.4875 -0.6017
28108SOL    HW184902   9.480   6.998   2.104 -0.0490  0.1124 -0.2992
28108SOL    HW284903   9.629   7.001   2.074 -0.3603 -0.7186 -2.0457
28109SOL     OW84904   0.864   4.155   8.275  0.1355  0.0470  0.3981
28109SOL    HW184905   0.797   4.122   8.335  0.7151  1.2847  1.7967
28109SOL    HW284906   0.854   4.250   8.279 -0.7686  0.1625 -2.6582
28110SOL     OW84907   6.969   6.157   5.318  0.3542 -0.1637 -0.0959
28110SOL    HW184908   6.947   6.249   5.301 -1.8819 -0.7662 -0.7616
28110SOL    HW284909   7.042   6.139   5.258  2.8967  1.8866  2.1143
28111SOL     OW84910   6.352   4.159   1.595 -0.2664  0.0619 -0.2259
28111SOL    HW184911   6.423   4.143   1.656  0.3448  0.4926 -0.8078
28111SOL    HW284912   6.338   4.254   1.599  1.1125  0.4238 -2.1421
28112SOL     OW84913   0.428   6.374   3.303 -0.2536 -0.0838  0.9148
28112SOL    HW184914   0.373   6.426   3.244 -1.4849  0.2729  2.3136
28112SOL    HW284915   0.514   6.415   3.298 -0.7840  1.0500  0.7163
28113SOL     OW84916   3.689   0.600   1.819  0.5738 -0.3075 -0.9053
28113SOL    HW184917   3.706   0.508   1.800  1.2303 -0.3954 -0.0121
28113SOL    HW284918   3.597   0.613   1.800  0.1620 -1.4831  0.1287
28114SOL     OW84919   2.148   6.408   8.124 -0.3208  0.0765  0.2712
28114SOL    HW184920   2.190   6.379   8.205 -3.6722  0.2732  2.2776
28114SOL    HW284921   2.192   6.358   8.055  2.9991  0.2390  2.0805
28115SOL     OW84922   2.403   3.114   4.799 -0.3346 -0.1688 -0.1952
28115SOL    HW184923   2.328   3.058   4.820  1.6024 -2.4118  1.3269
28115SOL    HW284924   2.478   3.054   4.798  2.0172  2.4194  2.1542
28116SOL     OW84925   4.666   0.210   0.724 -0.1702  0.1195 -0.3185
28116SOL    HW184926   4.698   0.138   0.778 -1.6350  0.1773  0.6970
28116SOL    HW284927   4.572   0.193   0.714 -0.5112  1.7343 -0.2402
28117SOL     OW84928   3.000   8.568   7.724 -0.3349  0.3055 -0.0540
28117SOL    HW184929   3.078   8.560   7.779 -1.0973  0.4304  1.0916
28117SOL    HW284930   2.940   8.501   7.759 -1.2262  1.0847 -0.0487
28118SOL     OW84931   9.001   8.896   5.569 -0.0877 -0.0013  0.0834
28118SOL    HW184932   8.925   8.847   5.600 -0.0671 -0.5414 -0.6887
28118SOL    HW284933   9.060   8.829   5.534 -0.5228  0.6195 -1.9801
28119SOL     OW84934   4.506   3.586   9.056 -0.1847  0.7106 -0.2968
28119SOL    HW184935   4.478   3.630   9.136  0.1666  1.0957 -0.3851
28119SOL    HW284936   4.474   3.642   8.985 -1.9288 -0.4595 -0.4874
28120SOL     OW84937   1.834   7.932   8.522  0.2556 -0.5626 -0.2229
28120SOL    HW184938   1.903   7.934   8.588  1.2310 -0.7669 -1.1973
28120SOL    HW284939   1.844   8.015   8.474  1.0511 -1.3892 -1.5500
28121SOL     OW84940   7.610   5.793   7.479 -0.4192  0.1071 -0.2273
28121SOL    HW184941   7.611   5.698   7.475 -0.5439  0.1533 -1.9467
28121SOL    HW284942   7.646   5.814   7.566 -0.3166 -1.4865  0.1360
28122SOL     OW84943   3.582   9.021   9.403 -0.4571  0.2799 -0.3551
28122SOL    HW184944   3.667   9.055   9.429  0.1037  0.5930 -2.4365
28122SOL    HW284945   3.540   9.094   9.356 -0.7996 -0.6664 -1.5790
28123SOL     OW84946   0.457   2.993   6.663 -0.2860 -0.1742  0.2407
28123SOL    HW184947   0.529   2.999   6.600  0.2189  2.5514  0.9249
28123SOL    HW284948   0.378   2.990   6.610  0.1476  1.6849 -0.5770
28124SOL     OW84949   4.155   0.830   8.885 -0.5300 -0.5159 -0.3018
28124SOL    HW184950   4.135   0.755   8.829  0.6177 -0.2856 -1.0597
28124SOL    HW284951   4.227   0.875   8.840  0.1589 -0.0957  1.1511
28125SOL     OW84952   6.339   0.274   2.962 -0.8619 -0.3247 -0.5485
28125SOL    HW184953   6.403   0.230   3.019 -2.0308 -0.6370  0.5612
28125SOL    HW284954   6.349   0.230   2.877  0.1912 -0.5602 -0.3215
28126SOL     OW84955   6.358   6.948   9.112 -0.2529 -0.1402  0.5364
28126SOL    HW184956   6.377   7.031   9.068  0.7154 -0.5087  0.2153
28126SOL    HW284957   6.278   6.917   9.070  0.2499 -0.1301 -0.4819
28127SOL     OW84958   9.136   0.015   0.424 -0.2909  0.1255  0.3898
28127SOL    HW184959   9.224   0.018   0.461  0.5706 -2.4728 -1.1438
28127SOL    HW284960   9.145   0.059   0.339 -0.6324  0.5135  0.5603
28128SOL     OW84961   5.519   9.209   1.247 -0.7307  0.2944  0.2130
28128SOL    HW184962   5.480   9.255   1.172  0.8083  1.2071 -0.0933
28128SOL    HW284963   5.573   9.141   1.207 -1.8651 -0.8686  0.6186
28129SOL     OW84964   6.447   5.525   9.645  0.2058  0.0103  0.3439
28129SOL    HW184965   6.441   5.608   9.597 -0.3072 -0.6958 -0.8729
28129SOL    HW284966   6.498   5.468   9.588  1.0329 -0.3539  1.4251
28130SOL     OW84967   7.322   8.947   6.702  0.3879 -0.6702  0.1967
28130SOL    HW184968   7.389   8.982   6.761  0.7368 -0.4303 -0.3319
28130SOL    HW284969   7.243   8.997   6.722  0.3179 -1.0691  0.9385
28131SOL     OW84970   3.221   4.777   0.475 -0.3108  0.1511 -0.0732
28131SOL    HW184971   3.212   4.768   0.380 -2.8149 -0.2265  0.1364
28131SOL    HW284972   3.254   4.691   0.504 -0.6785 -0.1367 -0.4886
28132SOL     OW84973   7.935   1.485   3.374 -0.2724  0.4072  0.0372
28132SOL    HW184974   7.894   1.403   3.402 -0.6065  0.2029 -1.0154
28132SOL    HW284975   7.865   1.549   3.378 -0.2823  0.4103 -0.1655
28133SOL     OW84976   8.276   5.502   0.228 -0.4136 -0.2535  0.0757
28133SOL    HW184977   8.300   5.545   0.146  1.5623  1.5586  1.4993
28133SOL    HW284978   8.355   5.452   0.252  0.0400  1.3274  2.1089
28134SOL     OW84979   7.885   7.410   4.929  0.2167  0.2480 -0.3811
28134SOL    HW184980   7.790   7.402   4.926  0.2407 -0.6688  0.7140
28134SOL    HW284981   7.903   7.458   5.010  0.6231  2.0103 -1.4704
28135SOL     OW84982   0.415   2.907   7.355  0.0948 -0.1226  0.9364
28135SOL    HW184983   0.374   2.846   7.417 -1.3136  1.7636  1.9541
28135SOL    HW284984   0.509   2.903   7.377 -0.2273 -0.3813  2.3951
28136SOL     OW84985   8.731   6.746   2.178  0.2234 -0.5242  0.4571
28136SOL    HW184986   8.638   6.724   2.170  0.1262 -0.0443  0.2159
28136SOL    HW284987   8.753   6.789   2.096  0.8296 -1.1997  0.2485
28137SOL     OW84988   5.847   6.369   4.222 -0.4957 -0.2247  0.5443
28137SOL    HW184989   5.809   6.291   4.263 -1.6861 -0.1952 -0.4573
28137SOL    HW284990   5.773   6.415   4.184  0.2323  1.2522  0.8421
28138SOL     OW84991   9.325   4.818   7.642  0.3683 -0.1632 -0.1570
28138SOL    HW184992   9.400   4.817   7.582 -0.0208  1.0087 -0.6868
28138SOL    HW284993   9.336   4.898   7.693  0.4867 -0.9459  1.1121
28139SOL     OW84994   6.487   2.815   8.233  0.1212 -0.4611  0.6899
28139SOL    HW184995   6.575   2.851   8.232  0.0689 -0.3154  1.2462
28139SOL    HW284996   6.468   2.795   8.141 -0.2244  1.8145  0.2186
28140SOL     OW84997   0.084   3.249   1.651  0.1210  0.2330 -0.6800
28140SOL    HW184998   0.031   3.270   1.574  1.9600  0.4147 -1.9607
28140SOL    HW284999   0.066   3.157   1.669  0.1895 -0.0075 -1.7852
28141SOL     OW85000   3.423   1.209   4.542  0.2669 -0.3110 -0.2856
28141SOL    HW185001   3.398   1.118   4.561 -0.0023 -0.1915 -0.0506
28141SOL    HW285002   3.381   1.260   4.612  1.8484 -0.1802  0.6191
28142SOL     OW85003   2.234   9.851   9.247  0.3015 -0.2909 -0.3124
28142SOL    HW185004   2.242   9.846   9.152 -1.8417 -0.1803 -0.5336
28142SOL    HW285005   2.277   9.772   9.279  1.4404 -0.1146 -1.3073
28143SOL     OW85006   1.708   6.892   8.952  0.4101  0.0215  0.0633
28143SOL    HW185007   1.618   6.911   8.979  0.4809  1.6826 -0.7325
28143SOL    HW285008   1.726   6.805   8.987 -2.5111 -1.6953 -2.2635
28144SOL     OW85009   1.791   2.571   2.761  0.0146  0.4808 -0.3874
28144SOL    HW185010   1.764   2.530   2.678 -0.1550  0.0964 -0.1451
28144SOL    HW285011   1.825   2.656   2.735  0.5010  0.1328 -0.9128
28145SOL     OW85012   1.936   8.063   5.480  0.0431 -0.2133  0.2883
28145SOL    HW185013   1.958   8.003   5.408  0.5318  0.2309  0.0661
28145SOL    HW285014   1.997   8.039   5.550  0.2950  0.0830  0.1691
28146SOL     OW85015   7.511   6.772   6.332  0.4042 -0.6369  0.1154
28146SOL    HW185016   7.476   6.844   6.385  1.3933 -0.5544  0.6785
28146SOL    HW285017   7.440   6.707   6.330 -1.1513  1.0062 -1.7914
28147SOL     OW85018   5.305   5.011   6.090  0.0322  0.1367 -0.2598
28147SOL    HW185019   5.396   5.040   6.097  0.8841 -2.5440  2.3406
28147SOL    HW285020   5.256   5.074   6.143  0.1027  2.0719 -2.3230
28148SOL     OW85021   3.401   1.019   2.579  0.3723  0.5014  0.2448
28148SOL    HW185022   3.338   0.947   2.580  0.7016  0.1921 -0.3714
28148SOL    HW285023   3.467   0.992   2.516  2.4623 -0.2993  2.6091
28149SOL     OW85024   2.597   6.526   8.301  0.7361 -0.1470 -0.0512
28149SOL    HW185025   2.566   6.435   8.294  3.7223 -1.2719 -0.3287
28149SOL    HW285026   2.530   6.578   8.258 -0.4127 -2.4044 -1.1710
28150SOL     OW85027   9.191   1.986   6.321  0.5032  0.2150  0.0386
28150SOL    HW185028   9.232   1.911   6.278  2.3597 -0.5028  2.7350
28150SOL    HW285029   9.248   2.004   6.396 -2.5260  1.1675  2.3380
28151SOL     OW85030   5.278   2.019   9.493  0.0226 -0.0194 -0.4060
28151SOL    HW185031   5.256   1.930   9.468 -0.7616 -0.5128  1.8502
28151SOL    HW285032   5.372   2.026   9.479 -0.1473 -0.6490 -2.0964
28152SOL     OW85033   2.927   4.670   2.721  0.7969 -0.0857  0.0374
28152SOL    HW185034   2.946   4.762   2.738  1.5589 -0.0820 -0.7361
28152SOL    HW285035   2.956   4.625   2.801  1.5405  0.2322 -0.0390
28153SOL     OW85036   0.128   2.642   0.561  0.4243  0.0505  0.4026
28153SOL    HW185037   0.134   2.547   0.560 -1.0250 -0.0765  1.2181
28153SOL    HW285038   0.194   2.670   0.624 -0.5123 -0.5687  1.6989
28154SOL     OW85039   9.051   5.434   9.242  0.1389 -0.4779  0.3590
28154SOL    HW185040   8.982   5.387   9.195  0.3949 -0.6525  0.1549
28154SOL    HW285041   9.118   5.450   9.175  0.4608 -0.6346  0.6425
28155SOL     OW85042   2.303   2.142   0.538  0.1586  0.2720  0.2496
28155SOL    HW185043   2.282   2.132   0.445  0.4136 -1.7365  0.3667
28155SOL    HW285044   2.398   2.155   0.540  0.2414 -0.3246  0.2598
28156SOL     OW85045   2.782   9.836   5.189 -0.1418  0.1331 -0.1605
28156SOL    HW185046   2.867   9.824   5.146 -0.3502  0.1040 -0.5700
28156SOL    HW285047   2.729   9.881   5.124  0.0933  1.7643  0.7273
28157SOL     OW85048   6.985   2.982   0.189  0.2770 -0.5607  0.2233
28157SOL    HW185049   6.955   2.954   0.102  1.0425  0.0624 -0.2556
28157SOL    HW285050   6.907   3.016   0.232  0.2221  0.8094 -0.9041
28158SOL     OW85051   6.780   8.458   5.714 -0.1302  0.1910  0.2251
28158SOL    HW185052   6.826   8.376   5.729  0.0147  0.3120  0.4421
28158SOL    HW285053   6.701   8.451   5.767  1.0065  1.1625  2.1358
28159SOL     OW85054   2.613   9.548   3.581  0.0933 -0.1928 -0.0612
28159SOL    HW185055   2.588   9.516   3.494  1.0870 -0.0400 -0.4219
28159SOL    HW285056   2.543   9.519   3.639 -0.4902 -0.4613 -0.8856
28160SOL     OW85057   9.418   4.665   0.944 -0.0803  0.2233  0.1509
28160SOL    HW185058   9.437   4.750   0.905  1.0883 -0.2385 -0.3406
28160SOL    HW285059   9.499   4.615   0.934 -0.5481 -0.7470  0.9750
28161SOL     OW85060   9.146   2.975   0.840  0.0134 -0.0786  0.1461
28161SOL    HW185061   9.075   3.028   0.875 -0.2781 -0.2621 -0.1572
28161SOL    HW285062   9.172   3.020   0.759  0.3889  0.1076  0.3700
28162SOL     OW85063   9.668   8.383   8.429 -0.0040 -0.1951  0.0580
28162SOL    HW185064   9.715   8.463   8.405 -0.8293  0.6543  1.1367
28162SOL    HW285065   9.736   8.318   8.443  0.7836  0.6985  0.4895
28163SOL     OW85066   4.663   8.084   3.194  0.0752  0.3682 -0.0118
28163SOL    HW185067   4.709   8.045   3.120 -1.0497 -0.2524 -0.4012
28163SOL    HW285068   4.683   8.027   3.268 -0.3398 -0.1021 -0.2569
28164SOL     OW85069   9.166   0.159   0.205 -0.3700  0.0572 -0.2357
28164SOL    HW185070   9.130   0.153   0.116  1.2219 -0.2832 -0.8746
28164SOL    HW285071   9.221   0.237   0.203  0.7212 -0.6867  0.0461
28165SOL     OW85072   0.485   5.951   0.851 -0.2049  0.7038 -0.6423
28165SOL    HW185073   0.499   6.042   0.878 -3.3186  1.3342 -0.7733
28165SOL    HW285074   0.494   5.953   0.756  0.5266  0.6813 -0.5797
28166SOL     OW85075   3.017   1.337   5.198 -0.3584 -0.2200  0.2123
28166SOL    HW185076   3.012   1.292   5.282 -0.4628 -1.0919 -0.2471
28166SOL    HW285077   3.104   1.313   5.164 -0.9552 -1.2328 -0.6583
28167SOL     OW85078   4.637   0.097   4.746  0.3043 -0.0811  0.1375
28167SOL    HW185079   4.588   0.044   4.809  0.9105 -1.7377 -0.7094
28167SOL    HW285080   4.635   0.046   4.665  0.1294  1.6631 -1.0108
28168SOL     OW85081   2.188   7.434   5.814 -0.3935  0.3409  0.3075
28168SOL    HW185082   2.252   7.421   5.744 -1.0843  0.0061 -0.2765
28168SOL    HW285083   2.173   7.347   5.850  2.9948  0.8907  3.7144
28169SOL     OW85084   4.935   8.810   4.966 -0.1982 -0.7814 -0.2440
28169SOL    HW185085   4.919   8.725   5.008  1.7769 -0.1518  1.9985
28169SOL    HW285086   4.895   8.873   5.025 -0.2156 -0.0395 -1.0331
28170SOL     OW85087   5.671   8.283   8.077 -0.1514 -0.0807  0.3469
28170SOL    HW185088   5.681   8.188   8.087 -3.1578 -0.3660  1.8660
28170SOL    HW285089   5.581   8.294   8.047  1.3034  2.2217 -4.0215
28171SOL     OW85090   1.083   1.702   7.865  0.4051  0.0945 -0.3464
28171SOL    HW185091   1.156   1.743   7.817 -0.7427 -0.7522 -3.0281
28171SOL    HW285092   1.099   1.608   7.857  0.3274 -0.0892  1.3094
28172SOL     OW85093   2.653   7.258   5.420 -0.4626  0.1385 -0.1886
28172SOL    HW185094   2.601   7.187   5.382 -1.0889  1.4327 -1.8902
28172SOL    HW285095   2.737   7.252   5.375  0.7500 -1.5066  2.0529
28173SOL     OW85096   2.322   1.793   5.560  0.3020  0.4547  0.2157
28173SOL    HW185097   2.305   1.751   5.476 -1.4045  0.6150  0.4439
28173SOL    HW285098   2.239   1.786   5.608  0.8617  1.4674  1.3989
28174SOL     OW85099   2.215   6.824   6.397 -0.1046  0.3066  0.1808
28174SOL    HW185100   2.281   6.772   6.445  1.1610  0.1857 -1.6141
28174SOL    HW285101   2.151   6.759   6.369  0.7816 -0.1278 -0.9153
28175SOL     OW85102   7.603   2.036   9.027  0.1613  0.4190  0.5010
28175SOL    HW185103   7.579   1.950   8.990  0.3000  0.5645  0.0636
28175SOL    HW285104   7.549   2.044   9.105 -1.8668  1.0914 -0.8909
28176SOL     OW85105   8.526   0.338   7.450  0.1408 -1.0402  0.0681
28176SOL    HW185106   8.572   0.281   7.389 -0.1283 -1.3729  0.1739
28176SOL    HW285107   8.570   0.323   7.534  3.0092  2.1346 -0.6522
28177SOL     OW85108   9.991   4.559   3.249  0.3808  0.2268 -0.0666
28177SOL    HW185109  10.040   4.635   3.282  1.3768 -0.1004 -0.7278
28177SOL    HW285110   9.900   4.586   3.254  0.6495  1.0592  0.7299
28178SOL     OW85111   3.351   1.399   6.461 -0.2080 -0.6311 -0.0331
28178SOL    HW185112   3.394   1.359   6.536  0.0693  0.4961  0.4228
28178SOL    HW285113   3.335   1.490   6.487 -2.2745 -0.8250 -0.4293
28179SOL     OW85114   1.676   3.632   5.272  0.0870 -0.5509 -0.2056
28179SOL    HW185115   1.670   3.726   5.291 -0.0457 -0.5900 -0.0510
28179SOL    HW285116   1.727   3.597   5.345  1.2586 -0.3963 -0.9273
28180SOL     OW85117   8.154   3.853   4.481 -0.8799  0.3967  0.1723
28180SOL    HW185118   8.116   3.769   4.505  0.6232 -0.6316 -0.8753
28180SOL    HW285119   8.132   3.864   4.388  1.5422 -0.4207 -0.5821
28181SOL     OW85120   0.017   7.434   5.279 -0.0437  0.3915  0.4588
28181SOL    HW185121  -0.074   7.458   5.295 -0.7744 -1.7353 -0.2436
28181SOL    HW285122   0.064   7.466   5.356 -1.6445  0.1322  1.5829
28182SOL     OW85123   3.922   2.867  -0.030 -0.0903  0.0272 -0.4175
28182SOL    HW185124   3.942   2.957  -0.005 -0.9111  0.2297 -0.4612
28182SOL    HW285125   3.910   2.821   0.054 -4.5224  1.0786 -0.2240
28183SOL     OW85126   3.029   4.046   9.188 -0.2968  0.1702  0.2432
28183SOL    HW185127   2.956   4.107   9.191 -0.3027  0.3284 -1.8895
28183SOL    HW285128   3.098   4.092   9.142  0.3848 -0.7523  0.3049
28184SOL     OW85129   9.088   1.401   2.272 -0.0337 -0.2958 -0.1312
28184SOL    HW185130   9.016   1.453   2.237  0.3361 -0.5950 -1.3847
28184SOL    HW285131   9.085   1.417   2.366 -1.4640  0.0311 -0.2053
28185SOL     OW85132   3.107   7.891   6.433  0.2765 -0.4219  0.0152
28185SOL    HW185133   3.150   7.847   6.507 -1.1235  0.1036  1.1841
28185SOL    HW285134   3.122   7.984   6.448  1.1101 -0.3443 -1.1221
28186SOL     OW85135   7.395   5.426   9.647  0.5090 -0.0906 -0.5042
28186SOL    HW185136   7.348   5.463   9.572  0.4509 -0.0719 -0.4590
28186SOL    HW285137   7.466   5.487   9.663  0.2707  0.1327 -0.2775
28187SOL     OW85138   6.898   2.273   9.843  0.6124 -0.1255 -0.0537
28187SOL    HW185139   6.929   2.337   9.779 -0.8873  1.4570  0.7284
28187SOL    HW285140   6.868   2.326   9.917 -2.7068 -1.5680 -0.2356
28188SOL     OW85141   3.353   2.806   3.749  0.5656  0.6354 -0.1187
28188SOL    HW185142   3.281   2.841   3.698  1.2127  2.7926  0.3390
28188SOL    HW285143   3.317   2.728   3.791 -1.3918  1.4730 -0.1452
28189SOL     OW85144   7.964   0.598   7.928  0.1510  0.0152 -0.2597
28189SOL    HW185145   7.971   0.681   7.880 -0.2104 -0.4346 -1.0925
28189SOL    HW285146   7.907   0.543   7.875 -1.5456  0.0358  1.4311
28190SOL     OW85147   1.565   4.532   4.843 -0.1031  0.0730  0.0828
28190SOL    HW185148   1.530   4.614   4.808 -2.0535 -0.4545  0.6765
28190SOL    HW285149   1.543   4.467   4.777  0.3982 -0.1621  0.1453
28191SOL     OW85150   5.011   7.207   3.579  0.2407 -0.2532 -0.4913
28191SOL    HW185151   5.039   7.285   3.531  0.2979  1.1679  1.6819
28191SOL    HW285152   5.087   7.150   3.579  0.9784  0.7024 -0.2270
28192SOL     OW85153   4.144   0.295   5.125 -0.3759  0.4985 -0.0548
28192SOL    HW185154   4.145   0.385   5.092  2.1001  1.7998  3.0448
28192SOL    HW285155   4.053   0.280   5.152 -1.0807  1.5746 -1.6455
28193SOL     OW85156   9.639   6.267   4.557  0.2707  0.5489 -0.8265
28193SOL    HW185157   9.647   6.236   4.467 -0.9157  1.8561 -1.4296
28193SOL    HW285158   9.727   6.300   4.579  0.2781  1.3497 -1.9664
28194SOL     OW85159   5.481   0.502   2.790 -0.0126 -0.1384 -0.2541
28194SOL    HW185160   5.468   0.493   2.695 -2.2765  1.8907 -0.2419
28194SOL    HW285161   5.475   0.413   2.824 -0.7043 -0.7615 -1.8746
28195SOL     OW85162   9.763   2.832   5.346 -0.4038  0.8070 -0.1520
28195SOL    HW185163   9.768   2.755   5.403 -1.5083  0.3742 -0.6213
28195SOL    HW285164   9.688   2.882   5.379  0.0569  1.4991 -0.1072
28196SOL     OW85165   9.099   7.180   0.486  0.8195  0.3983 -0.5215
28196SOL    HW185166   9.024   7.122   0.474  0.8165  0.7173 -2.4114
28196SOL    HW285167   9.100   7.199   0.580 -1.0008 -0.2224 -0.3310
28197SOL     OW85168   5.411   9.292   8.327  0.2978  0.1017  0.2099
28197SOL    HW185169   5.478   9.338   8.378  0.1314  0.7373 -0.1200
28197SOL    HW285170   5.457   9.263   8.248  0.7116 -1.4644  1.0036
28198SOL     OW85171   1.848   7.797   3.422  0.2035 -0.0285 -0.2921
28198SOL    HW185172   1.934   7.793   3.379  1.3116  0.3083  1.7533
28198SOL    HW285173   1.833   7.891   3.437  0.2420 -0.1807  0.7626
28199SOL     OW85174   1.074   7.885   8.857 -0.0466  0.6231  0.3244
28199SOL    HW185175   1.053   7.870   8.765 -0.6864 -0.2144  0.5903
28199SOL    HW285176   1.138   7.956   8.856  0.6678 -0.0092 -0.8235
28200SOL     OW85177   2.545   9.662   9.040 -0.2253  0.0689 -0.2239
28200SOL    HW185178   2.533   9.615   9.122 -0.8632  0.4427 -0.0985
28200SOL    HW285179   2.616   9.724   9.058  0.8155 -1.0147 -0.4725
28201SOL     OW85180   7.702   1.725   5.389  0.9692 -0.0186  0.5292
28201SOL    HW185181   7.662   1.719   5.302 -3.8954 -0.7920  2.5088
28201SOL    HW285182   7.726   1.817   5.398  0.7483  0.2568 -1.2825
28202SOL     OW85183   5.795   1.514   3.858  0.2548 -0.2575 -0.3707
28202SOL    HW185184   5.819   1.421   3.856 -0.3359 -0.4451  0.5342
28202SOL    HW285185   5.706   1.515   3.895  0.0683  0.6367 -0.8121
28203SOL     OW85186   7.540   4.643   1.944  0.3843  0.0021 -0.5197
28203SOL    HW185187   7.521   4.716   1.884 -1.3834 -0.9413 -1.1477
28203SOL    HW285188   7.595   4.584   1.892  2.4249  1.1452  0.2161
28204SOL     OW85189   1.865   3.865   4.117  0.0764  0.0766 -0.1689
28204SOL    HW185190   1.903   3.870   4.029  0.0087  0.6748 -0.1674
28204SOL    HW285191   1.904   3.786   4.155  0.2264 -0.0999 -0.6803
28205SOL     OW85192   0.009   7.531   3.085  0.4779 -0.2869 -0.1121
28205SOL    HW185193   0.084   7.485   3.123  0.0834 -0.8791 -0.0369
28205SOL    HW285194  -0.058   7.463   3.074 -0.4761  0.4320  0.9361
28206SOL     OW85195   2.272   1.173   0.484  0.6170  0.3068  0.1611
28206SOL    HW185196   2.358   1.167   0.444  1.0899 -4.5373  1.3486
28206SOL    HW285197   2.287   1.219   0.567  1.8535  0.3247 -0.0596
28207SOL     OW85198   1.046   6.545   4.644  0.3758  0.6149  0.0514
28207SOL    HW185199   1.000   6.611   4.591  1.2838  0.9288 -0.3784
28207SOL    HW285200   1.136   6.577   4.648  0.5164  0.1243  1.0518
28208SOL     OW85201   6.179   7.161   8.426  0.3117 -0.5880  0.2687
28208SOL    HW185202   6.193   7.234   8.486  0.1808 -0.3864  0.0527
28208SOL    HW285203   6.211   7.192   8.341 -1.0646 -0.2594 -0.1460
28209SOL     OW85204   3.151   9.055   0.716  0.9299  0.4652 -0.0806
28209SOL    HW185205   3.113   9.099   0.640 -1.5001 -0.3942  0.5567
28209SOL    HW285206   3.076   9.021   0.764  2.2521  1.9965  3.3966
28210SOL     OW85207   2.510   0.527   5.279 -0.3900 -0.5713 -0.0520
28210SOL    HW185208   2.476   0.616   5.283  1.0597  0.0894 -1.3423
28210SOL    HW285209   2.435   0.471   5.300 -1.1626  0.9459  1.4414
28211SOL     OW85210   3.741   4.021   7.258  0.0074 -0.0851  0.3601
28211SOL    HW185211   3.817   4.057   7.304 -0.7038  1.7482  0.1559
28211SOL    HW285212   3.682   4.095   7.246 -2.4886 -1.7295  1.7479
28212SOL     OW85213   8.872   1.993   0.236 -0.3152  0.1981 -0.5222
28212SOL    HW185214   8.957   1.952   0.244 -1.0711 -1.2915  0.2267
28212SOL    HW285215   8.888   2.086   0.251  0.9446 -0.2638  1.2794
28213SOL     OW85216   2.780   3.270   5.682 -0.0030 -0.7175 -0.0685
28213SOL    HW185217   2.869   3.267   5.646  0.8149  1.2847  1.6089
28213SOL    HW285218   2.784   3.213   5.759  0.3271  0.5495  0.8947
28214SOL     OW85219   1.540   6.671   7.779  0.1929 -0.6228 -0.4770
28214SOL    HW185220   1.603   6.600   7.764  1.3883  0.6696 -1.8157
28214SOL    HW285221   1.522   6.706   7.692 -0.7068  0.4809  0.1238
28215SOL     OW85222   6.715   6.638   1.921  0.1506  0.3855  0.1284
28215SOL    HW185223   6.676   6.714   1.877 -2.3951 -1.3172 -0.8397
28215SOL    HW285224   6.726   6.574   1.851  0.0514 -0.9387  1.2870
28216SOL     OW85225   2.654   9.164   2.029 -0.3974 -0.0570  0.5287
28216SOL    HW185226   2.635   9.070   2.034 -0.4049 -0.1598 -0.9446
28216SOL    HW285227   2.581   9.200   1.978  0.2366  0.5417  0.0305
28217SOL     OW85228   0.360   5.836   8.733  0.5514  0.0589  0.6298
28217SOL    HW185229   0.395   5.901   8.671 -0.8959  0.0306 -0.2555
28217SOL    HW285230   0.437   5.788   8.762  1.2243 -0.5072 -1.8287
28218SOL     OW85231   0.454   1.264   8.700  0.0575  0.0187 -0.5429
28218SOL    HW185232   0.464   1.214   8.619 -2.4144  1.1924 -1.7005
28218SOL    HW285233   0.456   1.198   8.769  2.9569 -0.9502 -1.3970
28219SOL     OW85234   1.383   7.555   5.782 -0.1962  0.1505 -0.2139
28219SOL    HW185235   1.428   7.555   5.866  0.4780 -0.1881 -0.5668
28219SOL    HW285236   1.340   7.641   5.777  0.1366  0.3450  0.2715
28220SOL     OW85237   3.630   4.043   7.600  0.2711 -0.0675  0.1567
28220SOL    HW185238   3.539   4.057   7.576  0.1866 -0.3407  0.3128
28220SOL    HW285239   3.671   4.129   7.591 -0.5233  0.6209  2.3422
28221SOL     OW85240   9.368   5.438   8.199  0.4764  0.7388  0.4407
28221SOL    HW185241   9.440   5.489   8.161 -0.3539  0.8297 -1.0963
28221SOL    HW285242   9.296   5.449   8.137 -0.3727 -0.6234  1.1419
28222SOL     OW85243   8.497   3.485   5.523  0.0884  0.3381 -0.1743
28222SOL    HW185244   8.440   3.415   5.489  0.9144 -0.3383 -0.2024
28222SOL    HW285245   8.514   3.460   5.614  0.5795  0.3731 -0.2558
28223SOL     OW85246   5.988   1.984   3.196  0.3572  0.4558  0.4491
28223SOL    HW185247   5.959   1.960   3.107  1.5281 -0.1763  0.2191
28223SOL    HW285248   6.055   2.050   3.182 -1.6330  2.7529  1.0261
28224SOL     OW85249   4.867   7.063   9.339 -0.2129  0.0970  0.0336
28224SOL    HW185250   4.878   7.011   9.259  1.6397 -0.2320  0.4531
28224SOL    HW285251   4.833   7.147   9.308 -0.6394 -0.4264 -0.9673
28225SOL     OW85252   9.333   9.041   7.087 -0.3547  0.4662  0.0589
28225SOL    HW185253   9.263   9.105   7.094 -0.6968 -0.0907  2.9472
28225SOL    HW285254   9.395   9.065   7.157  0.9680 -0.6472 -0.6782
28226SOL     OW85255   3.590   0.075   4.491  0.7088  0.4304 -0.5851
28226SOL    HW185256   3.598   0.165   4.458 -0.0961  1.0821  0.9076
28226SOL    HW285257   3.558   0.085   4.580 -0.7032 -1.3975 -0.8399
28227SOL     OW85258   2.517   3.606   2.172 -0.6795 -0.3530 -0.0742
28227SOL    HW185259   2.523   3.672   2.240 -1.1595 -0.1609 -0.2142
28227SOL    HW285260   2.560   3.645   2.096 -3.5930  1.0836 -1.1238
28228SOL     OW85261   1.540   0.737   1.796 -0.3586 -0.0923 -0.0653
28228SOL    HW185262   1.554   0.742   1.891  2.1524 -0.1812 -0.3797
28228SOL    HW285263   1.516   0.826   1.771 -2.8489 -0.4138  0.8213
28229SOL     OW85264   7.577   9.611   4.528 -0.1740 -0.3797 -0.3975
28229SOL    HW185265   7.501   9.660   4.498  0.7846 -0.0605 -2.4788
28229SOL    HW285266   7.616   9.668   4.595 -1.0928 -0.0156 -0.1484
28230SOL     OW85267   0.893   4.079   4.161 -1.1096 -0.3459 -0.8410
28230SOL    HW185268   0.875   4.075   4.067 -0.2262 -0.3828 -1.0130
28230SOL    HW285269   0.963   4.015   4.174 -0.0093  0.9115 -0.4430
28231SOL     OW85270   4.598   1.204   5.241  0.0395 -0.3243 -0.1906
28231SOL    HW185271   4.545   1.125   5.245  0.6790 -0.8346 -1.3267
28231SOL    HW285272   4.537   1.272   5.212 -0.7020 -0.1853  1.5650
28232SOL     OW85273   5.101   1.287   1.770  0.4425  0.6237 -0.3350
28232SOL    HW185274   5.011   1.255   1.756  0.6815  0.0097 -0.5153
28232SOL    HW285275   5.109   1.361   1.709 -0.1178  1.0368  0.0794
28233SOL     OW85276   9.579   4.481   6.502 -0.2796 -0.2827 -0.3267
28233SOL    HW185277   9.665   4.441   6.489  1.2292  2.9196 -1.0280
28233SOL    HW285278   9.583   4.522   6.588 -0.7687  0.6681 -0.7453
28234SOL     OW85279   1.694   3.863   4.510 -0.2314 -0.1560 -0.7902
28234SOL    HW185280   1.656   3.805   4.445 -1.2929  1.9505 -2.1545
28234SOL    HW285281   1.750   3.923   4.460 -0.5502  1.1062  0.2900
28235SOL     OW85282   4.954   5.616   3.499 -0.3966 -0.3695  0.2093
28235SOL    HW185283   4.907   5.574   3.427 -1.3182  0.2253  0.4421
28235SOL    HW285284   5.031   5.655   3.458 -1.2175  0.4676 -0.5833
28236SOL     OW85285   5.524   6.825   8.641  0.0056  0.1074  1.0199
28236SOL    HW185286   5.606   6.824   8.689 -0.3371 -4.7375  1.9669
28236SOL    HW285287   5.475   6.750   8.674 -2.7679 -0.1094 -2.8228
28237SOL     OW85288   6.559   3.550   7.120  0.6281 -0.5052  0.4248
28237SOL    HW185289   6.483   3.492   7.110 -0.2920  0.6641  0.4759
28237SOL    HW285290   6.553   3.583   7.209  0.0247  1.1761 -0.2011
28238SOL     OW85291   3.997   7.199   7.974 -0.9880  0.2209 -0.8415
28238SOL    HW185292   3.966   7.204   8.064  0.3053  0.2003 -0.3809
28238SOL    HW285293   3.959   7.277   7.932 -0.6724  0.8554  0.0125
28239SOL     OW85294   0.218   2.505   1.140 -0.5256 -0.2259 -0.4174
28239SOL    HW185295   0.195   2.413   1.135  1.3291 -0.6528 -1.9221
28239SOL    HW285296   0.291   2.508   1.203 -0.7900  0.2761 -0.1245
28240SOL     OW85297   8.731   6.432   1.446 -0.2411 -0.4446 -0.3190
28240SOL    HW185298   8.651   6.423   1.497  0.2291  2.0675  1.0335
28240SOL    HW285299   8.800   6.397   1.503  0.1134  1.2168  0.3472
28241SOL     OW85300   6.289   4.492   1.898  0.1282  0.4933 -0.0100
28241SOL    HW185301   6.384   4.476   1.897 -0.0501 -0.7215 -1.2880
28241SOL    HW285302   6.256   4.436   1.967  0.3342  0.9163  0.4370
28242SOL     OW85303   9.632   6.846   5.562  0.7424 -0.0506 -0.1793
28242SOL    HW185304   9.711   6.865   5.613  0.1723  1.4221  0.2039
28242SOL    HW285305   9.570   6.813   5.626  0.2648  1.1065 -0.0283
28243SOL     OW85306   5.557   1.145   2.856 -0.0961 -0.7803 -0.1521
28243SOL    HW185307   5.567   1.239   2.874 -0.3928 -0.7758 -0.0076
28243SOL    HW285308   5.465   1.135   2.831 -0.1046 -1.0598 -0.0124
28244SOL     OW85309   7.841   6.143   1.937  0.0961  0.2218  0.1401
28244SOL    HW185310   7.847   6.233   1.969 -2.2092  0.4178  0.1770
28244SOL    HW285311   7.815   6.092   2.013 -2.5361  0.2217 -0.6847
28245SOL     OW85312   0.192   9.690   5.406 -0.7768  0.4457 -0.0147
28245SOL    HW185313   0.155   9.605   5.384 -2.2614  0.8449  0.8259
28245SOL    HW285314   0.130   9.728   5.468  0.4791  1.6307  0.5718
28246SOL     OW85315   1.500   7.502   5.432  0.4634  0.1595  0.1216
28246SOL    HW185316   1.547   7.430   5.475  0.1593  0.0182  0.2237
28246SOL    HW285317   1.499   7.478   5.340 -2.1491 -1.4800  0.4504
28247SOL     OW85318   0.122   3.378   5.270  0.0338  0.3720 -0.3875
28247SOL    HW185319   0.044   3.434   5.267  0.2108  0.6530  0.0807
28247SOL    HW285320   0.146   3.377   5.362 -0.9845 -1.8938 -0.0737
28248SOL     OW85321   1.499   9.124   4.385  0.2699 -0.5624 -0.0239
28248SOL    HW185322   1.497   9.214   4.355  0.7313 -0.5686 -0.0745
28248SOL    HW285323   1.430   9.119   4.451  1.1963  0.2023  1.0498
28249SOL     OW85324   6.836   3.989   3.236 -0.6024 -0.1004 -0.9629
28249SOL    HW185325   6.762   3.935   3.208  0.7176 -1.3249 -2.2261
28249SOL    HW285326   6.910   3.928   3.238 -0.0878  0.3728  3.1208
28250SOL     OW85327   4.733   1.085   8.581  0.0258 -0.0912 -0.1462
28250SOL    HW185328   4.676   1.063   8.508  0.9085  0.1818 -0.9462
28250SOL    HW285329   4.699   1.035   8.655  0.0454 -1.6021 -1.1224
28251SOL     OW85330   0.144   6.993   8.662  0.2536  0.1057 -1.0185
28251SOL    HW185331   0.187   7.014   8.745 -1.3292  1.0268 -0.3868
28251SOL    HW285332   0.104   6.908   8.677 -0.9897  0.7682 -0.3991
28252SOL     OW85333   6.044   1.807   3.435 -0.6372  0.2708 -0.0176
28252SOL    HW185334   6.132   1.826   3.467 -0.6991 -0.2434  0.4684
28252SOL    HW285335   6.042   1.843   3.346 -0.4122  1.5885  0.4914
28253SOL     OW85336   4.886   9.839   7.632 -0.5574 -0.5906 -0.0615
28253SOL    HW185337   4.935   9.811   7.709 -0.1242  2.9877  1.1474
28253SOL    HW285338   4.840   9.919   7.660 -2.3259 -0.5051 -2.8468
28254SOL     OW85339   9.652   7.022   3.825 -0.3777  0.1500 -0.6147
28254SOL    HW185340   9.572   7.056   3.864  0.7456 -0.4182  2.4034
28254SOL    HW285341   9.634   6.930   3.809 -0.8618  0.3982 -1.5606
28255SOL     OW85342   6.182   7.020   0.154  0.3485 -0.0534  0.0792
28255SOL    HW185343   6.219   7.106   0.173  1.1869 -0.9350  2.8843
28255SOL    HW285344   6.088   7.033   0.157  0.4593  0.8957 -0.3080
28256SOL     OW85345   7.757   7.659   9.511  0.6727  0.1158 -0.1658
28256SOL    HW185346   7.752   7.697   9.423  1.5463  1.4045  0.3081
28256SOL    HW285347   7.780   7.568   9.496 -0.7354 -0.0895 -1.3225
28257SOL     OW85348   1.520   0.488   5.503  0.2374  0.2016  0.2573
28257SOL    HW185349   1.594   0.524   5.552  2.0584 -1.6456 -0.9427
28257SOL    HW285350   1.546   0.494   5.412 -0.9617 -0.7601 -0.1826
28258SOL     OW85351   5.262   3.601   5.404  0.1838 -0.2850 -0.6014
28258SOL    HW185352   5.189   3.548   5.372 -0.9900  0.7548  0.2368
28258SOL    HW285353   5.223   3.687   5.420  1.6334  0.3226 -0.2377
28259SOL     OW85354   4.200   0.634   3.466  0.4515  0.0576 -0.0726
28259SOL    HW185355   4.216   0.673   3.552  2.9986 -1.1297  0.0939
28259SOL    HW285356   4.271   0.667   3.411  1.0602 -2.0442 -0.6669
28260SOL     OW85357   7.021   6.085   2.861  0.4287 -0.6322 -0.6149
28260SOL    HW185358   7.024   6.055   2.770 -0.1241 -1.5722 -0.3485
28260SOL    HW285359   6.932   6.117   2.872  0.2268 -1.3268 -0.1754
28261SOL     OW85360   9.043   3.774   6.673  0.5402  0.2898  0.1847
28261SOL    HW185361   9.116   3.777   6.612  0.2600  0.5201 -0.1399
28261SOL    HW285362   8.987   3.848   6.648 -0.4037 -0.5700 -0.3398
28262SOL     OW85363   4.466   9.429   9.024 -0.5975  0.5920 -0.0463
28262SOL    HW185364   4.549   9.470   9.048  0.5136 -1.3974 -0.2704
28262SOL    HW285365   4.415   9.428   9.104  0.6429 -0.4363  0.7761
28263SOL     OW85366   1.366   7.691   4.664  0.3070  0.2706  0.7120
28263SOL    HW185367   1.329   7.778   4.647  1.5340  0.7791  0.5003
28263SOL    HW285368   1.425   7.676   4.591  0.2385 -0.6749  0.8432
28264SOL     OW85369   2.633   4.166   4.763  0.3338  0.6332  0.3244
28264SOL    HW185370   2.634   4.070   4.756  0.3227  0.5393  1.3277
28264SOL    HW285371   2.561   4.184   4.823  1.6832  1.1067  1.8783
28265SOL     OW85372   0.773   9.214   3.139  0.0756 -0.2918  0.0724
28265SOL    HW185373   0.813   9.224   3.053 -1.5059 -1.7747 -0.8909
28265SOL    HW285374   0.812   9.135   3.176 -2.3964 -2.2683 -1.2462
28266SOL     OW85375   0.162   7.669   3.492 -0.7713 -0.1718  0.0899
28266SOL    HW185376   0.067   7.673   3.496 -0.8769 -0.8516 -1.3250
28266SOL    HW285377   0.185   7.597   3.551 -1.0106  0.8825  1.5136
28267SOL     OW85378   7.256   8.412   1.360  0.1955  0.0387 -0.0338
28267SOL    HW185379   7.319   8.350   1.323 -0.6441 -1.0055  0.2408
28267SOL    HW285380   7.170   8.375   1.336 -0.3920  2.7333 -2.6748
28268SOL     OW85381   5.347   1.680   4.839 -0.1531  0.3973 -0.1485
28268SOL    HW185382   5.440   1.682   4.817  0.0063 -0.4729  0.4252
28268SOL    HW285383   5.305   1.728   4.768  0.8183  1.5858  0.0493
28269SOL     OW85384   3.716   3.006   7.599  0.2354 -0.4073 -0.6071
28269SOL    HW185385   3.650   2.936   7.602  0.9562 -1.2871 -3.1000
28269SOL    HW285386   3.694   3.056   7.521  2.6179 -0.8928 -1.6654
28270SOL     OW85387   8.722   3.516   4.678 -0.3922 -0.0508  0.1865
28270SOL    HW185388   8.688   3.499   4.765  0.6394  1.2712  0.8875
28270SOL    HW285389   8.740   3.610   4.677 -3.6779  0.7439 -2.6830
28271SOL     OW85390   1.587   5.921   8.032 -0.5624 -0.0731  0.1861
28271SOL    HW185391   1.681   5.919   8.017 -0.0463  1.6908  2.6011
28271SOL    HW285392   1.558   6.003   7.993 -0.7555  0.2212  0.9186
28272SOL     OW85393   3.817   7.326   4.182  0.3005  0.4376 -0.3690
28272SOL    HW185394   3.839   7.391   4.249  3.0490  0.0269 -0.7614
28272SOL    HW285395   3.851   7.243   4.216  0.4066 -0.0479 -1.6100
28273SOL     OW85396   2.939   3.091   9.673  0.1690  0.3149  0.3389
28273SOL    HW185397   2.993   3.162   9.637 -0.7969  2.3203  2.5291
28273SOL    HW285398   2.994   3.052   9.741 -0.1986  0.7364  0.8954
28274SOL     OW85399   6.466   1.572   1.825  0.0359  0.1248  0.5177
28274SOL    HW185400   6.449   1.545   1.735 -0.5541  0.5660  0.4980
28274SOL    HW285401   6.483   1.490   1.872  0.0964 -0.1243  0.0610
28275SOL     OW85402   6.496   0.301   3.461  0.0304 -0.4473 -0.9682
28275SOL    HW185403   6.592   0.297   3.468  0.2140  1.3480 -1.9512
28275SOL    HW285404   6.477   0.279   3.370 -0.2496  1.7216 -1.4809
28276SOL     OW85405   9.053   4.150   2.287  0.1638 -0.1837  0.4910
28276SOL    HW185406   9.008   4.123   2.208  1.9445 -0.0523 -0.6153
28276SOL    HW285407   8.983   4.163   2.351 -1.1871 -1.9309 -0.5383
28277SOL     OW85408   9.734   3.590   1.918  0.3770  0.0919 -0.2789
28277SOL    HW185409   9.792   3.649   1.967  1.0152 -1.1842  0.5442
28277SOL    HW285410   9.649   3.599   1.962  0.4596  0.4252 -0.1846
28278SOL     OW85411   0.311   0.790   7.678 -0.1407 -0.5719  0.1384
28278SOL    HW185412   0.283   0.813   7.590 -0.4782 -2.2375 -0.2281
28278SOL    HW285413   0.229   0.785   7.729  0.0610  0.4891  0.5835
28279SOL     OW85414   7.075   0.222   4.569  0.0360 -0.1733  0.1494
28279SOL    HW185415   7.020   0.300   4.566 -0.2541 -0.3537  0.6034
28279SOL    HW285416   7.027   0.155   4.520 -0.4908 -0.5345  1.1391
28280SOL     OW85417   0.633   6.677   2.201  0.4176 -0.7318 -0.1970
28280SOL    HW185418   0.710   6.716   2.161  0.7985 -2.5250 -1.3114
28280SOL    HW285419   0.582   6.642   2.128 -0.6517 -0.9902  0.6301
28281SOL     OW85420   7.522   7.383   2.095  0.1937 -0.6389  0.2300
28281SOL    HW185421   7.590   7.426   2.043  0.6723 -0.6750  0.8161
28281SOL    HW285422   7.570   7.325   2.154 -0.4040 -1.4582 -0.0688
28282SOL     OW85423   4.366   8.406   6.030 -0.1513  0.3075  0.3953
28282SOL    HW185424   4.396   8.491   6.001  0.2375  0.8466  2.2516
28282SOL    HW285425   4.299   8.425   6.096  0.8497 -0.7674  1.7896
28283SOL     OW85426   7.644   0.158   6.255  0.3688 -0.4457 -0.1349
28283SOL    HW185427   7.579   0.125   6.317 -0.0664  3.1036  1.5082
28283SOL    HW285428   7.695   0.222   6.304  1.2286  1.1998 -2.9246
28284SOL     OW85429   1.908   7.499   7.463 -0.3434  0.2015  0.5194
28284SOL    HW185430   1.845   7.564   7.431 -0.8025 -0.1676  0.6697
28284SOL    HW285431   1.980   7.552   7.497 -1.8313  0.7917  3.0616
28285SOL     OW85432   0.365   1.423   1.449 -0.2152 -0.1602  0.1416
28285SOL    HW185433   0.410   1.448   1.368 -1.4971  1.7205 -0.0456
28285SOL    HW285434   0.426   1.365   1.494  3.0102  3.2117  0.5429
28286SOL     OW85435   9.795   7.167   1.199 -0.3055 -0.1966 -0.4289
28286SOL    HW185436   9.788   7.095   1.262 -0.1652  1.5556  1.6998
28286SOL    HW285437   9.719   7.155   1.141 -2.1964 -0.2528  1.9079
28287SOL     OW85438   0.517   7.774   5.915  0.2138  0.4861 -0.1764
28287SOL    HW185439   0.424   7.787   5.900  0.1986 -0.6803 -1.2633
28287SOL    HW285440   0.524   7.687   5.953  1.0791 -1.0701 -3.5784
28288SOL     OW85441   2.272   4.977   4.048  0.4886 -0.0302  0.6687
28288SOL    HW185442   2.300   5.034   3.976 -0.4498  1.4957  1.4631
28288SOL    HW285443   2.245   5.037   4.117 -4.1946 -1.2617  0.2363
28289SOL     OW85444   0.266   8.074   2.567 -0.4458  0.4252  0.0904
28289SOL    HW185445   0.280   8.157   2.522  0.7345 -0.1311 -0.6306
28289SOL    HW285446   0.196   8.031   2.518  0.2255  0.2058 -0.7005
28290SOL     OW85447   6.286   0.678   4.662  0.0934  0.1456  0.2307
28290SOL    HW185448   6.241   0.596   4.680  0.5686 -0.7474 -2.3011
28290SOL    HW285449   6.218   0.735   4.624  0.1320  0.3756  0.4976
28291SOL     OW85450   0.886   2.612   7.484 -0.4885  0.2783  0.2792
28291SOL    HW185451   0.900   2.625   7.391 -0.8087  0.3694  0.2429
28291SOL    HW285452   0.902   2.518   7.498  1.4566  0.5986  0.4768
28292SOL     OW85453   9.155   6.783   7.250  0.1700  0.3578  0.2604
28292SOL    HW185454   9.229   6.738   7.209 -1.5250 -0.9611 -1.5475
28292SOL    HW285455   9.086   6.780   7.184 -1.1939  2.4491  1.4946
28293SOL     OW85456   3.290   4.405   4.017 -0.1451 -0.4050  0.2388
28293SOL    HW185457   3.288   4.495   4.050  0.0649 -0.1901 -0.3197
28293SOL    HW285458   3.264   4.412   3.926 -1.5106 -1.0928  0.5533
28294SOL     OW85459   0.090   7.944   6.506 -0.1245  0.1505  0.3715
28294SOL    HW185460   0.113   7.924   6.597  1.9296 -0.9758 -0.3023
28294SOL    HW285461   0.033   7.872   6.480 -0.4500  0.2992  0.6615
28295SOL     OW85462   0.400   5.292   5.643 -0.5932 -0.1084 -0.3310
28295SOL    HW185463   0.417   5.353   5.571  0.2228  1.9482  1.4986
28295SOL    HW285464   0.324   5.329   5.688 -0.9134 -1.2108  0.0543
28296SOL     OW85465   4.416   5.226   0.875 -0.6711  0.1831 -0.7193
28296SOL    HW185466   4.456   5.297   0.825 -0.5987 -0.4817 -1.6325
28296SOL    HW285467   4.489   5.181   0.916 -0.7425  0.8198  0.1170
28297SOL     OW85468   4.595   1.271   2.769 -0.1120 -0.4524  0.2990
28297SOL    HW185469   4.510   1.226   2.762 -0.1702 -0.1118 -1.9465
28297SOL    HW285470   4.651   1.209   2.815 -1.2316 -1.2235  0.6709
28298SOL     OW85471   7.044   2.078   9.625 -0.0266 -0.2715  0.0001
28298SOL    HW185472   7.125   2.028   9.610  0.0838 -0.1052  0.0348
28298SOL    HW285473   7.050   2.107   9.716  0.1354  0.2041 -0.1596
28299SOL     OW85474   7.772   7.208   7.974  0.0880  0.0837  0.0737
28299SOL    HW185475   7.810   7.189   8.059 -1.3498  0.3302  0.8002
28299SOL    HW285476   7.766   7.123   7.930 -1.5113 -0.4429  1.2462
28300SOL     OW85477   9.092   4.955   5.244  0.2297 -0.3911  0.0013
28300SOL    HW185478   9.108   4.862   5.256 -1.5295 -0.9278 -1.4210
28300SOL    HW285479   9.165   4.985   5.190 -0.5216 -1.5719 -1.7759
28301SOL     OW85480   7.875   6.653   0.927  0.7575 -0.6171  0.1205
28301SOL    HW185481   7.780   6.659   0.915  0.4235 -0.4733  2.3749
28301SOL    HW285482   7.912   6.683   0.844 -1.1647 -0.6107 -0.7757
28302SOL     OW85483   9.142   9.649   5.901 -0.2919 -0.4116  0.0116
28302SOL    HW185484   9.063   9.623   5.853  0.8185 -0.7812 -1.6795
28302SOL    HW285485   9.214   9.627   5.843  1.0689  0.1793  1.4106
28303SOL     OW85486   8.314   3.206   6.884  0.7139  0.0353 -0.0181
28303SOL    HW185487   8.365   3.130   6.915  0.1905 -0.1506  0.3973
28303SOL    HW285488   8.373   3.250   6.824  0.3895 -1.7480 -1.7522
28304SOL     OW85489   1.036   4.274   2.509  0.3002  0.1749  0.6073
28304SOL    HW185490   1.104   4.337   2.484  1.3830 -1.1779 -0.0096
28304SOL    HW285491   1.083   4.191   2.519 -1.3407 -0.9106 -0.3112
28305SOL     OW85492   5.776   3.621   6.970 -0.4519  0.7351 -0.1800
28305SOL    HW185493   5.789   3.545   6.913  2.1017  0.6984  0.3452
28305SOL    HW285494   5.700   3.666   6.933 -2.7028 -2.5479  0.0888
28306SOL     OW85495   8.038   6.850   8.760 -0.0252  0.1359  0.5637
28306SOL    HW185496   7.978   6.820   8.691  0.6626 -0.8551  0.3818
28306SOL    HW285497   8.027   6.945   8.761 -0.2789  0.1379 -0.6990
28307SOL     OW85498   7.590   8.143   7.782  0.4575 -0.0032 -0.0658
28307SOL    HW185499   7.551   8.152   7.695 -0.5252  0.2750  0.3777
28307SOL    HW285500   7.671   8.193   7.778 -0.2472  1.1596 -0.4354
28308SOL     OW85501   2.673   3.594   3.583 -0.3544 -0.3894  0.2755
28308SOL    HW185502   2.649   3.539   3.509 -1.4332  0.0128  0.3110
28308SOL    HW285503   2.636   3.550   3.659  0.7805 -0.8193  0.5992
28309SOL     OW85504   9.514   9.875   1.679  0.2764  0.2098 -0.0788
28309SOL    HW185505   9.599   9.915   1.662  0.0699  0.9631  0.6084
28309SOL    HW285506   9.450   9.936   1.643 -0.0028 -0.0525 -0.0377
28310SOL     OW85507   0.964   8.204   7.862  0.4571  0.4109  0.1178
28310SOL    HW185508   0.969   8.296   7.837  0.0575  0.8028  1.3838
28310SOL    HW285509   1.044   8.165   7.827  0.0868  0.9708 -1.4092
28311SOL     OW85510   3.617   3.662   5.661  0.8662 -0.2394 -0.0497
28311SOL    HW185511   3.562   3.585   5.645  1.4736 -0.6286 -0.3363
28311SOL    HW285512   3.560   3.724   5.705  0.8856 -1.6322  2.0537
28312SOL     OW85513   8.845   4.703   2.750  0.5818 -0.2844  0.2922
28312SOL    HW185514   8.776   4.664   2.697  2.6057 -2.8051 -0.7070
28312SOL    HW285515   8.828   4.671   2.839  1.3992 -2.4626 -0.2693
28313SOL     OW85516   5.955   6.099   4.139 -0.2789 -0.4947  0.0055
28313SOL    HW185517   5.953   6.003   4.147  0.5749 -0.6244 -1.0503
28313SOL    HW285518   5.932   6.131   4.226  0.4303 -1.6657  0.6446
28314SOL     OW85519   5.411   6.841   8.418 -0.3324 -0.3715  0.2798
28314SOL    HW185520   5.464   6.852   8.497  1.0322  0.2766 -0.6885
28314SOL    HW285521   5.380   6.929   8.397 -1.1657 -0.6258  0.3773
28315SOL     OW85522   4.913   0.608   0.368 -0.0011 -0.2580 -0.3271
28315SOL    HW185523   4.939   0.526   0.325  2.6648  0.2927  0.0611
28315SOL    HW285524   4.985   0.627   0.428 -0.8604  2.0598  0.0565
28316SOL     OW85525   5.566   6.085   8.958  0.5829 -0.0443  0.3430
28316SOL    HW185526   5.499   6.024   8.988  0.4219 -0.1362 -0.1979
28316SOL    HW285527   5.586   6.138   9.035  0.1626 -0.2628  0.6058
28317SOL     OW85528   9.058   4.454   6.297 -0.2313 -0.0334  0.0596
28317SOL    HW185529   9.098   4.380   6.252 -1.7321 -0.5624 -0.4525
28317SOL    HW285530   9.130   4.494   6.346  0.8537 -1.0920 -0.6239
28318SOL     OW85531   2.139   7.870   4.017 -0.3132  0.0804  0.4054
28318SOL    HW185532   2.152   7.807   3.945 -0.4494  1.2075 -0.6341
28318SOL    HW285533   2.211   7.853   4.077  1.0452  0.4958 -1.0400
28319SOL     OW85534   5.634   5.246   7.228  0.3213  1.0349 -0.2740
28319SOL    HW185535   5.597   5.185   7.164  1.7889 -0.6060  0.3453
28319SOL    HW285536   5.558   5.286   7.269 -0.7469 -0.6876 -0.4454
28320SOL     OW85537   4.628   0.983   4.036  0.4614 -0.0123 -0.4532
28320SOL    HW185538   4.613   1.067   4.079  0.7426 -0.0216 -0.3313
28320SOL    HW285539   4.541   0.952   4.012  0.1661 -0.5458  1.1538
28321SOL     OW85540   3.326   0.640   0.543 -0.1974 -0.2276  0.0249
28321SOL    HW185541   3.262   0.638   0.472  0.5254 -0.3339 -0.6400
28321SOL    HW285542   3.283   0.689   0.613 -1.3012 -0.9905 -0.1078
28322SOL     OW85543   0.678   1.928   5.897  0.2711  0.1722 -0.4876
28322SOL    HW185544   0.677   1.999   5.832 -2.3427 -0.0486 -0.8074
28322SOL    HW285545   0.646   1.969   5.977 -0.2006 -0.3978 -0.3798
28323SOL     OW85546   2.791   3.105   3.159  0.3472  0.3563  0.4145
28323SOL    HW185547   2.870   3.118   3.107 -0.1615 -0.6206 -0.6538
28323SOL    HW285548   2.733   3.177   3.135 -0.4361 -0.8278 -1.5173
28324SOL     OW85549   9.344   7.475   2.789  0.5628 -0.1583  0.3577
28324SOL    HW185550   9.270   7.509   2.840 -0.1024 -0.5001 -0.3684
28324SOL    HW285551   9.319   7.385   2.767  0.3203  0.3241 -1.5069
28325SOL     OW85552   3.761   0.124   8.516 -0.0944  0.1689 -0.4631
28325SOL    HW185553   3.780   0.127   8.422  0.6016 -1.0821 -0.3844
28325SOL    HW285554   3.697   0.054   8.526 -2.5092  2.2366 -0.3198
28326SOL     OW85555   9.594   1.808   7.959  0.1657  0.1191 -0.2031
28326SOL    HW185556   9.565   1.899   7.956 -0.0288  0.0884  0.4031
28326SOL    HW285557   9.520   1.761   7.999 -0.2502 -0.5271 -1.6603
28327SOL     OW85558   6.198   0.907   9.930 -0.1694 -0.2325 -0.0058
28327SOL    HW185559   6.275   0.902   9.873 -0.0532  0.7006  0.0683
28327SOL    HW285560   6.124   0.901   9.870 -0.1057  3.0889 -0.5945
28328SOL     OW85561   1.071   8.623   6.874  0.2632 -0.0029 -0.1038
28328SOL    HW185562   1.145   8.681   6.858 -0.6971  1.8365  1.7897
28328SOL    HW285563   1.030   8.613   6.788  2.1706 -0.4162 -1.0359
28329SOL     OW85564   8.871   4.715   9.813  0.3094  0.1832 -0.0675
28329SOL    HW185565   8.906   4.637   9.772  0.7177 -0.3328  1.2031
28329SOL    HW285566   8.947   4.771   9.828  0.7339 -1.0342  2.9056
28330SOL     OW85567   8.598   2.176   9.831  0.0694 -0.0004 -0.0898
28330SOL    HW185568   8.680   2.155   9.786  0.5112 -0.4440  0.8919
28330SOL    HW285569   8.620   2.250   9.888  0.7856 -2.2181  2.7914
28331SOL     OW85570   4.868   4.871   7.671  0.3303 -0.4198  0.1746
28331SOL    HW185571   4.814   4.923   7.612 -0.2401 -1.5368 -0.3178
28331SOL    HW285572   4.913   4.809   7.614  3.9490  1.8587  0.2451
28332SOL     OW85573   2.202   4.505   5.151  0.0611 -0.1344  0.0089
28332SOL    HW185574   2.182   4.462   5.068  2.0458  0.1776 -0.6827
28332SOL    HW285575   2.289   4.471   5.175  0.5481  1.5521  0.7498
28333SOL     OW85576   9.188   6.083   0.618 -0.0015  0.2068 -0.1231
28333SOL    HW185577   9.155   6.171   0.635 -0.4672 -0.2398  1.4343
28333SOL    HW285578   9.147   6.058   0.535 -2.5240  0.2458  1.0167
28334SOL     OW85579   6.685   0.579   7.039  0.2645 -0.5270  0.3960
28334SOL    HW185580   6.605   0.617   7.076 -0.3148  0.0571 -1.3615
28334SOL    HW285581   6.677   0.593   6.945  1.4174 -2.4338 -0.0447
28335SOL     OW85582   2.845   1.305   5.018 -1.2090  0.6126  0.0511
28335SOL    HW185583   2.910   1.325   5.085 -0.1691  1.5104 -1.1613
28335SOL    HW285584   2.804   1.224   5.047 -1.5557  1.5138  2.2860
28336SOL     OW85585   2.968   4.196   1.524 -0.1312 -0.2493 -0.2287
28336SOL    HW185586   2.916   4.233   1.595 -0.9409 -1.1817 -0.3181
28336SOL    HW285587   3.040   4.258   1.513 -1.7269  1.6077 -0.7604
28337SOL     OW85588   9.561   9.378   3.507 -0.6276  0.0974 -0.1861
28337SOL    HW185589   9.480   9.406   3.465  0.3625 -0.8380 -2.9321
28337SOL    HW285590   9.538   9.296   3.551 -1.7676  1.2540  1.4762
28338SOL     OW85591   9.492   3.285   0.791  0.9069 -0.5350  0.0668
28338SOL    HW185592   9.521   3.205   0.747 -0.1338 -1.0165  0.2088
28338SOL    HW285593   9.570   3.340   0.796  1.4673 -1.2320 -0.7164
28339SOL     OW85594   0.470   4.376   1.404 -0.0328 -0.0143 -0.3066
28339SOL    HW185595   0.509   4.304   1.355  1.1294 -0.0838  0.6675
28339SOL    HW285596   0.376   4.365   1.393  0.0033 -2.7611  1.2155
28340SOL     OW85597   9.757   7.153   2.789  0.0003  0.8265 -0.2374
28340SOL    HW185598   9.676   7.159   2.840 -1.0500 -3.1608 -1.1381
28340SOL    HW285599   9.749   7.221   2.722 -3.7896 -0.8277 -1.7001
28341SOL     OW85600   7.634   8.067   4.200 -0.9311 -0.5900 -0.0398
28341SOL    HW185601   7.613   8.143   4.255 -0.8744  0.5952 -1.5806
28341SOL    HW285602   7.720   8.039   4.231 -0.9843 -0.0644  0.6027
28342SOL     OW85603   0.646   4.366   8.534 -0.3026 -0.3455  0.1900
28342SOL    HW185604   0.736   4.397   8.522 -0.2238  0.2000  1.8671
28342SOL    HW285605   0.652   4.302   8.605 -1.3257  0.3366  0.9286
28343SOL     OW85606   8.973   2.448   8.738  0.5871 -0.0997 -0.4905
28343SOL    HW185607   9.059   2.491   8.733 -0.2307  1.4793 -1.8131
28343SOL    HW285608   8.911   2.515   8.708 -1.1263 -1.1847  0.4902
28344SOL     OW85609   7.926   4.365   3.953  0.4251 -0.2112  0.4533
28344SOL    HW185610   7.894   4.450   3.922  2.1190  0.1158 -0.5101
28344SOL    HW285611   7.990   4.339   3.888 -0.7717 -2.7416  0.1853
28345SOL     OW85612   1.376   0.119   3.411  0.0248  0.0684  0.2502
28345SOL    HW185613   1.361   0.105   3.317 -0.1211 -1.2153  0.4490
28345SOL    HW285614   1.314   0.188   3.435  2.0115  2.5022 -1.1550
28346SOL     OW85615   5.320   5.058   0.214  0.7597  0.8862  0.1810
28346SOL    HW185616   5.273   5.013   0.283  0.8588  0.6122  0.0697
28346SOL    HW285617   5.277   5.143   0.207  1.5341  1.4159  1.4448
28347SOL     OW85618   9.901   0.623   0.626  0.1626  0.1160  0.6082
28347SOL    HW185619   9.973   0.621   0.689  1.3162  0.7451 -0.6142
28347SOL    HW285620   9.915   0.546   0.572 -1.4067 -0.9746  1.6922
28348SOL     OW85621   2.941   0.053   1.862  0.1556 -0.0869  0.2137
28348SOL    HW185622   2.930   0.032   1.769 -0.1104 -0.6775  0.3774
28348SOL    HW285623   2.987   0.137   1.862 -0.4670  0.2620 -0.4566
28349SOL     OW85624   5.542   1.725   6.977 -0.1325  0.8361  0.1818
28349SOL    HW185625   5.524   1.794   6.914  0.4800  0.4504 -0.4201
28349SOL    HW285626   5.609   1.670   6.936 -1.8725 -1.1659 -0.1588
28350SOL     OW85627   3.483   1.582   1.895  0.2687  0.3721  0.1630
28350SOL    HW185628   3.393   1.567   1.863  0.5206  1.5354 -1.2066
28350SOL    HW285629   3.477   1.570   1.989 -1.4235  0.7716  0.1479
28351SOL     OW85630   1.689   8.089   5.782 -0.3451 -0.4922 -0.7793
28351SOL    HW185631   1.675   8.023   5.714 -0.7794  0.0154 -1.1922
28351SOL    HW285632   1.663   8.171   5.741 -1.1315 -0.2448  0.1692
28352SOL     OW85633   2.726   7.387   7.314  0.1773  0.4001 -0.2657
28352SOL    HW185634   2.758   7.465   7.270  1.3412 -0.0717 -0.3064
28352SOL    HW285635   2.768   7.314   7.268  1.1146 -0.1277  1.3103
28353SOL     OW85636   7.459   1.185   8.754  0.1328  0.2090 -0.1195
28353SOL    HW185637   7.507   1.238   8.691  1.3975 -1.0660 -0.2762
28353SOL    HW285638   7.417   1.249   8.812  1.2075  1.3815 -0.5948
28354SOL     OW85639   6.595   6.568   5.666 -0.3700  0.6559 -0.3830
28354SOL    HW185640   6.514   6.528   5.698 -0.3443  0.9284  0.0226
28354SOL    HW285641   6.618   6.516   5.589  1.5301 -2.3906  1.9899
28355SOL     OW85642   2.337   0.151   1.348 -0.2134 -0.1833  1.1009
28355SOL    HW185643   2.399   0.162   1.421  0.5136  1.4950  0.2788
28355SOL    HW285644   2.344   0.232   1.298 -1.6211 -0.7926 -0.1589
28356SOL     OW85645   9.362   8.301   3.492  0.2885 -0.2587  0.5885
28356SOL    HW185646   9.401   8.247   3.561  0.6164 -0.9863 -0.1469
28356SOL    HW285647   9.320   8.238   3.434 -0.9435  0.4340  0.7078
28357SOL     OW85648   1.957   9.309   0.895 -0.0685 -0.6276 -0.5494
28357SOL    HW185649   1.996   9.384   0.851  1.3316 -0.1869  1.2852
28357SOL    HW285650   1.866   9.334   0.910  0.5469  1.0569  0.6793
28358SOL     OW85651   8.046   1.740   7.932 -0.0197 -0.0796 -0.0476
28358SOL    HW185652   8.113   1.746   7.864  0.1103  1.4813  0.1796
28358SOL    HW285653   8.017   1.648   7.930 -0.7326  0.1197 -2.8911
28359SOL     OW85654   6.676   8.648   9.233 -0.3670  0.3164 -0.0791
28359SOL    HW185655   6.682   8.579   9.299 -1.2393 -1.0060 -1.3119
28359SOL    HW285656   6.623   8.716   9.275 -0.1662 -0.1041  0.8874
28360SOL     OW85657   8.030   4.680   6.371 -0.1996 -0.3246  0.0040
28360SOL    HW185658   8.059   4.769   6.393  0.6115 -0.7367  0.6190
28360SOL    HW285659   8.083   4.623   6.427  0.7038 -1.3084 -1.7801
28361SOL     OW85660   2.894   0.309   1.091  0.7281  0.3052  0.2473
28361SOL    HW185661   2.885   0.214   1.099  0.4697  0.4011  1.3552
28361SOL    HW285662   2.804   0.341   1.082  0.8880  0.3741 -1.2187
28362SOL     OW85663   5.611   2.963   9.535  0.0461 -0.3007 -0.2157
28362SOL    HW185664   5.663   2.898   9.488 -1.6975 -0.1352 -2.5401
28362SOL    HW285665   5.668   3.040   9.539  1.3660 -1.2811  0.7766
28363SOL     OW85666   9.126   7.559   7.585  0.0269  0.4302 -0.4917
28363SOL    HW185667   9.051   7.515   7.624 -0.1822 -0.1595 -1.5316
28363SOL    HW285668   9.106   7.564   7.492  0.9528  0.9191 -0.6779
28364SOL     OW85669   6.014   4.197   4.747  0.0798  0.1891  0.6296
28364SOL    HW185670   6.039   4.148   4.668 -0.0013  2.1027 -0.6480
28364SOL    HW285671   6.025   4.289   4.723 -2.1788  0.9268  2.0573
28365SOL     OW85672   3.166   0.978   3.469 -0.5583  0.3914  0.4651
28365SOL    HW185673   3.225   1.040   3.426  0.5304 -0.5720  0.5117
28365SOL    HW285674   3.087   0.977   3.415  0.4853 -0.2137 -1.1043
28366SOL     OW85675   8.462   5.264   9.658 -0.1031  0.7354  0.4160
28366SOL    HW185676   8.378   5.297   9.629 -0.2813 -0.0987 -0.0517
28366SOL    HW285677   8.453   5.169   9.656  1.1377  0.6018 -0.5418
28367SOL     OW85678   6.620   7.104   3.001  0.4777  0.0230  0.1158
28367SOL    HW185679   6.630   7.142   3.088  1.2044 -0.8463  0.4245
28367SOL    HW285680   6.641   7.175   2.941 -1.4294  1.0593  0.5807
28368SOL     OW85681   1.794   0.050   9.221  0.5077 -0.4513  0.3594
28368SOL    HW185682   1.742  -0.024   9.188 -0.8722  1.2080 -1.3907
28368SOL    HW285683   1.730   0.107   9.263  1.4371  0.1743  0.9588
28369SOL     OW85684   1.817   4.841   5.776 -0.0852 -0.2566  0.2210
28369SOL    HW185685   1.865   4.924   5.769  0.3300 -0.5447 -0.4521
28369SOL    HW285686   1.884   4.774   5.760 -0.1927 -0.7767  1.8317
28370SOL     OW85687   6.231   5.168   7.296 -0.5930 -0.2907 -0.2501
28370SOL    HW185688   6.161   5.229   7.319  0.5373  1.0001 -0.1474
28370SOL    HW285689   6.312   5.214   7.317  0.3062 -2.2337  0.8846
28371SOL     OW85690   1.869   4.785   4.043  0.3523  0.0687  0.6080
28371SOL    HW185691   1.865   4.850   3.972  0.3253 -0.9748 -0.3764
28371SOL    HW285692   1.963   4.774   4.060  0.3459  0.6655  1.0861
28372SOL     OW85693   0.221   6.368   8.951 -0.6321  0.5917  0.2308
28372SOL    HW185694   0.186   6.359   8.863 -1.0543  1.8734  0.2521
28372SOL    HW285695   0.316   6.374   8.939 -0.6512  0.3136 -0.0853
28373SOL     OW85696   6.554   5.323   8.231 -0.3443  0.3176 -0.1377
28373SOL    HW185697   6.633   5.357   8.189 -0.6954 -0.6938 -1.6932
28373SOL    HW285698   6.485   5.386   8.207 -0.3243  0.3476 -0.1177
28374SOL     OW85699   1.066   0.690   1.007  0.2507  0.1390 -0.2337
28374SOL    HW185700   1.031   0.633   1.076  1.3781 -0.1493  0.1198
28374SOL    HW285701   1.002   0.761   1.001 -0.7629 -0.7230 -0.1120
28375SOL     OW85702   0.861   9.195   2.290  0.7505 -0.1913  0.1310
28375SOL    HW185703   0.795   9.262   2.307 -0.8249 -1.9859  1.4483
28375SOL    HW285704   0.925   9.206   2.360  1.7934  1.3775 -0.9952
28376SOL     OW85705   2.069   9.208   0.223 -0.1900  0.0444 -0.4322
28376SOL    HW185706   2.095   9.294   0.189 -0.3958 -0.0755 -0.8965
28376SOL    HW285707   2.100   9.146   0.157  0.9573 -0.3379  0.4352
28377SOL     OW85708   4.849   5.339   1.375  0.4070 -0.3484  0.4066
28377SOL    HW185709   4.837   5.406   1.442 -2.7826  0.0559 -0.4145
28377SOL    HW285710   4.802   5.263   1.408 -0.9366 -0.2498 -1.1542
28378SOL     OW85711   1.931   4.410   9.210  0.9331  0.8087  0.1594
28378SOL    HW185712   1.942   4.474   9.280 -0.5220  0.9759  0.2663
28378SOL    HW285713   1.983   4.335   9.239  2.5221  1.8438  0.1068
28379SOL     OW85714   7.934   6.652   0.049 -0.6813 -0.3457  0.1440
28379SOL    HW185715   7.967   6.716  -0.013  0.2222 -1.6470 -0.7707
28379SOL    HW285716   7.842   6.640   0.025 -0.5019 -0.3730 -0.5330
28380SOL     OW85717   3.072   3.960   1.505 -0.4067 -0.2856 -0.1063
28380SOL    HW185718   3.093   3.928   1.593  2.7036  1.1886 -0.1621
28380SOL    HW285719   3.027   4.043   1.520  0.0643 -0.0673  0.1130
28381SOL     OW85720   3.386   0.917   8.811  0.3041 -0.0240 -0.5469
28381SOL    HW185721   3.330   0.934   8.886 -1.2948 -0.8364 -1.5120
28381SOL    HW285722   3.338   0.953   8.736  2.5421  2.1709 -1.0889
28382SOL     OW85723   7.797   1.402   0.803  0.0230 -0.0402  0.3093
28382SOL    HW185724   7.772   1.357   0.884 -1.7126 -0.7760 -0.6080
28382SOL    HW285725   7.783   1.495   0.822 -3.8942 -0.3934 -0.2188
28383SOL     OW85726   8.768   4.192   0.068  0.6704  0.5273  0.3372
28383SOL    HW185727   8.805   4.182  -0.020 -1.9997  0.0810 -0.8377
28383SOL    HW285728   8.761   4.287   0.080  1.1536  0.5933  0.1323
28384SOL     OW85729   3.766   3.918   5.884 -0.3444 -0.0204  0.3429
28384SOL    HW185730   3.802   3.944   5.800 -0.0999  1.6665  0.9304
28384SOL    HW285731   3.681   3.878   5.863  0.8537 -2.1165 -0.8804
28385SOL     OW85732   3.081   1.591   6.511 -0.4008 -0.2654  0.4448
28385SOL    HW185733   2.992   1.566   6.483 -0.8091 -0.8694  2.1514
28385SOL    HW285734   3.125   1.507   6.528  0.5656  0.0288 -0.5322
28386SOL     OW85735   5.117   2.301   2.009 -0.1533  0.1627  0.7694
28386SOL    HW185736   5.144   2.244   2.081  1.4582  1.0393  0.8952
28386SOL    HW285737   5.197   2.320   1.961 -0.8345  1.4104  0.0541
28387SOL     OW85738   4.283   8.607   0.249 -0.0239 -0.4944 -0.1751
28387SOL    HW185739   4.321   8.550   0.316  0.6610  0.4002  0.2115
28387SOL    HW285740   4.191   8.615   0.274  0.4469  0.6952  1.3165
28388SOL     OW85741   1.906   2.593   9.783 -0.0248 -0.2078 -0.5192
28388SOL    HW185742   1.996   2.615   9.760  0.0771 -0.2827 -0.2030
28388SOL    HW285743   1.901   2.498   9.770 -0.3634 -0.0614 -1.5471
28389SOL     OW85744   4.907   5.861   9.360  0.1759 -0.0857  0.6218
28389SOL    HW185745   4.945   5.835   9.444 -0.8675 -0.7864  0.8928
28389SOL    HW285746   4.931   5.790   9.300 -1.0411 -0.7538  0.8992
28390SOL     OW85747   2.516   8.957   6.398  0.0255  0.3937  0.3604
28390SOL    HW185748   2.446   9.022   6.406  2.2632  2.8344  1.5771
28390SOL    HW285749   2.523   8.919   6.485 -0.6364 -0.9093 -0.1152
28391SOL     OW85750   4.548   3.306   0.915 -0.1464 -0.2093 -0.6527
28391SOL    HW185751   4.494   3.249   0.860 -1.0721 -1.8598  1.7925
28391SOL    HW285752   4.555   3.260   0.999  2.9556  1.1704  0.0085
28392SOL     OW85753   4.019   4.803   5.060  0.6075 -0.6682 -0.5329
28392SOL    HW185754   4.057   4.732   5.110  0.9113  0.3974  0.8213
28392SOL    HW285755   3.925   4.789   5.065  0.6733 -2.6292 -2.8689
28393SOL     OW85756   0.563   4.266   8.279  0.4476  0.3454  0.1231
28393SOL    HW185757   0.564   4.307   8.366  0.5706 -0.4840  0.5323
28393SOL    HW285758   0.632   4.309   8.231  1.0200  0.1658  0.7650
28394SOL     OW85759   8.554   4.917   3.744 -0.4864 -0.3617 -0.0410
28394SOL    HW185760   8.638   4.942   3.707 -0.8480 -0.3055 -0.8685
28394SOL    HW285761   8.537   4.830   3.707 -0.1171 -1.0338  1.2979
28395SOL     OW85762   9.961   2.649   4.896 -0.5915 -0.2661 -0.3860
28395SOL    HW185763   9.970   2.554   4.889  2.8580 -0.0208 -1.2721
28395SOL    HW285764   9.933   2.663   4.987 -0.9410 -2.1099 -0.1627
28396SOL     OW85765   4.617   8.459   7.388  0.1662 -0.4209  0.5797
28396SOL    HW185766   4.656   8.463   7.301 -0.0423 -0.3076  0.4898
28396SOL    HW285767   4.542   8.400   7.378 -0.1656  0.0009  0.5586
28397SOL     OW85768   5.613   0.563   6.233  0.0761 -0.0966  0.1296
28397SOL    HW185769   5.521   0.538   6.225 -0.4135  1.5747  0.2885
28397SOL    HW285770   5.654   0.487   6.273 -1.8680  0.3116  3.2385
28398SOL     OW85771   7.658   5.302   6.809 -0.4629 -0.4809  0.0307
28398SOL    HW185772   7.652   5.370   6.875 -0.8649  1.1420 -1.5903
28398SOL    HW285773   7.752   5.295   6.790 -0.5618  1.2364 -1.3229
28399SOL     OW85774   0.003   7.616   0.423 -0.4669 -0.2609  0.0111
28399SOL    HW185775   0.047   7.617   0.339  0.4133  0.4156  0.4725
28399SOL    HW285776   0.018   7.528   0.457 -0.6323 -0.4613 -0.4261
28400SOL     OW85777   3.601   6.681   4.254  0.1436 -0.2179  0.1585
28400SOL    HW185778   3.691   6.655   4.275  0.5439 -0.0398 -1.2392
28400SOL    HW285779   3.566   6.607   4.205 -0.0449  0.2461 -0.4107
28401SOL     OW85780   3.988   1.927   0.215 -0.6221 -0.0904  0.0960
28401SOL    HW185781   3.998   1.861   0.146 -1.0805  1.9639 -2.0541
28401SOL    HW285782   4.036   2.003   0.183 -0.1414  0.6851  2.4767
28402SOL     OW85783   3.885   3.123   2.484  0.0978  0.2675 -0.2589
28402SOL    HW185784   3.847   3.089   2.565  1.8524 -0.6027  0.2447
28402SOL    HW285785   3.979   3.109   2.493  0.6077  2.4456 -1.3947
28403SOL     OW85786   3.900   4.430   1.924 -0.2558 -0.2342 -0.1447
28403SOL    HW185787   3.867   4.446   2.012 -1.6370  1.2763 -0.8778
28403SOL    HW285788   3.861   4.347   1.898  0.6445 -0.9911  0.8691
28404SOL     OW85789   4.097   5.430   7.719 -0.7621  0.1494 -0.4495
28404SOL    HW185790   4.096   5.402   7.810  1.1937 -0.9341 -0.7193
28404SOL    HW285791   4.140   5.516   7.720 -1.8724  0.7166 -0.2338
28405SOL     OW85792   3.543   9.732   2.425 -0.6880 -0.4709  0.4226
28405SOL    HW185793   3.605   9.763   2.359 -1.6213  1.7682  0.4816
28405SOL    HW285794   3.596   9.720   2.504 -0.1607  0.7210  0.2836
28406SOL     OW85795   3.785   9.690   5.627 -0.0678  0.0838 -0.0803
28406SOL    HW185796   3.871   9.704   5.589  0.3847 -0.6462  0.6261
28406SOL    HW285797   3.746   9.619   5.575  0.0671 -0.0996  0.0666
28407SOL     OW85798   6.161   6.573   4.734 -0.4844  0.3292 -0.3221
28407SOL    HW185799   6.147   6.584   4.640 -0.3131  0.3321 -0.3482
28407SOL    HW285800   6.152   6.661   4.770  1.5995  0.7175 -0.6263
28408SOL     OW85801   8.208   4.595   7.562  0.5600 -0.0629  0.1493
28408SOL    HW185802   8.220   4.666   7.625 -0.0177 -1.2859  1.7348
28408SOL    HW285803   8.113   4.592   7.547  0.5735 -0.5036  0.1237
28409SOL     OW85804   9.016   8.317   2.771  0.1858 -0.0338 -0.1133
28409SOL    HW185805   9.019   8.375   2.695  0.4256  0.8761  0.5841
28409SOL    HW285806   9.028   8.229   2.734  0.0230  0.3669 -1.1529
28410SOL     OW85807   4.702   6.645   5.009  0.1201  0.6760 -0.5386
28410SOL    HW185808   4.745   6.623   4.926 -0.6839 -2.7074 -0.1977
28410SOL    HW285809   4.762   6.612   5.076 -1.7155 -1.8570 -0.0090
28411SOL     OW85810   2.892   5.070   4.064  0.0723 -0.1522  0.4540
28411SOL    HW185811   2.954   5.002   4.040  1.1066  1.7978 -2.9215
28411SOL    HW285812   2.945   5.147   4.084 -1.0568  1.5282 -2.3730
28412SOL     OW85813   4.005   6.733   4.720  0.4851  0.1673  0.1652
28412SOL    HW185814   4.100   6.745   4.731  0.7165  1.9690 -2.7198
28412SOL    HW285815   3.966   6.800   4.777  1.0484  0.9851 -0.3942
28413SOL     OW85816   8.245   2.511   0.326 -0.2715  0.1584 -0.2890
28413SOL    HW185817   8.241   2.601   0.295  0.0528  0.7221  1.2085
28413SOL    HW285818   8.157   2.492   0.356  0.2014  0.9089  1.7532
28414SOL     OW85819   3.102   4.196   0.052  0.0947 -0.1538 -0.1750
28414SOL    HW185820   3.126   4.218  -0.038  1.4876  1.7636  0.6026
28414SOL    HW285821   3.182   4.160   0.091 -0.0838  0.3271  0.6708
28415SOL     OW85822   2.840   8.056   3.106 -0.2950  0.1669 -0.0792
28415SOL    HW185823   2.749   8.039   3.132 -0.6573  1.9939  0.0030
28415SOL    HW285824   2.885   7.973   3.120 -1.7689 -0.5484  0.6821
28416SOL     OW85825   8.272   7.793   8.912  0.4127  0.0914 -0.1848
28416SOL    HW185826   8.303   7.776   9.001 -1.0241  1.1320  0.5732
28416SOL    HW285827   8.180   7.820   8.924  0.1845  0.2288 -1.9863
28417SOL     OW85828   9.071   1.375   9.778  0.1583 -0.4097  0.3723
28417SOL    HW185829   8.983   1.399   9.807  0.0944 -0.0667 -0.1047
28417SOL    HW285830   9.116   1.347   9.858  0.4423  1.8480  1.0753
28418SOL     OW85831   2.743   2.667   5.752  0.6313 -0.1453  0.3278
28418SOL    HW185832   2.727   2.617   5.832 -1.3185 -0.4996 -0.2173
28418SOL    HW285833   2.713   2.609   5.681  2.3657  0.1338 -0.6869
28419SOL     OW85834   5.981   1.608   2.425 -0.2310 -0.0409 -0.0419
28419SOL    HW185835   6.075   1.597   2.441  0.0498  1.3703 -0.5323
28419SOL    HW285836   5.939   1.553   2.491  0.9363 -0.4067  0.4290
28420SOL     OW85837   1.521   9.512   2.850  0.0168 -0.4499 -0.5943
28420SOL    HW185838   1.572   9.461   2.913 -1.5035 -1.8379 -0.4125
28420SOL    HW285839   1.526   9.462   2.769 -0.9284 -0.5761 -0.5965
28421SOL     OW85840   3.879   0.487   8.564 -0.0855 -0.8675  0.5081
28421SOL    HW185841   3.823   0.465   8.489 -0.4129  2.5195 -0.4074
28421SOL    HW285842   3.968   0.478   8.530 -0.1560 -2.1883  0.6490
28422SOL     OW85843   5.568   0.826   1.505 -0.5804 -0.7921 -0.4227
28422SOL    HW185844   5.479   0.854   1.524  0.0939  0.6752  0.7280
28422SOL    HW285845   5.617   0.846   1.585  0.8810 -1.1475 -1.1983
28423SOL     OW85846   3.160   6.838   2.165 -0.1434  0.2139 -0.0410
28423SOL    HW185847   3.115   6.754   2.165  1.5665 -0.7834 -1.4753
28423SOL    HW285848   3.223   6.832   2.236 -0.3887  0.5040  0.2024
28424SOL     OW85849   6.653   7.937   6.153 -0.4315  0.0577  0.5139
28424SOL    HW185850   6.635   8.008   6.092  0.0640 -0.7617 -0.6366
28424SOL    HW285851   6.726   7.969   6.206 -0.3781  0.5114  0.1742
28425SOL     OW85852   7.631   0.860   2.467  0.0290  1.0375 -0.5023
28425SOL    HW185853   7.666   0.841   2.380  1.5089  2.2054 -0.2112
28425SOL    HW285854   7.660   0.949   2.485 -0.8989  1.0913  0.8946
28426SOL     OW85855   4.470   0.557   8.475 -0.6882 -0.1085 -0.0376
28426SOL    HW185856   4.465   0.586   8.384 -1.0029  0.8677  0.2785
28426SOL    HW285857   4.484   0.638   8.525  0.1146 -0.7017  0.7305
28427SOL     OW85858   3.711   6.331   6.078 -0.7806 -0.1318  0.2450
28427SOL    HW185859   3.629   6.371   6.107 -1.4487 -0.4305 -1.1505
28427SOL    HW285860   3.766   6.329   6.156 -1.6806  1.1203  0.9456
28428SOL     OW85861   4.278   3.342   2.844 -0.7387 -0.5049  0.4516
28428SOL    HW185862   4.295   3.434   2.864  1.4940 -1.2839  2.6631
28428SOL    HW285863   4.207   3.317   2.902 -0.9594 -0.3269  0.2602
28429SOL     OW85864   1.073   6.329   7.733 -0.5936 -0.1354  0.1861
28429SOL    HW185865   1.134   6.390   7.692 -1.4490  0.4772 -0.2031
28429SOL    HW285866   1.014   6.303   7.663 -0.7627 -0.7538  0.5500
28430SOL     OW85867   7.020   3.521   4.639 -0.2136 -0.1925  0.1650
28430SOL    HW185868   6.943   3.576   4.648 -0.4755 -0.5701  0.2627
28430SOL    HW285869   7.039   3.492   4.729 -0.7642 -1.1792 -0.0197
28431SOL     OW85870   8.753   8.720   1.228 -0.2424  0.8998 -0.4016
28431SOL    HW185871   8.694   8.796   1.233 -1.8752 -0.3948  2.0253
28431SOL    HW285872   8.816   8.733   1.298  0.7855  1.0073 -1.3305
28432SOL     OW85873   0.923   0.404   5.341  0.0279  0.0600 -0.2919
28432SOL    HW185874   0.891   0.491   5.364  0.4392  0.2140 -0.2818
28432SOL    HW285875   0.995   0.420   5.280  1.1088 -0.1890  0.8777
28433SOL     OW85876   1.292   1.881   6.261  0.5460  0.1685 -0.3269
28433SOL    HW185877   1.209   1.909   6.222 -0.3022 -2.8822 -0.9473
28433SOL    HW285878   1.272   1.866   6.353  0.4644 -0.3284 -0.4241
28434SOL     OW85879   6.923   1.240   5.024 -0.8119 -0.3981 -0.2624
28434SOL    HW185880   6.984   1.261   5.095  0.6467  0.3693 -1.6735
28434SOL    HW285881   6.839   1.231   5.067 -0.0070  0.2441  1.5465
28435SOL     OW85882   1.002   8.922   6.711  0.5806 -0.1249 -0.0328
28435SOL    HW185883   1.068   8.932   6.779  0.3209 -2.6701  0.6928
28435SOL    HW285884   0.944   8.853   6.743 -0.7284  0.0016 -1.9442
28436SOL     OW85885   0.341   6.889   7.438  0.2291 -0.1359 -0.5258
28436SOL    HW185886   0.392   6.962   7.473 -0.5458 -0.4580  1.4157
28436SOL    HW285887   0.324   6.833   7.515 -3.3510  0.1448 -0.9690
28437SOL     OW85888   8.258   9.013   7.228  0.2329 -0.6037  0.0209
28437SOL    HW185889   8.215   8.928   7.223  1.1223 -1.1409  1.1106
28437SOL    HW285890   8.330   9.008   7.164  1.5455 -1.4654  1.4812
28438SOL     OW85891   5.476   4.068   2.908  0.0318  0.0657  0.3375
28438SOL    HW185892   5.436   4.099   2.826  0.6266 -0.9960 -0.3825
28438SOL    HW285893   5.568   4.054   2.886  0.4818  0.9689  1.5569
28439SOL     OW85894   0.831   2.779   6.239  0.2837  0.1492  0.2562
28439SOL    HW185895   0.909   2.792   6.186 -1.2478 -0.1270 -2.2482
28439SOL    HW285896   0.773   2.851   6.214 -1.1239 -0.9349  0.2722
28440SOL     OW85897   2.914   0.943   0.821 -0.5154  0.2526  0.0145
28440SOL    HW185898   3.003   0.932   0.786 -0.6732  1.9974 -1.0968
28440SOL    HW285899   2.923   0.928   0.915  1.2650  1.6851  0.1461
28441SOL     OW85900   0.351   1.011   6.845  0.1412 -0.1555 -0.0524
28441SOL    HW185901   0.291   1.044   6.779 -0.2618 -2.5264 -0.9544
28441SOL    HW285902   0.421   0.968   6.796  0.7852 -0.4128  1.0374
28442SOL     OW85903   1.701   7.401   9.438  0.2096 -0.4456  0.1259
28442SOL    HW185904   1.668   7.465   9.502  0.4357 -0.7545  0.5522
28442SOL    HW285905   1.660   7.318   9.464 -1.6855 -0.1424 -1.6057
28443SOL     OW85906   3.460   1.909   8.419 -0.9577 -0.0876  0.2874
28443SOL    HW185907   3.393   1.959   8.465 -2.6376  0.6071 -2.6580
28443SOL    HW285908   3.487   1.965   8.347 -0.6947 -2.2055 -1.3703
28444SOL     OW85909   0.121   7.131   4.221  0.2527 -0.2747 -0.3644
28444SOL    HW185910   0.189   7.120   4.155 -0.3548 -0.2156 -1.0154
28444SOL    HW285911   0.046   7.083   4.185 -0.4279  0.6893 -0.2430
28445SOL     OW85912   5.161   8.131   9.779 -0.2709 -0.4713 -1.1015
28445SOL    HW185913   5.235   8.078   9.750  0.2865  0.5182 -1.5345
28445SOL    HW285914   5.122   8.166   9.699  0.6755  1.4837 -0.7789
28446SOL     OW85915   5.882   3.411   0.122  0.5396 -0.2040  0.2647
28446SOL    HW185916   5.815   3.460   0.169 -0.1973  0.0765 -1.0246
28446SOL    HW285917   5.961   3.466   0.127  0.0351  0.5812 -0.1792
28447SOL     OW85918   4.741   7.005   6.364 -0.2681  0.2263 -0.3892
28447SOL    HW185919   4.770   6.979   6.451  0.4786  1.2601 -0.3090
28447SOL    HW285920   4.663   7.058   6.380  0.3116  1.0716 -0.2665
28448SOL     OW85921   3.185   1.753   1.095  0.1296  0.6797  0.2924
28448SOL    HW185922   3.147   1.694   1.030  1.8699 -0.4722  0.2351
28448SOL    HW285923   3.112   1.778   1.151 -1.1441  0.5688 -1.2519
28449SOL     OW85924   3.878   8.174   1.065 -0.6855  0.1940  0.0077
28449SOL    HW185925   3.968   8.199   1.088 -0.0454 -0.4551 -1.6752
28449SOL    HW285926   3.855   8.106   1.128  0.1590  0.0604  0.1816
28450SOL     OW85927   6.840   2.925   3.138  0.6658  0.5512 -0.3804
28450SOL    HW185928   6.803   3.012   3.128  0.6420  0.3681 -2.2784
28450SOL    HW285929   6.869   2.921   3.229 -2.3189  1.3320  0.7131
28451SOL     OW85930   2.694   4.730   9.315  0.0638  0.3800  0.2571
28451SOL    HW185931   2.607   4.755   9.283 -0.6321 -1.6978  0.3846
28451SOL    HW285932   2.735   4.688   9.240  0.1738 -0.4431  0.7703
28452SOL     OW85933   0.481   9.181   9.018  0.5828 -0.1475 -0.1503
28452SOL    HW185934   0.416   9.168   9.087 -0.0198  0.8471 -0.5100
28452SOL    HW285935   0.565   9.172   9.063  0.2177  1.5266  0.9751
28453SOL     OW85936   6.649   6.205   5.955 -0.7703 -0.3056  0.1446
28453SOL    HW185937   6.722   6.148   5.929 -1.2215 -0.7478 -0.1709
28453SOL    HW285938   6.682   6.252   6.032  0.3603  0.5522 -0.8178
28454SOL     OW85939   8.463   3.313   9.797  0.0479 -0.2018 -0.0659
28454SOL    HW185940   8.543   3.357   9.768 -0.3949  0.3913 -0.4086
28454SOL    HW285941   8.392   3.369   9.766 -0.5125 -0.8654 -0.0115
28455SOL     OW85942   3.941   3.453   6.652  0.5428  0.7184  0.8963
28455SOL    HW185943   4.023   3.497   6.673  0.4605  1.6317 -0.5262
28455SOL    HW285944   3.911   3.495   6.572 -0.6817 -0.4618  0.6862
28456SOL     OW85945   4.247   9.396   3.971  0.2417  0.1916 -0.0194
28456SOL    HW185946   4.155   9.371   3.966  0.0104  1.0094  0.1238
28456SOL    HW285947   4.269   9.390   4.064  0.3596 -0.0722 -0.0616
28457SOL     OW85948   0.543   1.112   2.882  0.5900  0.2118  0.0763
28457SOL    HW185949   0.502   1.030   2.911 -0.2235  0.6796  0.2742
28457SOL    HW285950   0.478   1.153   2.825  1.3294  0.3253 -0.7134
28458SOL     OW85951   3.846   7.186   9.784 -0.1348  0.0507 -0.6469
28458SOL    HW185952   3.876   7.194   9.693  1.0608 -0.4005 -0.3233
28458SOL    HW285953   3.845   7.092   9.800  2.2232  0.1501  0.5627
28459SOL     OW85954   8.932   3.334   5.068  0.1003  0.2641  0.1630
28459SOL    HW185955   8.963   3.276   4.999 -1.4660  1.4768 -1.6490
28459SOL    HW285956   8.874   3.279   5.121  0.1397 -0.2992 -0.3704
28460SOL     OW85957   9.267   1.397   7.740 -0.6422 -0.4154  0.0091
28460SOL    HW185958   9.233   1.308   7.747 -3.3419  0.5408  0.2303
28460SOL    HW285959   9.245   1.438   7.824 -1.3882  1.0560 -0.8730
28461SOL     OW85960   6.681   7.539   1.718 -0.4124  0.4473  0.6852
28461SOL    HW185961   6.603   7.591   1.697  0.5393  2.4041  1.7799
28461SOL    HW285962   6.706   7.567   1.806  0.6953 -1.2302  0.9584
28462SOL     OW85963   3.208   7.369   3.743 -0.0331  0.7957  0.3859
28462SOL    HW185964   3.185   7.436   3.679  0.9269  0.6875 -0.0896
28462SOL    HW285965   3.269   7.311   3.697 -2.5098 -1.7425 -0.0042
28463SOL     OW85966   7.706   4.914   2.774  0.3888 -0.6976 -0.1089
28463SOL    HW185967   7.787   4.928   2.724 -1.0717 -0.7711 -2.6520
28463SOL    HW285968   7.657   4.851   2.722 -1.0027 -1.2827  1.8044
28464SOL     OW85969   2.565   0.740   6.098  0.7983  0.1249 -0.0078
28464SOL    HW185970   2.604   0.807   6.042  0.9886 -2.1115 -2.7986
28464SOL    HW285971   2.523   0.789   6.168  2.0381  3.0452 -1.1236
28465SOL     OW85972   1.999   8.587   8.903  0.1986 -0.2495 -0.5683
28465SOL    HW185973   2.086   8.601   8.939 -1.0810  0.7199  2.4195
28465SOL    HW285974   1.976   8.498   8.930 -0.6462  0.3741  0.8885
28466SOL     OW85975   4.690   0.299   2.595  0.4245  0.2108  0.1242
28466SOL    HW185976   4.732   0.360   2.535  1.2037  0.8117  1.2422
28466SOL    HW285977   4.763   0.256   2.640 -0.1211 -1.1180 -0.2067
28467SOL     OW85978   6.315   8.119   7.223 -0.2941  0.6491 -0.2886
28467SOL    HW185979   6.310   8.039   7.275  0.4272  0.6265 -0.2452
28467SOL    HW285980   6.224   8.139   7.200 -0.4348 -0.5363 -0.8263
28468SOL     OW85981   7.969   4.089   8.778  0.0950  0.1208  0.2572
28468SOL    HW185982   7.997   4.180   8.764  0.7760 -0.3502 -1.5885
28468SOL    HW285983   8.027   4.057   8.847  0.4262  0.8255  0.3205
28469SOL     OW85984   4.645   1.528   1.282 -0.6566 -0.5206 -0.7514
28469SOL    HW185985   4.736   1.501   1.285 -0.6479 -0.4382 -0.1216
28469SOL    HW285986   4.647   1.620   1.254 -0.4641 -0.2011  0.2420
28470SOL     OW85987   0.131   1.763   4.773  1.2094 -0.0321  0.1180
28470SOL    HW185988   0.049   1.752   4.725  0.6222 -0.2003  1.1452
28470SOL    HW285989   0.127   1.700   4.844  2.7556 -0.8666 -0.4820
28471SOL     OW85990   8.479   8.508   4.852  0.3104  0.2704  0.0781
28471SOL    HW185991   8.398   8.554   4.874  0.4178  0.3547  0.2959
28471SOL    HW285992   8.514   8.479   4.936  0.9752  1.0112  0.0611
28472SOL     OW85993   3.110   2.952   8.224  0.4580 -0.1938 -0.0825
28472SOL    HW185994   3.078   3.017   8.162  2.1719  0.5762 -0.2292
28472SOL    HW285995   3.114   2.870   8.174 -0.9150 -0.2507 -0.1337
28473SOL     OW85996   1.439   7.081   0.992  0.4623  0.0129 -0.6937
28473SOL    HW185997   1.529   7.048   0.987 -0.1313 -1.5959 -1.4031
28473SOL    HW285998   1.433   7.121   1.079  2.5564  2.4052 -1.5049
28474SOL     OW85999   5.643   9.560   9.511  0.9955 -0.1986 -0.3291
28474SOL    HW186000   5.652   9.654   9.527 -0.0190  0.2558 -2.0957
28474SOL    HW286001   5.722   9.536   9.462  0.7803 -0.0415 -0.7552
28475SOL     OW86002   1.349   5.136   5.230 -0.2793  0.5091 -0.5506
28475SOL    HW186003   1.407   5.078   5.278 -2.8211 -2.6539 -0.8917
28475SOL    HW286004   1.387   5.223   5.239  3.5125 -1.0816  0.5121
28476SOL     OW86005   4.971   1.207   0.901  0.2196  0.5168 -0.7823
28476SOL    HW186006   5.048   1.224   0.846 -0.0569  0.5873 -1.1544
28476SOL    HW286007   4.911   1.279   0.881  0.5418  1.1383  0.4127
28477SOL     OW86008   1.556   7.359   4.927 -0.2223 -0.2150 -0.5285
28477SOL    HW186009   1.513   7.280   4.959 -1.1173 -0.2910 -1.8222
28477SOL    HW286010   1.489   7.427   4.933  1.0452  0.9357  2.2321
28478SOL     OW86011   8.520   4.419   5.645  0.0050 -0.7779 -0.0844
28478SOL    HW186012   8.435   4.389   5.611 -1.3160  1.2600  1.1918
28478SOL    HW286013   8.563   4.459   5.570 -1.0386 -0.0763 -0.3288
28479SOL     OW86014   2.874   5.610   0.238  0.6543  0.3947 -0.5416
28479SOL    HW186015   2.929   5.578   0.167 -1.3012 -1.3249 -1.3759
28479SOL    HW286016   2.928   5.677   0.281  2.3828  0.6162 -2.8314
28480SOL     OW86017   7.242   6.299   0.564 -0.0438  0.2064 -0.4170
28480SOL    HW186018   7.258   6.205   0.568 -0.5053  0.1644  1.0099
28480SOL    HW286019   7.178   6.316   0.633  0.3793  1.6349 -0.3293
28481SOL     OW86020   1.460   7.130   6.423 -0.3984  0.6798  0.3396
28481SOL    HW186021   1.366   7.113   6.409 -0.5366  2.4208 -1.3056
28481SOL    HW286022   1.462   7.206   6.480  0.0030  0.6903  0.3146
28482SOL     OW86023   4.842   9.037   8.273  0.2204 -0.3625  0.3059
28482SOL    HW186024   4.919   9.065   8.322 -0.5366  0.7130  0.9270
28482SOL    HW286025   4.781   9.004   8.339  0.2983 -1.6095 -0.2189
28483SOL     OW86026   0.397   5.687   4.900 -0.3890  0.4947 -0.2900
28483SOL    HW186027   0.438   5.671   4.816  1.8167 -1.5123  1.0493
28483SOL    HW286028   0.468   5.717   4.957 -1.7021  1.2696  1.0185
28484SOL     OW86029   6.334   9.185   4.910 -0.9348 -0.4371  0.5016
28484SOL    HW186030   6.305   9.158   4.823 -0.8967 -1.0581  0.6792
28484SOL    HW286031   6.344   9.104   4.958 -0.3598 -0.1296  0.9050
28485SOL     OW86032   5.657   0.158   8.433  0.5312  0.0966  0.3726
28485SOL    HW186033   5.568   0.137   8.463  0.2320 -1.2908 -1.3202
28485SOL    HW286034   5.715   0.124   8.501 -0.1928 -0.2182  0.8444
28486SOL     OW86035   9.799   2.988   3.149 -0.6953  0.1366 -0.1982
28486SOL    HW186036   9.789   2.913   3.092 -1.4265 -1.2232  1.6211
28486SOL    HW286037   9.718   3.037   3.139  0.0076  1.0636 -1.8110
28487SOL     OW86038   8.319   7.303   1.008 -0.0637 -0.0281 -0.0705
28487SOL    HW186039   8.300   7.330   0.918  0.5230  0.4967 -0.0393
28487SOL    HW286040   8.412   7.319   1.020 -0.2242  0.3491  0.7829
28488SOL     OW86041   3.083   2.583   8.692  0.0837 -0.1965 -0.2918
28488SOL    HW186042   3.143   2.563   8.763  0.2679  0.6219 -0.2141
28488SOL    HW286043   3.069   2.499   8.648  1.1843 -0.4116 -0.2413
28489SOL     OW86044   9.279   0.852   7.936 -0.6638  0.3201 -0.7199
28489SOL    HW186045   9.283   0.807   7.852  0.9965 -1.3824  0.1929
28489SOL    HW286046   9.204   0.813   7.981 -2.2200  1.9894 -1.7501
28490SOL     OW86047   0.392   3.675   3.685  0.6190 -0.6159  0.1944
28490SOL    HW186048   0.390   3.754   3.739 -2.9516 -0.8093  0.5411
28490SOL    HW286049   0.370   3.705   3.597 -2.0542 -1.2602  0.5668
28491SOL     OW86050   5.099   2.593   3.399 -0.3457 -0.2301 -0.5964
28491SOL    HW186051   5.095   2.519   3.339 -0.5879 -1.7513  1.2123
28491SOL    HW286052   5.070   2.558   3.483 -3.2253  2.5427 -0.2146
28492SOL     OW86053   8.491   7.118   5.929 -0.5225  0.0388  0.1003
28492SOL    HW186054   8.577   7.152   5.905 -1.1446  2.2520  0.6941
28492SOL    HW286055   8.456   7.082   5.848  0.2182  0.8877 -0.6296
28493SOL     OW86056   1.370   9.375   4.706  0.1761  0.2376 -0.1421
28493SOL    HW186057   1.422   9.451   4.733  0.7842  1.4226 -4.0921
28493SOL    HW286058   1.289   9.412   4.672 -0.6543 -1.1332  0.2781
28494SOL     OW86059   3.732   5.849   8.768  0.3712  0.1604  0.0191
28494SOL    HW186060   3.657   5.793   8.745  0.1242  0.7049 -0.5367
28494SOL    HW286061   3.801   5.823   8.707 -0.3160  1.6745 -1.4826
28495SOL     OW86062   6.443   0.908   1.592 -0.2768  0.3123 -0.5220
28495SOL    HW186063   6.454   0.888   1.685 -2.5445  0.7198 -0.1176
28495SOL    HW286064   6.486   0.992   1.580  0.0219  0.2642  0.1687
28496SOL     OW86065   3.363   3.101   6.073  0.1450 -0.2068 -0.3325
28496SOL    HW186066   3.286   3.050   6.098 -0.5904  1.0467  0.0601
28496SOL    HW286067   3.328   3.183   6.039  1.2915  0.8097  0.7840
28497SOL     OW86068   5.626   1.672   4.861  0.0729  0.1292 -0.0723
28497SOL    HW186069   5.671   1.648   4.780 -1.0649  0.4272 -0.8175
28497SOL    HW286070   5.643   1.598   4.921  0.6153 -0.2593 -0.6920
28498SOL     OW86071   2.671   6.172   5.009 -0.6929  0.2464  0.3194
28498SOL    HW186072   2.592   6.127   4.978  0.6968 -1.8566 -0.3447
28498SOL    HW286073   2.645   6.264   5.015 -2.4498  0.0390 -2.4863
28499SOL     OW86074   4.658   8.807   0.136 -0.0233  0.3555  0.0964
28499SOL    HW186075   4.663   8.754   0.216 -3.1562  0.0197  0.1886
28499SOL    HW286076   4.697   8.752   0.068  0.9293 -0.1374  1.0142
28500SOL     OW86077   3.618   0.152   7.494 -0.3841  0.0344 -0.3937
28500SOL    HW186078   3.646   0.142   7.403  0.2037  0.9202 -0.3192
28500SOL    HW286079   3.618   0.063   7.529 -0.9550 -0.3624 -1.3499
28501SOL     OW86080   7.260   1.058   1.234  0.0852  0.0723 -0.7623
28501SOL    HW186081   7.327   1.012   1.284 -0.2831 -1.0673 -1.2652
28501SOL    HW286082   7.307   1.099   1.161  0.4339  0.5894 -0.2538
28502SOL     OW86083   0.198   7.867   6.164  0.6126 -0.3089  0.1746
28502SOL    HW186084   0.185   7.790   6.218 -0.0866  0.4371  1.1179
28502SOL    HW286085   0.271   7.914   6.205 -1.7350  1.7757  2.4252
28503SOL     OW86086   6.788   5.704   5.254  0.5487 -0.4966 -0.1611
28503SOL    HW186087   6.838   5.658   5.322  1.2165  0.2841 -0.1019
28503SOL    HW286088   6.701   5.716   5.292  0.2946 -1.8753 -0.2639
28504SOL     OW86089   0.366   9.352   6.467 -0.5260 -0.2312 -0.0533
28504SOL    HW186090   0.358   9.270   6.516  1.6394  0.3771  1.4706
28504SOL    HW286091   0.282   9.362   6.423 -1.6870 -2.0878  1.5823
28505SOL     OW86092   3.039   2.128   7.318  0.0439  0.0285  0.2924
28505SOL    HW186093   3.081   2.191   7.377  0.5556 -1.2950  1.3797
28505SOL    HW286094   3.111   2.084   7.274 -0.2598 -0.8198  0.6325
28506SOL     OW86095   2.154   5.377  -0.037 -0.3291  0.0373 -0.5999
28506SOL    HW186096   2.122   5.448   0.019  1.8944 -0.6700  1.7799
28506SOL    HW286097   2.157   5.300   0.021  1.9270 -0.7811 -1.6894
28507SOL     OW86098   8.220   3.613   1.064  0.5040 -0.3700 -0.0322
28507SOL    HW186099   8.229   3.681   0.998  0.4285 -0.9979 -0.7032
28507SOL    HW286100   8.150   3.557   1.031 -0.2256 -0.1398  1.0755
28508SOL     OW86101   3.904   0.214   5.215  0.0377 -0.2370  0.1299
28508SOL    HW186102   3.885   0.196   5.307 -0.6170 -1.2045 -0.1794
28508SOL    HW286103   3.831   0.176   5.167 -0.5004  1.7235 -0.7169
28509SOL     OW86104   9.116   8.540   7.843  0.2078  0.4287  0.1647
28509SOL    HW186105   9.021   8.535   7.831 -0.0219 -2.0036  2.1939
28509SOL    HW286106   9.152   8.521   7.757 -1.1041  1.6747 -0.7107
28510SOL     OW86107   7.195   2.179   5.889 -0.3746  0.0090 -0.4793
28510SOL    HW186108   7.232   2.151   5.973 -0.0605 -0.2006 -0.6849
28510SOL    HW286109   7.267   2.167   5.827 -1.2916 -1.9981 -1.2035
28511SOL     OW86110   4.535   0.149   4.200 -0.0053 -0.3565  0.2697
28511SOL    HW186111   4.532   0.223   4.139 -0.8601  0.4554  1.2684
28511SOL    HW286112   4.497   0.076   4.151  1.5061 -0.3625 -0.9763
28512SOL     OW86113   6.199   3.035   5.645  0.6657  0.1983  0.1466
28512SOL    HW186114   6.218   3.007   5.734  1.9047 -1.2099 -0.5116
28512SOL    HW286115   6.128   2.977   5.616  0.0846  0.8270  0.2910
28513SOL     OW86116   3.129   3.183   1.019  0.1695  0.8483  0.1097
28513SOL    HW186117   3.098   3.271   0.996  0.4005  0.8271 -0.2764
28513SOL    HW286118   3.056   3.145   1.068 -0.8098  0.4551 -1.5791
28514SOL     OW86119   7.955   4.975   8.117 -0.7701 -0.7597 -0.8797
28514SOL    HW186120   8.043   5.006   8.140 -1.5265  0.1508  1.0608
28514SOL    HW286121   7.951   4.887   8.153 -0.8100 -0.6005 -0.4839
28515SOL     OW86122   2.505   3.566   6.901  0.3667  0.1305 -0.0423
28515SOL    HW186123   2.483   3.616   6.823  0.7828 -1.2969 -1.0994
28515SOL    HW286124   2.421   3.533   6.933  0.4025 -1.5058 -1.4666
28516SOL     OW86125   2.083   3.036   6.082 -0.0022 -0.0808 -0.0474
28516SOL    HW186126   2.127   3.064   6.002 -1.1005 -1.2060 -1.0946
28516SOL    HW286127   2.147   3.049   6.151  1.9004 -1.4394 -1.4623
28517SOL     OW86128   5.367   9.901   3.036  0.3975  0.6415 -0.0873
28517SOL    HW186129   5.289   9.878   3.087  0.3905  0.3463 -0.2296
28517SOL    HW286130   5.398   9.982   3.075 -0.0710  0.8414 -0.1274
28518SOL     OW86131   2.501   0.470   7.204 -0.1645 -0.2718 -0.5450
28518SOL    HW186132   2.489   0.553   7.158 -0.5354 -0.5637 -0.9893
28518SOL    HW286133   2.418   0.425   7.193  0.4729 -1.2715 -1.4912
28519SOL     OW86134   5.887   5.546   8.197  0.1435 -0.5155  0.0258
28519SOL    HW186135   5.946   5.498   8.255 -2.0548 -1.0986  1.9338
28519SOL    HW286136   5.880   5.492   8.119 -0.0393 -1.8753  0.9451
28520SOL     OW86137   4.695   0.929   5.620  0.5414 -0.0527  0.3484
28520SOL    HW186138   4.664   1.010   5.661 -0.9161  0.0866 -0.9540
28520SOL    HW286139   4.660   0.859   5.675  0.7362  0.1686  0.7594
28521SOL     OW86140   7.767   7.511   0.176 -0.1841  0.1906  0.8310
28521SOL    HW186141   7.820   7.438   0.145  0.3662  0.7854  0.3269
28521SOL    HW286142   7.770   7.504   0.271  0.2480 -0.1748  0.7971
28522SOL     OW86143   2.824   6.433   7.110  0.3328 -0.0736  0.2150
28522SOL    HW186144   2.830   6.338   7.122 -0.7312 -0.5403 -2.2161
28522SOL    HW286145   2.906   6.456   7.066  1.0598  0.3529  1.7477
28523SOL     OW86146   3.409   2.761   1.791  0.1063 -0.3663 -0.2711
28523SOL    HW186147   3.427   2.668   1.783  0.4087 -0.1916 -2.0271
28523SOL    HW286148   3.334   2.777   1.734 -0.2470  0.3937  0.3768
28524SOL     OW86149   1.887   7.589   1.620  0.0772  0.0765  0.3494
28524SOL    HW186150   1.925   7.595   1.533  1.9555  0.5279  1.1325
28524SOL    HW286151   1.951   7.539   1.671  0.6093  2.4380  2.1951
28525SOL     OW86152   0.627   1.629   6.422 -0.1433 -0.1053  0.0155
28525SOL    HW186153   0.685   1.576   6.367  0.1735  0.3777 -0.1140
28525SOL    HW286154   0.667   1.627   6.508  0.1951  0.4313 -0.1304
28526SOL     OW86155   6.050   9.927   8.779 -0.3498  0.2850  0.1676
28526SOL    HW186156   5.971   9.978   8.797  0.2838  1.0019  1.0072
28526SOL    HW286157   6.050   9.860   8.847 -0.0936  0.4612  0.3429
28527SOL     OW86158   1.749   9.331   8.926 -0.5082  0.0173 -0.3996
28527SOL    HW186159   1.801   9.251   8.915 -1.5103 -0.5637 -0.9498
28527SOL    HW286160   1.736   9.364   8.838 -0.3722  0.6317 -0.1971
28528SOL     OW86161   5.392   3.784   8.159  0.1273  0.2769 -0.0146
28528SOL    HW186162   5.404   3.836   8.079  0.8836  0.8861  0.4713
28528SOL    HW286163   5.341   3.841   8.217  0.0315  0.0459  0.1280
28529SOL     OW86164   3.839   9.299   1.919 -0.2716  0.0866  0.0443
28529SOL    HW186165   3.880   9.247   1.850 -0.3611  1.5633 -1.1573
28529SOL    HW286166   3.745   9.294   1.901 -0.1831  2.7400 -1.7225
28530SOL     OW86167   5.847   6.694   3.423 -0.0320 -0.3979 -0.7059
28530SOL    HW186168   5.786   6.670   3.353 -0.1621  0.6475 -0.9569
28530SOL    HW286169   5.933   6.681   3.384 -0.1036  0.4234 -1.1560
28531SOL     OW86170   6.245   6.348   2.700  0.4308 -0.1844 -0.4912
28531SOL    HW186171   6.225   6.405   2.626 -0.9326  0.1240  0.0693
28531SOL    HW286172   6.250   6.408   2.775  1.0668 -0.5696 -0.2204
28532SOL     OW86173   3.630   6.354   3.849  0.1678 -0.3063 -0.4334
28532SOL    HW186174   3.710   6.364   3.799 -0.0586 -2.0090 -1.1932
28532SOL    HW286175   3.631   6.263   3.879 -2.2977 -0.9576 -1.9982
28533SOL     OW86176   0.557   2.252   2.577  0.0852  0.3227 -0.4431
28533SOL    HW186177   0.559   2.182   2.642 -0.5898  1.3296  0.6945
28533SOL    HW286178   0.468   2.252   2.544 -0.9932  2.7372  2.0199
28534SOL     OW86179   1.707   6.049   9.521 -0.0608  0.6842  0.1521
28534SOL    HW186180   1.792   6.092   9.524  1.4720 -1.9845 -1.2897
28534SOL    HW286181   1.714   5.985   9.450 -4.2352  2.1528 -1.9472
28535SOL     OW86182   2.775   1.994   9.021 -0.1485  0.5041  0.2995
28535SOL    HW186183   2.736   1.906   9.020  1.8018 -0.4713  1.4023
28535SOL    HW286184   2.704   2.053   8.998 -1.3278 -1.4375 -1.4285
28536SOL     OW86185   8.145   0.311   3.108 -0.0116 -0.4239  0.4321
28536SOL    HW186186   8.073   0.290   3.048 -0.3169 -0.3768  0.7798
28536SOL    HW286187   8.213   0.348   3.051 -0.9610  1.2616  0.3129
28537SOL     OW86188   0.865   0.462   0.592 -0.0307  0.6511  0.0361
28537SOL    HW186189   0.835   0.386   0.643 -1.2216  1.5495  0.7526
28537SOL    HW286190   0.923   0.510   0.651 -0.5389  1.1112  0.1799
28538SOL     OW86191   9.295   7.466   8.128 -0.8139  0.1110  0.2887
28538SOL    HW186192   9.366   7.455   8.191 -2.6806  0.1067  2.5395
28538SOL    HW286193   9.234   7.395   8.149 -2.7572  1.7180  0.3154
28539SOL     OW86194   0.789   5.662   8.350  0.1642  0.0647  0.3037
28539SOL    HW186195   0.727   5.707   8.292  2.5142  1.4660 -1.2406
28539SOL    HW286196   0.804   5.578   8.307 -1.9675 -1.1115  1.6618
28540SOL     OW86197   9.941   7.872   6.017 -0.4069 -0.3471 -0.1382
28540SOL    HW186198  10.015   7.886   6.077 -0.6671  1.0022 -0.1209
28540SOL    HW286199   9.882   7.814   6.066 -0.2789  0.1495  0.6214
28541SOL     OW86200   4.517   2.860   3.029  0.2138 -0.0183 -0.2101
28541SOL    HW186201   4.459   2.866   2.953 -0.3900  1.1874  0.3247
28541SOL    HW286202   4.569   2.941   3.027  0.1665  0.0480  0.6686
28542SOL     OW86203   8.998   0.518   2.808 -0.0347  0.2875  0.0898
28542SOL    HW186204   8.918   0.505   2.859  0.1545 -1.0998  0.0494
28542SOL    HW286205   9.001   0.613   2.793 -0.8388  0.5499  1.4272
28543SOL     OW86206   6.645   1.873   8.909  0.1284  0.0550 -0.4952
28543SOL    HW186207   6.715   1.936   8.894 -0.2681  0.5309 -0.3709
28543SOL    HW286208   6.595   1.910   8.982 -0.5232 -0.0467 -0.8807
28544SOL     OW86209   2.158   4.576   6.815  0.0492  0.1722  0.3289
28544SOL    HW186210   2.071   4.612   6.801  0.6754  0.7725 -2.8523
28544SOL    HW286211   2.177   4.527   6.735  2.2747 -0.7704  1.3307
28545SOL     OW86212   1.150   9.369   5.954  0.0909 -0.2596 -0.5054
28545SOL    HW186213   1.093   9.417   6.015 -0.1123  0.7702 -1.4644
28545SOL    HW286214   1.217   9.330   6.010  0.2826  1.1760  0.3454
28546SOL     OW86215   5.853   1.818   7.965  0.4596 -0.0080 -0.3619
28546SOL    HW186216   5.892   1.844   8.048 -1.7212  1.2640  0.3543
28546SOL    HW286217   5.840   1.724   7.972  0.8230 -0.0004  0.5217
28547SOL     OW86218   1.378   9.493   3.330 -0.0456  0.5047  0.1421
28547SOL    HW186219   1.456   9.496   3.274  0.8613 -1.2393  1.2142
28547SOL    HW286220   1.349   9.402   3.325 -0.1121  0.3741  2.2177
28548SOL     OW86221   0.917   1.794   8.947 -1.1374 -0.2744  0.5629
28548SOL    HW186222   0.852   1.727   8.970 -0.5342 -0.5415  1.5373
28548SOL    HW286223   0.952   1.764   8.863 -2.6243  0.1490 -0.2422
28549SOL     OW86224   7.024   9.329   4.559 -0.5555 -0.1568 -0.1082
28549SOL    HW186225   7.034   9.248   4.609 -0.9392 -0.3537 -0.3509
28549SOL    HW286226   7.037   9.304   4.468  1.7118  0.4689 -0.0195
28550SOL     OW86227   4.661   9.056   6.716  0.1462 -0.4190  0.1610
28550SOL    HW186228   4.570   9.041   6.691 -0.0704 -0.9653  1.2257
28550SOL    HW286229   4.683   9.140   6.676 -1.4589  0.6908  1.4551
28551SOL     OW86230   3.133   0.507   2.970 -0.1611  0.0168  0.0568
28551SOL    HW186231   3.202   0.445   2.992 -0.0114  0.6808  1.5908
28551SOL    HW286232   3.052   0.460   2.986 -0.0607  0.5590  2.4985
28552SOL     OW86233   4.420   8.839   6.977 -0.1617 -0.3035  0.2405
28552SOL    HW186234   4.334   8.864   7.011  0.5860  0.7711  1.3925
28552SOL    HW286235   4.465   8.922   6.962  0.7118 -0.8602 -0.2714
28553SOL     OW86236   8.122   6.095   1.645  0.2106  0.7891 -0.3181
28553SOL    HW186237   8.180   6.065   1.575 -0.0638  0.0491 -0.2358
28553SOL    HW286238   8.041   6.122   1.600 -0.1794 -0.2217 -0.2530
28554SOL     OW86239   4.808   0.856   6.983  0.1047  0.1124  0.7057
28554SOL    HW186240   4.879   0.870   7.046  0.6236 -2.2491  0.7435
28554SOL    HW286241   4.729   0.849   7.037  0.3404 -0.5349  0.9678
28555SOL     OW86242   5.495   2.194   0.592 -0.1585 -0.0356  0.1788
28555SOL    HW186243   5.579   2.150   0.595 -0.2507 -0.1774  1.2296
28555SOL    HW286244   5.453   2.162   0.513  0.7437 -0.0071 -0.3236
28556SOL     OW86245   2.323   0.905   0.226 -0.3875  0.4185  0.1395
28556SOL    HW186246   2.393   0.874   0.284 -0.0461 -0.1886 -0.5786
28556SOL    HW286247   2.367   0.969   0.170 -0.1328 -0.7371 -1.0197
28557SOL     OW86248   6.226   6.902   5.014  0.1652 -0.0784 -0.3234
28557SOL    HW186249   6.155   6.838   5.012  0.6694 -0.6399 -0.5498
28557SOL    HW286250   6.183   6.986   5.004 -0.4690 -0.4175 -0.4741
28558SOL     OW86251   7.499   0.184   1.354 -0.3350 -0.5542 -0.2476
28558SOL    HW186252   7.477   0.141   1.437 -1.5344  0.6522  0.0929
28558SOL    HW286253   7.432   0.251   1.343  1.7783  1.6744 -0.4091
28559SOL     OW86254   1.283   8.671   8.146 -0.0871  0.4322  0.0051
28559SOL    HW186255   1.341   8.595   8.148 -1.7809 -0.9999 -1.7059
28559SOL    HW286256   1.340   8.745   8.161  2.0375 -0.9803 -0.6652
28560SOL     OW86257   7.815   7.664   6.395  0.5072 -0.6806 -0.2198
28560SOL    HW186258   7.892   7.627   6.438  0.7485 -2.0056 -1.7294
28560SOL    HW286259   7.756   7.590   6.381 -0.8109  0.2052  0.3496
28561SOL     OW86260   8.549   2.495   0.153  0.1536  0.3200 -0.4831
28561SOL    HW186261   8.471   2.507   0.099 -0.2884  1.2726  0.3244
28561SOL    HW286262   8.612   2.452   0.096 -0.5426  0.6567 -1.5319
28562SOL     OW86263   5.639   4.769   9.515 -0.0932  0.1370  0.0921
28562SOL    HW186264   5.713   4.749   9.572 -0.0052 -2.9017 -0.9590
28562SOL    HW286265   5.677   4.822   9.445  0.9426 -0.7033 -0.0076
28563SOL     OW86266   6.050   9.549   3.079 -0.4711 -0.3393 -0.3116
28563SOL    HW186267   6.092   9.464   3.094 -0.3915  0.0142  1.6219
28563SOL    HW286268   6.122   9.611   3.071 -0.5443  0.0948  1.9339
28564SOL     OW86269   7.154   0.234   7.054 -0.3114  0.5886 -0.2577
28564SOL    HW186270   7.142   0.328   7.069  0.3742  0.5672  0.5063
28564SOL    HW286271   7.248   0.220   7.067 -0.2283 -0.0269 -1.4292
28565SOL     OW86272   4.633   4.913   0.150 -0.2676  0.2504 -0.1238
28565SOL    HW186273   4.542   4.928   0.176 -0.9492 -1.2520 -1.4658
28565SOL    HW286274   4.630   4.904   0.055  1.4145  0.9142 -0.2692
28566SOL     OW86275   4.095   0.283   4.575  0.3242  0.0136  0.0853
28566SOL    HW186276   4.053   0.357   4.619 -0.3487 -0.3512  0.0783
28566SOL    HW286277   4.037   0.263   4.501  0.3576 -0.6710  0.2352
28567SOL     OW86278   2.600   7.336   6.660  0.1283 -0.2136  0.4867
28567SOL    HW186279   2.652   7.355   6.582  2.1826 -1.8157  1.3849
28567SOL    HW286280   2.656   7.360   6.734 -0.3383 -2.0187  1.5028
28568SOL     OW86281   9.818   1.468   2.252  0.3694  0.2307  0.2264
28568SOL    HW186282   9.775   1.524   2.187  1.9924  1.0884 -0.1775
28568SOL    HW286283   9.867   1.529   2.307  1.2184 -0.7010  0.5353
28569SOL     OW86284   7.218   7.240   7.619 -0.1299  0.4112  0.4366
28569SOL    HW186285   7.141   7.195   7.654  0.1566 -0.7228 -0.3030
28569SOL    HW286286   7.202   7.243   7.525  1.0622 -0.5666  0.1727
28570SOL     OW86287   6.490   1.082   1.339  0.4052  0.3924  0.3100
28570SOL    HW186288   6.500   1.168   1.299  0.7712  1.2017  2.0438
28570SOL    HW286289   6.545   1.085   1.417  0.5404 -1.4810  0.3371
28571SOL     OW86290   1.323   9.530   1.039 -0.6951 -0.1036  0.2616
28571SOL    HW186291   1.261   9.598   1.068 -1.0377  0.0186 -0.7274
28571SOL    HW286292   1.282   9.448   1.065 -0.8038  0.0206  0.4911
28572SOL     OW86293   8.725   6.845   7.626 -0.0664 -0.2101  0.1508
28572SOL    HW186294   8.644   6.881   7.591  0.2634 -1.7598 -2.4088
28572SOL    HW286295   8.757   6.913   7.686 -2.1044  1.3644 -0.4363
28573SOL     OW86296   9.375   1.678   8.030 -0.2414 -0.0176 -0.4947
28573SOL    HW186297   9.331   1.715   7.953  0.6674 -0.2812 -1.1541
28573SOL    HW286298   9.311   1.617   8.067 -1.6747  1.9629  0.4637
28574SOL     OW86299   3.985   5.372   9.307  0.1603  0.5535 -0.3982
28574SOL    HW186300   4.076   5.362   9.332 -0.5840 -1.9088  1.8140
28574SOL    HW286301   3.961   5.289   9.267 -1.0888  1.2312 -1.1476
28575SOL     OW86302   2.353   6.291   0.783 -0.1766 -0.2694 -0.9297
28575SOL    HW186303   2.396   6.366   0.824 -0.1618 -0.3945 -0.7203
28575SOL    HW286304   2.330   6.233   0.855 -0.1582 -0.4852 -1.0971
28576SOL     OW86305   7.687   0.019   9.083  0.2845 -0.7406 -0.4412
28576SOL    HW186306   7.597   0.051   9.091  0.0030 -0.9961 -2.1938
28576SOL    HW286307   7.678  -0.070   9.048  1.2016 -0.9835 -0.0756
28577SOL     OW86308   0.209   9.443   9.145 -0.0166  0.1318  0.2387
28577SOL    HW186309   0.249   9.370   9.192  2.0129  0.6506 -0.5640
28577SOL    HW286310   0.161   9.401   9.073  2.7703 -0.4766 -1.4434
28578SOL     OW86311   2.819   7.504   5.618 -0.4751 -0.2717 -0.2745
28578SOL    HW186312   2.733   7.480   5.651 -0.9055  0.1559 -1.0462
28578SOL    HW286313   2.815   7.599   5.606  0.1789 -0.2180 -0.1129
28579SOL     OW86314   3.237   1.239   8.277  0.2957 -0.1023 -0.1775
28579SOL    HW186315   3.187   1.158   8.270 -0.7421  0.5090 -0.0479
28579SOL    HW286316   3.307   1.229   8.212 -0.4334 -0.6706 -0.8999
28580SOL     OW86317   1.358   9.432   5.194  0.1034  0.9148 -0.3986
28580SOL    HW186318   1.376   9.339   5.211  1.1107  1.0358 -0.7112
28580SOL    HW286319   1.265   9.442   5.210  0.0799 -0.0487  0.1334
28581SOL     OW86320   8.924   6.186   5.015 -0.2611  0.4793 -0.3556
28581SOL    HW186321   9.009   6.230   5.022 -0.4525  0.7620  0.2501
28581SOL    HW286322   8.892   6.209   4.928 -0.8499  2.4648  0.3441
28582SOL     OW86323   9.739   0.400   6.838 -0.1216  0.6236 -0.2280
28582SOL    HW186324   9.678   0.340   6.796 -0.3912 -0.7694  1.9912
28582SOL    HW286325   9.696   0.424   6.920  1.5158  1.0783  0.5412
28583SOL     OW86326   4.672   8.934   1.156  0.4142  0.6841 -0.6022
28583SOL    HW186327   4.614   9.010   1.156 -0.3758  0.1171 -1.9244
28583SOL    HW286328   4.648   8.885   1.077 -0.1807 -1.7540  0.9561
28584SOL     OW86329   3.320   5.589   4.759  0.0551 -0.0052  0.0941
28584SOL    HW186330   3.272   5.640   4.824 -0.2005 -0.9547  0.6712
28584SOL    HW286331   3.290   5.623   4.675 -0.1748  0.7298  0.4646
28585SOL     OW86332   6.260   0.701   0.995  0.1143  0.4828 -0.2515
28585SOL    HW186333   6.253   0.741   0.908 -0.9086  0.8317 -0.0115
28585SOL    HW286334   6.311   0.764   1.046  1.0857  0.0823 -0.7038
28586SOL     OW86335   2.473   9.235   3.265 -0.0411 -0.1153 -0.5441
28586SOL    HW186336   2.501   9.315   3.220  2.3829 -0.7605 -0.3472
28586SOL    HW286337   2.387   9.255   3.300 -0.0669  1.9317 -1.6530
28587SOL     OW86338   6.577   0.366   0.377  0.0466  0.5562  0.1629
28587SOL    HW186339   6.620   0.434   0.325 -2.0896  2.2703  0.4753
28587SOL    HW286340   6.519   0.321   0.315  0.2084  0.1259  0.3163
28588SOL     OW86341   8.198   2.016   2.393 -0.3276  0.5947  0.1416
28588SOL    HW186342   8.108   2.005   2.424 -0.4120  1.3062  0.1555
28588SOL    HW286343   8.206   2.109   2.371  0.3473  0.5056 -0.0382
28589SOL     OW86344   6.449   6.397   8.020  0.1303  0.0343 -0.8147
28589SOL    HW186345   6.354   6.385   8.028  0.0171  1.1825 -0.2143
28589SOL    HW286346   6.464   6.488   8.047  1.2753  0.2100 -1.9521
28590SOL     OW86347   5.319   1.992   6.400  0.5965 -0.4439  0.7455
28590SOL    HW186348   5.401   2.021   6.440 -0.2513  0.3739  2.0037
28590SOL    HW286349   5.272   1.949   6.472  0.4876 -2.1958 -0.3107
28591SOL     OW86350   6.433   8.128   6.249  0.3261  0.0220  0.6785
28591SOL    HW186351   6.480   8.049   6.276 -1.6769 -2.0923 -1.5430
28591SOL    HW286352   6.498   8.179   6.199  1.0871 -1.3296  0.2332
28592SOL     OW86353   3.093   1.377   1.989 -0.0556 -0.2058  0.1548
28592SOL    HW186354   3.084   1.315   1.916 -3.5793  0.9854 -0.6088
28592SOL    HW286355   3.115   1.460   1.948 -1.4565  0.3413  0.4750
28593SOL     OW86356   8.572   7.244   8.762 -0.0546  0.1451  1.0458
28593SOL    HW186357   8.503   7.309   8.774 -0.0110  0.2906  0.5214
28593SOL    HW286358   8.633   7.285   8.700 -0.7223 -0.9351 -0.3568
28594SOL     OW86359   8.905   3.099   0.883  0.2935 -0.3560 -0.5025
28594SOL    HW186360   8.861   3.097   0.798 -0.0154  0.3181 -0.3608
28594SOL    HW286361   8.869   3.176   0.927  0.0739 -0.9935  0.4445
28595SOL     OW86362   8.829   1.832   9.031 -0.3651  0.0983 -0.0368
28595SOL    HW186363   8.798   1.906   9.083 -1.1095  1.0987 -1.8072
28595SOL    HW286364   8.768   1.761   9.051 -1.4421  0.8654 -0.4904
28596SOL     OW86365   0.854   9.548   4.026  0.0920 -0.0766  0.1163
28596SOL    HW186366   0.896   9.543   4.112 -1.0354  0.3436  0.7030
28596SOL    HW286367   0.823   9.459   4.010  2.4904 -0.8030 -1.0323
28597SOL     OW86368   9.416   2.679   0.180 -0.7284  0.3526 -0.5625
28597SOL    HW186369   9.345   2.713   0.235  0.8648  3.0900 -0.0421
28597SOL    HW286370   9.484   2.652   0.242 -0.0186  0.8285 -1.1161
28598SOL     OW86371   4.148   0.371   8.500  0.7190 -0.0883 -0.2922
28598SOL    HW186372   4.160   0.370   8.405  1.5550  2.6212 -0.2721
28598SOL    HW286373   4.228   0.331   8.534  0.6319 -0.6216 -0.6925
28599SOL     OW86374   5.494   0.957  -0.003 -0.6367 -0.0986 -0.2034
28599SOL    HW186375   5.535   1.022   0.055 -1.4048  1.2274 -1.1024
28599SOL    HW286376   5.414   0.932   0.043 -1.0174  0.6160 -0.4550
28600SOL     OW86377   3.685   9.440   9.488  0.3641  0.4788 -0.3388
28600SOL    HW186378   3.621   9.402   9.548  0.1455 -1.6340 -1.7959
28600SOL    HW286379   3.742   9.493   9.544  1.0588 -2.5041  2.0565
28601SOL     OW86380   8.657   2.026   5.171  0.0023 -0.3942  0.0082
28601SOL    HW186381   8.685   1.939   5.145  0.8287 -0.9873  2.6203
28601SOL    HW286382   8.589   2.012   5.236 -1.2042  0.9798 -0.8802
28602SOL     OW86383   7.082   3.301   1.421  0.0881  0.3983 -0.0825
28602SOL    HW186384   7.096   3.206   1.421 -1.2308  0.1596 -2.0014
28602SOL    HW286385   6.992   3.312   1.391  0.2192  2.2852  0.1080
28603SOL     OW86386   6.471   5.882   5.915 -0.1575 -0.2026  0.1007
28603SOL    HW186387   6.456   5.805   5.969 -0.2345 -0.7613 -0.6908
28603SOL    HW286388   6.524   5.941   5.969 -1.9748  0.1786  1.5670
28604SOL     OW86389  -0.018   4.123   7.552  0.3427 -0.0145 -0.6700
28604SOL    HW186390  -0.037   4.097   7.462 -0.4113 -4.8537  0.5861
28604SOL    HW286391   0.077   4.133   7.555  0.3155  0.8926 -2.1069
28605SOL     OW86392   7.652   7.684   7.963  0.1745  0.2041  0.1738
28605SOL    HW186393   7.627   7.613   8.022  1.7536 -0.5057  0.0440
28605SOL    HW286394   7.713   7.644   7.901 -0.5345  1.2054 -1.2414
28606SOL     OW86395   6.843   5.142   1.997  0.3451  0.3215 -0.1018
28606SOL    HW186396   6.926   5.140   2.044  0.8673  0.2277 -1.0111
28606SOL    HW286397   6.859   5.093   1.917 -0.7734 -0.2283 -0.0131
28607SOL     OW86398   8.458   5.277   8.084  0.3993 -0.4974 -0.0538
28607SOL    HW186399   8.399   5.343   8.047  0.4250  0.2577  1.2069
28607SOL    HW286400   8.531   5.274   8.023  0.4560  0.7452 -0.0774
28608SOL     OW86401   3.729   6.483   5.377 -0.4973 -0.2589 -0.0126
28608SOL    HW186402   3.780   6.403   5.367  0.9134  0.5810  0.0366
28608SOL    HW286403   3.656   6.459   5.434 -0.5099 -1.6683 -0.6003
28609SOL     OW86404   0.694   3.756   2.868 -0.1575 -0.3316  0.6637
28609SOL    HW186405   0.766   3.772   2.929  0.1399 -1.1213  0.5307
28609SOL    HW286406   0.714   3.671   2.829 -0.0796  0.3742 -0.9040
28610SOL     OW86407   6.573   9.577   1.576  0.1238  0.2011  0.3638
28610SOL    HW186408   6.613   9.491   1.557 -0.1756  0.4633 -1.6672
28610SOL    HW286409   6.648   9.636   1.583  0.2721  0.0080  0.4518
28611SOL     OW86410   5.120   4.357   5.001 -0.0218  0.8300  0.2152
28611SOL    HW186411   5.062   4.391   4.933 -0.9364  2.0955  1.5820
28611SOL    HW286412   5.200   4.408   4.991  0.0081  0.7125 -0.1788
28612SOL     OW86413   6.861   5.969   2.635 -0.2760 -0.2529  0.1910
28612SOL    HW186414   6.889   6.042   2.580 -0.6874 -0.9807 -1.0313
28612SOL    HW286415   6.810   5.913   2.576 -2.1317 -0.2618  1.6818
28613SOL     OW86416   7.706   0.723   9.654  0.1593 -0.0215 -0.0012
28613SOL    HW186417   7.620   0.761   9.667  0.4700  0.7381 -0.1405
28613SOL    HW286418   7.763   0.797   9.632  1.6379  0.1289  3.5458
28614SOL     OW86419   5.860   7.461   9.080  0.0090  0.1595 -0.1333
28614SOL    HW186420   5.852   7.553   9.104  0.3253  0.0213  0.5048
28614SOL    HW286421   5.772   7.435   9.052  0.0674  0.8369 -0.9908
28615SOL     OW86422   3.543   3.100   1.172 -0.3953  0.2272  0.0438
28615SOL    HW186423   3.509   3.185   1.143 -0.0854  0.2321 -0.3096
28615SOL    HW286424   3.631   3.096   1.136 -0.0387  0.1894  0.8969
28616SOL     OW86425   9.419   4.255   2.964 -0.4287 -0.4975 -0.2041
28616SOL    HW186426   9.514   4.254   2.958 -0.3478 -0.5506  0.8972
28616SOL    HW286427   9.398   4.342   3.000 -0.9031  0.0745 -1.7866
28617SOL     OW86428   9.797   4.981   1.670 -0.0041 -0.0095 -0.1156
28617SOL    HW186429   9.819   4.912   1.607 -0.9894  0.6474 -1.2320
28617SOL    HW286430   9.881   5.018   1.696  0.7179 -2.7012  1.8538
28618SOL     OW86431   4.547   0.454   1.741  0.5451  0.0056  0.1153
28618SOL    HW186432   4.582   0.372   1.773 -0.3935 -0.3078  0.3664
28618SOL    HW286433   4.558   0.450   1.646  1.3598  0.0095  0.2030
28619SOL     OW86434   9.113   2.046   7.194 -0.8528 -0.1252  0.0085
28619SOL    HW186435   9.021   2.054   7.217 -0.6550 -1.1503  1.2804
28619SOL    HW286436   9.114   2.000   7.111 -1.4911 -0.0551 -0.0374
28620SOL     OW86437   9.006   2.997   8.255 -0.0215 -0.4374  0.3967
28620SOL    HW186438   9.055   3.077   8.275 -0.0410 -0.4738  0.5960
28620SOL    HW286439   9.072   2.929   8.249  0.0292 -0.3467 -0.1126
28621SOL     OW86440   1.231   7.263   3.835  0.4372 -0.1220 -0.5861
28621SOL    HW186441   1.308   7.220   3.798  1.0814  1.3306 -1.0364
28621SOL    HW286442   1.266   7.335   3.887 -0.6011  0.2668 -0.3951
28622SOL     OW86443   9.152   5.302   7.445 -0.2003 -0.3028  0.7657
28622SOL    HW186444   9.187   5.376   7.395 -0.7868  0.3300  1.2666
28622SOL    HW286445   9.134   5.235   7.380  1.4297 -0.4613  0.4298
28623SOL     OW86446   2.428   3.808   0.743 -0.6058 -0.0933 -0.0537
28623SOL    HW186447   2.452   3.867   0.814 -0.1994  0.4184 -0.5987
28623SOL    HW286448   2.386   3.864   0.678  1.2487 -0.0496 -1.3086
28624SOL     OW86449   4.400   1.920   1.322 -0.3188 -0.1336 -0.3830
28624SOL    HW186450   4.326   1.895   1.377  0.5391 -1.2054  0.3302
28624SOL    HW286451   4.368   1.910   1.233 -1.3786  0.5172 -0.0886
28625SOL     OW86452   4.994   8.534  -0.029  0.2695 -0.0953 -0.1175
28625SOL    HW186453   5.009   8.576   0.056 -2.0299  2.6702 -0.9379
28625SOL    HW286454   4.930   8.466  -0.011 -2.1714  2.1154  0.1137
28626SOL     OW86455   2.911   1.858   0.124 -0.7744  0.2881  0.3988
28626SOL    HW186456   2.822   1.893   0.121 -0.6752  0.5239  0.2019
28626SOL    HW286457   2.939   1.856   0.033 -0.9097 -0.6493  0.3732
28627SOL     OW86458   8.743   1.375   6.224 -0.1470 -0.0863 -0.2878
28627SOL    HW186459   8.656   1.336   6.233  0.1979 -0.5489  1.3847
28627SOL    HW286460   8.791   1.344   6.301  1.1700  1.0061 -0.6363
28628SOL     OW86461   0.231   0.675   2.500 -0.3979  0.4828 -0.3906
28628SOL    HW186462   0.261   0.755   2.543 -3.3022  0.9194  1.0302
28628SOL    HW286463   0.298   0.658   2.433  2.1674  2.0477  1.5961
28629SOL     OW86464   1.139   8.515   0.707 -0.7215 -0.0378  0.1451
28629SOL    HW186465   1.198   8.541   0.636 -0.6923  1.4499  0.6721
28629SOL    HW286466   1.064   8.575   0.699 -1.5191 -0.9851  0.3349
28630SOL     OW86467   7.410   5.933   4.056  0.0980 -0.3498  0.0332
28630SOL    HW186468   7.372   5.874   3.991  0.5087 -1.2973  0.6335
28630SOL    HW286469   7.480   5.882   4.097 -0.1836  0.2035  1.2570
28631SOL     OW86470   7.667   0.043   9.756 -0.0500 -0.7673  0.1739
28631SOL    HW186471   7.762   0.048   9.757 -0.1283  1.6981  0.1525
28631SOL    HW286472   7.644   0.001   9.839  1.0410 -1.7338  0.0119
28632SOL     OW86473   6.343   4.567   7.897 -0.3999 -0.6338  0.2116
28632SOL    HW186474   6.344   4.477   7.932  1.4290 -0.8053 -0.2170
28632SOL    HW286475   6.428   4.578   7.855 -1.8567  0.1430 -2.7805
28633SOL     OW86476   6.535   4.379   0.646 -0.2201  0.4794  0.3817
28633SOL    HW186477   6.613   4.434   0.657  0.1927  0.2402 -1.1243
28633SOL    HW286478   6.540   4.317   0.719  0.8020  0.7142  0.5278
28634SOL     OW86479   8.217   4.023   3.766 -0.6265 -0.5345  0.1691
28634SOL    HW186480   8.169   4.008   3.848 -1.1077  1.7679  0.3791
28634SOL    HW286481   8.150   4.054   3.705  0.2100  0.7936 -0.1270
28635SOL     OW86482   6.863   3.978   7.013 -0.2475  0.4640 -0.6323
28635SOL    HW186483   6.841   4.011   7.100 -0.8077  0.5712 -0.8159
28635SOL    HW286484   6.956   4.000   7.002 -0.3885  1.1860 -0.3934
28636SOL     OW86485   7.332   0.209   3.062 -0.2236  0.5413 -0.2402
28636SOL    HW186486   7.381   0.127   3.058  1.2317  1.4036 -0.6016
28636SOL    HW286487   7.265   0.200   2.994 -0.8912 -0.8178  0.5384
28637SOL     OW86488   9.898   8.907   9.290  0.1206  0.2398  0.1109
28637SOL    HW186489   9.897   8.831   9.232  0.5256  0.8211 -0.6844
28637SOL    HW286490   9.836   8.885   9.360  1.7243 -1.6843  1.0335
28638SOL     OW86491   0.614   5.817   8.216  0.5166  1.1239 -0.2065
28638SOL    HW186492   0.674   5.886   8.188 -0.7883  1.9679 -1.0323
28638SOL    HW286493   0.539   5.825   8.158 -0.2425 -0.1514  0.5464
28639SOL     OW86494   7.692   9.394   9.351  0.4018  0.1181 -0.2881
28639SOL    HW186495   7.755   9.416   9.282 -0.5790  0.2610 -1.1552
28639SOL    HW286496   7.608   9.391   9.307 -0.5377  2.0014  1.2426
28640SOL     OW86497   3.751   5.105   6.412  0.0905  0.0418  0.2838
28640SOL    HW186498   3.815   5.176   6.404 -0.3277  0.4694  0.7132
28640SOL    HW286499   3.800   5.026   6.391  0.9623  0.2692  1.4082
28641SOL     OW86500   1.380   1.388   0.343 -0.8615 -0.1278 -0.0059
28641SOL    HW186501   1.468   1.422   0.328 -0.5337 -1.4817 -1.3114
28641SOL    HW286502   1.389   1.329   0.417 -0.6545 -0.3456 -0.2059
28642SOL     OW86503   6.419   8.295   8.516 -0.4632  0.5970 -0.0105
28642SOL    HW186504   6.409   8.301   8.611 -0.8147  2.9059 -0.1398
28642SOL    HW286505   6.436   8.385   8.488 -0.4031 -0.0275 -2.1501
28643SOL     OW86506   6.958   3.720   9.346  0.4087 -0.7333  0.0529
28643SOL    HW186507   7.012   3.708   9.268  0.6759 -0.3683  0.1786
28643SOL    HW286508   7.018   3.754   9.413 -0.3155  1.5367 -0.3461
28644SOL     OW86509   4.046   3.755   5.777  0.1476 -0.0514  0.6726
28644SOL    HW186510   3.975   3.699   5.809  0.5078 -1.2680 -0.5823
28644SOL    HW286511   4.102   3.767   5.854 -0.4210 -0.6556  1.2003
28645SOL     OW86512   2.060   3.743   0.232 -0.3161 -0.1060 -0.1215
28645SOL    HW186513   2.068   3.829   0.273  0.0669 -0.2210  0.0403
28645SOL    HW286514   2.100   3.682   0.293 -1.8863 -0.6152  0.4464
28646SOL     OW86515   6.571   7.701   5.678  0.3538  0.0690  0.1355
28646SOL    HW186516   6.516   7.623   5.676  2.6673 -1.6540 -1.3893
28646SOL    HW286517   6.651   7.673   5.724  1.2550  1.5081 -0.4964
28647SOL     OW86518   1.247   7.319   2.841 -0.5432 -0.2613 -0.1629
28647SOL    HW186519   1.235   7.389   2.905 -0.3478 -1.3111  1.0549
28647SOL    HW286520   1.336   7.330   2.809 -0.2007 -0.4951  0.6982
28648SOL     OW86521   6.070   8.876   0.900  0.0457  0.0799  0.1599
28648SOL    HW186522   6.098   8.931   0.974 -1.0831  0.0212  0.6382
28648SOL    HW286523   6.072   8.787   0.934 -0.5689  0.0615  0.1504
28649SOL     OW86524   6.190   8.584   5.030  0.3678 -0.1010  0.2712
28649SOL    HW186525   6.202   8.661   4.975  1.2434 -0.1898  0.3239
28649SOL    HW286526   6.245   8.517   4.990  2.9013  0.4736  2.4872
28650SOL     OW86527   0.133   4.324   9.531  1.1393  0.3485  0.6726
28650SOL    HW186528   0.217   4.366   9.513  0.4905  1.2028 -0.4357
28650SOL    HW286529   0.110   4.279   9.450  0.2148  0.6784  0.7338
28651SOL     OW86530   0.726   6.346   3.057  0.0772  0.4254 -0.1087
28651SOL    HW186531   0.754   6.336   3.148 -0.4809 -1.3459 -0.0938
28651SOL    HW286532   0.807   6.358   3.008  0.9107 -3.1943  0.1094
28652SOL     OW86533   6.975   3.937   4.747  0.0986 -0.4271  0.7320
28652SOL    HW186534   6.939   3.962   4.832  0.4330  1.7889  0.2689
28652SOL    HW286535   7.070   3.937   4.761  0.1415 -0.4383  0.4409
28653SOL     OW86536   7.639   7.261   1.749 -0.1258 -0.4850 -0.0916
28653SOL    HW186537   7.699   7.199   1.707  0.0066 -0.0196 -0.5900
28653SOL    HW286538   7.688   7.342   1.755 -0.3175 -0.4079  0.5235
28654SOL     OW86539   7.381   1.146   7.695  0.1238 -0.2522 -0.0698
28654SOL    HW186540   7.413   1.191   7.773 -0.2525 -1.3409  0.7363
28654SOL    HW286541   7.448   1.081   7.674 -0.6011 -1.2134  0.4692
28655SOL     OW86542   2.144   4.056   3.055 -0.5472 -0.3506  0.0498
28655SOL    HW186543   2.187   3.980   3.016 -0.8505 -0.3588 -0.2737
28655SOL    HW286544   2.211   4.124   3.057 -0.4693 -0.4203 -0.2786
28656SOL     OW86545   2.632   9.496   2.515 -0.2836 -0.4646 -0.1143
28656SOL    HW186546   2.640   9.408   2.551 -1.2458 -0.5610 -0.0961
28656SOL    HW286547   2.716   9.538   2.533 -0.7168 -0.5049  2.2760
28657SOL     OW86548   0.162   1.999   1.484 -0.2851 -0.5829  0.0070
28657SOL    HW186549   0.234   1.969   1.539 -0.7181  0.5833  1.2800
28657SOL    HW286550   0.136   2.083   1.523  0.6704  1.3338 -3.1359
28658SOL     OW86551   7.995   4.623   2.509  0.6382  0.5440  0.2243
28658SOL    HW186552   8.037   4.658   2.430 -0.8857 -0.6853 -1.2120
28658SOL    HW286553   8.010   4.529   2.504 -1.9490  0.0750 -0.2322
28659SOL     OW86554   4.230   2.316   1.544  0.0320  0.4724 -0.0469
28659SOL    HW186555   4.242   2.235   1.595 -0.5623  0.7659  0.5716
28659SOL    HW286556   4.221   2.285   1.453 -3.7329 -0.5561  0.4931
28660SOL     OW86557   9.619   9.068   8.140 -0.7077 -0.1256  0.2054
28660SOL    HW186558   9.696   9.070   8.083 -1.5769  1.7072 -0.9951
28660SOL    HW286559   9.638   9.132   8.209 -1.4871  1.0463 -0.6257
28661SOL     OW86560   5.014   3.054   9.434  0.2810  0.8036 -0.5170
28661SOL    HW186561   4.951   3.084   9.499  0.5993  1.8097 -0.6612
28661SOL    HW286562   5.079   3.124   9.429  0.9386  0.1757 -1.0079
28662SOL     OW86563   7.541   2.668   9.945  0.1481 -0.5764 -0.2681
28662SOL    HW186564   7.588   2.747   9.972 -1.3162  0.0555  0.5458
28662SOL    HW286565   7.610   2.604   9.926  1.3647  0.8397 -0.8284
28663SOL     OW86566   3.574   9.458   8.911 -0.3764 -0.1070  0.3673
28663SOL    HW186567   3.634   9.436   8.982  2.5078  1.1989 -1.4777
28663SOL    HW286568   3.593   9.394   8.842 -0.1947  1.0587 -0.7033
28664SOL     OW86569   2.581   9.188   0.459 -0.3759  0.0924  0.5266
28664SOL    HW186570   2.601   9.167   0.551 -0.9682  1.0938  0.8970
28664SOL    HW286571   2.510   9.127   0.436 -0.4381  0.0453  0.8319
28665SOL     OW86572   8.263   7.147   7.989 -0.2709  0.3462 -0.5975
28665SOL    HW186573   8.249   7.239   8.012 -0.0031  0.3456 -0.4170
28665SOL    HW286574   8.301   7.150   7.901  1.1457  0.4987 -0.0114
28666SOL     OW86575   7.836   7.693   0.429  0.0108  0.1870 -0.1190
28666SOL    HW186576   7.857   7.765   0.369 -2.3726  2.4879  1.6016
28666SOL    HW286577   7.742   7.698   0.441  0.1339 -1.4522  2.3116
28667SOL     OW86578   3.745   4.385   1.071 -0.2238 -0.1091  0.3337
28667SOL    HW186579   3.690   4.318   1.031  0.0594 -0.2633  0.1945
28667SOL    HW286580   3.809   4.407   1.003  0.0333 -0.1084  0.5725
28668SOL     OW86581   8.848   5.440   3.021  0.2823  0.2524 -0.0202
28668SOL    HW186582   8.844   5.535   3.012 -0.0996  0.0614 -2.7049
28668SOL    HW286583   8.923   5.415   2.967  1.4406 -0.8920  2.0102
28669SOL     OW86584   8.598   4.271   1.955  0.0198 -0.7381  0.2181
28669SOL    HW186585   8.541   4.229   1.891  0.4275 -0.2064 -0.5156
28669SOL    HW286586   8.641   4.342   1.906  1.3975 -1.1984  0.7028
28670SOL     OW86587   2.186   4.031   0.846 -0.9243  0.0466 -0.2663
28670SOL    HW186588   2.215   4.015   0.756 -1.7449 -0.7839 -0.3939
28670SOL    HW286589   2.091   4.035   0.841 -0.9283  1.0208  0.4182
28671SOL     OW86590   0.324   5.272   8.256  0.2118  0.2045 -0.3643
28671SOL    HW186591   0.399   5.320   8.293  1.1150 -0.3011 -1.4498
28671SOL    HW286592   0.346   5.180   8.267 -1.2653  0.0036  1.2100
28672SOL     OW86593   3.095   1.316   6.420  0.4663  0.0186 -0.7607
28672SOL    HW186594   3.071   1.274   6.503 -1.7115  3.7879  0.7918
28672SOL    HW286595   3.189   1.330   6.427  0.5504 -0.9618  0.4088
28673SOL     OW86596   9.736   0.466   4.497 -0.8556 -0.3641  0.5460
28673SOL    HW186597   9.770   0.379   4.519 -1.9365 -0.8108  0.5067
28673SOL    HW286598   9.814   0.521   4.490 -0.1555 -1.3257  0.5834
28674SOL     OW86599   2.125   3.944   7.566 -0.0006 -0.0685 -0.5616
28674SOL    HW186600   2.072   4.016   7.532  2.3674  1.3603 -1.4345
28674SOL    HW286601   2.086   3.923   7.651 -0.5209  2.5542 -0.0859
28675SOL     OW86602   7.970   7.989   4.758 -0.2972  0.6315 -0.3912
28675SOL    HW186603   7.886   7.943   4.764 -0.0425  0.2185  0.0548
28675SOL    HW286604   7.999   7.974   4.669 -1.8672  2.8546 -1.3727
28676SOL     OW86605   2.149   3.310   1.114  0.1072 -0.1559 -0.2274
28676SOL    HW186606   2.191   3.255   1.048 -1.1380 -0.3243 -0.9253
28676SOL    HW286607   2.087   3.252   1.158 -0.7223  0.5102 -0.4964
28677SOL     OW86608   1.401   8.921   0.726  0.2699 -0.3191 -0.5359
28677SOL    HW186609   1.484   8.887   0.694  1.5908  0.9331  1.3390
28677SOL    HW286610   1.419   9.013   0.746 -1.3692 -0.1812  0.5055
28678SOL     OW86611   2.445   8.551   2.546  0.3030  0.3279 -0.6914
28678SOL    HW186612   2.431   8.486   2.614  1.4087  0.8412  0.0516
28678SOL    HW286613   2.431   8.635   2.590 -1.5005  0.6325 -1.7261
28679SOL     OW86614   0.842   1.890   9.496  0.2807  0.1271  0.3693
28679SOL    HW186615   0.775   1.852   9.440  0.9565 -0.5685  0.0100
28679SOL    HW286616   0.917   1.904   9.438 -0.4180  3.5513  0.0692
28680SOL     OW86617   4.621   8.138   9.916 -0.1821  0.1613 -0.3647
28680SOL    HW186618   4.687   8.124   9.848 -1.0141  0.0315 -1.1738
28680SOL    HW286619   4.549   8.182   9.870 -1.7872 -2.0775 -0.1646
28681SOL     OW86620   6.968   6.455   2.320 -0.1361 -0.1601  0.3487
28681SOL    HW186621   6.911   6.412   2.257 -0.5393  1.8131 -0.7239
28681SOL    HW286622   6.909   6.506   2.376  0.4530  1.1245 -0.1492
28682SOL     OW86623   9.886   3.701   3.392 -0.1798 -0.0750  0.1759
28682SOL    HW186624   9.971   3.719   3.432 -0.1138 -0.1925  0.0856
28682SOL    HW286625   9.885   3.607   3.378  1.0886  0.2417 -2.9897
28683SOL     OW86626   5.728   9.972   0.515  0.0898  0.1068  0.2320
28683SOL    HW186627   5.750   9.929   0.433 -0.0384 -0.6291  0.5753
28683SOL    HW286628   5.812   9.992   0.555  0.1471 -0.0268  0.1770
28684SOL     OW86629   1.860   9.190   7.413 -0.2672  0.4326 -0.3074
28684SOL    HW186630   1.870   9.266   7.356 -0.6123  0.5176 -0.2537
28684SOL    HW286631   1.918   9.208   7.487 -1.1075  1.1147  0.1970
28685SOL     OW86632   9.826   9.591   0.812 -0.4275 -0.6290  0.3973
28685SOL    HW186633   9.797   9.658   0.751  0.0672 -0.2817  0.5378
28685SOL    HW286634   9.859   9.521   0.756 -0.1662 -0.3980  0.2608
28686SOL     OW86635   7.363   6.707   0.188 -0.2766 -0.0153 -0.4640
28686SOL    HW186636   7.340   6.624   0.229 -0.4180  0.7777  1.1661
28686SOL    HW286637   7.434   6.741   0.242 -1.1855  1.5884 -0.2110
28687SOL     OW86638   0.260   7.838   5.897  0.2655 -0.0975  0.2935
28687SOL    HW186639   0.210   7.757   5.886 -1.1613  0.7575  0.1416
28687SOL    HW286640   0.235   7.870   5.983  0.1172  0.6229 -0.0086
28688SOL     OW86641   8.242   3.900   3.121  0.1665  0.4691 -0.6068
28688SOL    HW186642   8.170   3.956   3.093  0.3173  0.4928 -0.9588
28688SOL    HW286643   8.291   3.953   3.184 -0.8378 -0.0040  0.6164
28689SOL     OW86644   7.577   5.353   1.083  0.3096 -0.0054  0.1796
28689SOL    HW186645   7.490   5.316   1.099  0.3366  0.1754  0.7727
28689SOL    HW286646   7.590   5.344   0.988 -0.5841  0.4763  0.0018
28690SOL     OW86647   3.743   6.735   8.042 -0.3639  0.4463 -0.2834
28690SOL    HW186648   3.764   6.761   8.132  1.9368  2.2151 -1.2218
28690SOL    HW286649   3.720   6.642   8.049  0.2497  0.4009  2.0764
28691SOL     OW86650   4.716   6.675   3.370 -0.1726  0.2733  0.6286
28691SOL    HW186651   4.800   6.707   3.404  0.1364 -0.3816  0.4846
28691SOL    HW286652   4.740   6.605   3.310 -0.7312  1.2359 -0.7485
28692SOL     OW86653   0.031   0.391   6.725  0.0796 -0.0007 -0.1664
28692SOL    HW186654  -0.039   0.394   6.791  1.0818  1.2147  0.9097
28692SOL    HW286655   0.032   0.300   6.695 -1.9519 -0.0437 -0.2372
28693SOL     OW86656   5.534   0.406   2.269 -0.2194 -0.3570 -0.5648
28693SOL    HW186657   5.624   0.377   2.284 -0.8744 -1.9608  0.4842
28693SOL    HW286658   5.528   0.418   2.174  2.0782  3.3001 -0.4207
28694SOL     OW86659   2.879   2.818   5.547 -0.3596  0.0687  0.2154
28694SOL    HW186660   2.909   2.895   5.597 -0.4807  1.2332 -1.4204
28694SOL    HW286661   2.803   2.786   5.596 -0.4141  1.1077  0.8424
28695SOL     OW86662   5.139   2.059   3.290  0.2274 -0.2141  0.6046
28695SOL    HW186663   5.045   2.078   3.294  0.4870  1.1172  0.8539
28695SOL    HW286664   5.177   2.111   3.361  0.9873 -1.9607  1.5416
28696SOL     OW86665   5.849   9.733   2.018 -0.5691 -0.4804 -0.2633
28696SOL    HW186666   5.820   9.824   2.017 -1.4252 -0.4697  4.1803
28696SOL    HW286667   5.779   9.684   1.975 -0.9070  0.7529 -1.1681
28697SOL     OW86668   1.905   0.760   9.475  0.3036 -0.1158  0.2048
28697SOL    HW186669   1.923   0.854   9.472 -1.8569  0.4525  2.2102
28697SOL    HW286670   1.922   0.729   9.386 -0.1632  2.4192 -0.8342
28698SOL     OW86671   2.690   9.852   9.195 -0.1365 -0.0131  0.5905
28698SOL    HW186672   2.679   9.918   9.263 -1.1540  1.1857 -0.6863
28698SOL    HW286673   2.731   9.899   9.122  0.8958 -1.2589  0.3189
28699SOL     OW86674   7.793   9.554   9.161 -0.1119 -0.1679  0.1148
28699SOL    HW186675   7.879   9.562   9.119  0.2730  0.9528  1.0621
28699SOL    HW286676   7.730   9.569   9.091  0.4243 -1.8166 -0.7671
28700SOL     OW86677   1.946   2.532   7.405 -0.8870  0.2511 -0.2111
28700SOL    HW186678   1.862   2.515   7.363 -1.8919 -1.0265  2.0820
28700SOL    HW286679   1.986   2.445   7.413 -0.1369  0.6310  0.2386
28701SOL     OW86680   0.101   3.166   3.995 -0.4441 -0.3641  0.9781
28701SOL    HW186681   0.089   3.108   4.070 -1.0467  0.3830  1.4691
28701SOL    HW286682   0.193   3.194   4.002 -0.3689 -0.6514  1.1786
28702SOL     OW86683   0.551   5.634   2.884 -0.0857  0.8249 -0.1505
28702SOL    HW186684   0.622   5.573   2.864 -1.0494  0.1183 -1.5202
28702SOL    HW286685   0.596   5.710   2.922  1.2309 -0.2690  0.5904
28703SOL     OW86686   7.967   4.298   7.313  0.0030  0.2906 -0.4278
28703SOL    HW186687   8.017   4.314   7.233  0.2990 -0.2557 -0.3583
28703SOL    HW286688   8.024   4.325   7.384 -0.3376  0.9680 -0.4042
28704SOL     OW86689   7.173   1.728   9.695 -0.1791 -0.0652 -0.2890
28704SOL    HW186690   7.261   1.764   9.691  0.1433 -0.4975  1.6589
28704SOL    HW286691   7.131   1.778   9.766 -1.4877  0.1045 -1.1602
28705SOL     OW86692   9.178   2.788   0.257  0.2342  0.3659  0.0159
28705SOL    HW186693   9.090   2.778   0.222  0.7840  0.0759 -1.3244
28705SOL    HW286694   9.198   2.880   0.243  0.2849  0.3490 -0.0218
28706SOL     OW86695   0.274   2.206   5.058 -0.0244 -0.0626  0.3515
28706SOL    HW186696   0.209   2.161   5.004  0.4737 -1.1887  0.6682
28706SOL    HW286697   0.241   2.199   5.147 -1.3535  2.6545  0.1761
28707SOL     OW86698   2.242   7.162   2.490  0.0447 -0.6502  0.2942
28707SOL    HW186699   2.167   7.222   2.483 -1.0282 -2.1165 -3.9267
28707SOL    HW286700   2.318   7.215   2.468 -0.0384  0.2424  1.9572
28708SOL     OW86701   5.520   9.989   6.447 -0.0479  0.5979 -0.2220
28708SOL    HW186702   5.554   9.901   6.433  3.0080  1.8752 -1.9175
28708SOL    HW286703   5.487  10.016   6.361 -1.1595  1.0467  0.3295
28709SOL     OW86704   0.572   7.386   4.122  0.1878 -0.3982 -1.1355
28709SOL    HW186705   0.652   7.333   4.121  0.9403  0.6660 -0.1760
28709SOL    HW286706   0.517   7.346   4.188  0.7182 -0.0607 -0.4768
28710SOL     OW86707   4.016   9.733   3.163  0.4048  0.3155  0.0203
28710SOL    HW186708   3.997   9.701   3.075 -0.8715  2.6003 -0.6148
28710SOL    HW286709   3.952   9.803   3.178  2.0807  1.5883  1.8350
28711SOL     OW86710   5.624   2.450   8.832 -0.5036 -0.1363  0.3933
28711SOL    HW186711   5.629   2.541   8.803 -1.9628  0.4713  1.8836
28711SOL    HW286712   5.534   2.440   8.863 -0.5618 -2.2977 -0.3267
28712SOL     OW86713   2.893   2.358   9.783  1.2638 -0.5379 -0.9514
28712SOL    HW186714   2.894   2.341   9.877 -0.2367  0.7838 -0.6533
28712SOL    HW286715   2.985   2.353   9.757  2.0722  1.5767  1.0949
28713SOL     OW86716   0.145   9.900   0.535  0.1538  0.7759  0.0336
28713SOL    HW186717   0.074   9.965   0.524  0.9035  1.5160 -0.5781
28713SOL    HW286718   0.225   9.950   0.519  0.9285  0.2468  1.9223
28714SOL     OW86719   4.783   2.564   6.935  0.1914 -0.5939  0.8171
28714SOL    HW186720   4.695   2.591   6.909 -0.7739 -1.6132  2.7585
28714SOL    HW286721   4.775   2.471   6.955  2.6826 -1.7483 -2.6802
28715SOL     OW86722   8.379   7.413   9.631 -0.6320  0.0526  0.1830
28715SOL    HW186723   8.439   7.474   9.674 -0.9570 -0.1358  0.9166
28715SOL    HW286724   8.292   7.439   9.661 -0.8014 -0.5709  0.2511
28716SOL     OW86725   6.716   2.532   5.604  0.2563  0.5365  0.1052
28716SOL    HW186726   6.679   2.459   5.653 -2.3940 -0.3944 -2.9264
28716SOL    HW286727   6.777   2.490   5.543  0.4433  1.1484 -0.1346
28717SOL     OW86728   0.421   8.432   7.486  0.4753  0.1188 -0.6927
28717SOL    HW186729   0.375   8.473   7.560  2.9126 -0.1595  1.1006
28717SOL    HW286730   0.406   8.338   7.498 -0.5707  0.1471 -1.6226
28718SOL     OW86731   2.154   8.176   7.657  0.5893 -0.3946  0.5601
28718SOL    HW186732   2.247   8.154   7.666  0.8971  0.7469  0.3367
28718SOL    HW286733   2.109   8.091   7.656  1.8059 -1.0653 -1.3447
28719SOL     OW86734   6.628   3.115   5.052  0.1574 -0.3055  0.1030
28719SOL    HW186735   6.633   3.048   4.984  2.1247 -0.8995  0.7433
28719SOL    HW286736   6.548   3.095   5.100 -1.6673  0.5431 -2.3733
28720SOL     OW86737   4.834   8.905   6.526 -0.1592 -0.7842  0.2470
28720SOL    HW186738   4.802   8.947   6.447 -2.8592 -3.8710 -0.5023
28720SOL    HW286739   4.801   8.960   6.597  0.3575  0.7926 -0.6903
28721SOL     OW86740   0.146   9.669   1.020  0.3492  0.6205  0.4507
28721SOL    HW186741   0.069   9.622   1.052  1.5492 -1.2944  0.7052
28721SOL    HW286742   0.167   9.731   1.090  0.5635 -0.7062  1.6169
28722SOL     OW86743   4.524   6.908   9.986  0.1517 -0.6513  0.1653
28722SOL    HW186744   4.596   6.895   9.923  0.1555  2.1812 -0.5246
28722SOL    HW286745   4.452   6.942   9.933 -0.0525  1.2106  1.5756
28723SOL     OW86746   2.664   1.516   5.214  0.1534 -0.0537 -0.8073
28723SOL    HW186747   2.670   1.597   5.164  0.9524  0.7516  0.5191
28723SOL    HW286748   2.755   1.491   5.232 -0.0987 -0.6508 -0.2988
28724SOL     OW86749   3.735   3.277   6.670 -0.3733  0.5863 -0.5903
28724SOL    HW186750   3.800   3.347   6.662 -0.1377  0.3897 -0.4377
28724SOL    HW286751   3.743   3.227   6.589 -0.7085  0.8758 -0.8022
28725SOL     OW86752   6.567   1.898   1.443 -0.5752  0.2843 -0.3773
28725SOL    HW186753   6.512   1.869   1.370 -1.0943  2.0341 -0.7307
28725SOL    HW286754   6.612   1.976   1.410  0.2264  0.3119  0.7204
28726SOL     OW86755   5.880   0.338   4.964  0.0558  0.3355 -0.1259
28726SOL    HW186756   5.964   0.296   4.982 -0.3065  0.1313  1.1681
28726SOL    HW286757   5.823   0.267   4.933  0.4096  0.5166 -1.2330
28727SOL     OW86758   0.910   7.306   8.755 -0.2422  0.4281 -0.4056
28727SOL    HW186759   0.946   7.367   8.818 -1.7026  1.1382 -0.1986
28727SOL    HW286760   0.985   7.272   8.707  0.9143 -0.1991  1.7441
28728SOL     OW86761   6.367   0.261   9.900  0.8469  0.2900  0.3647
28728SOL    HW186762   6.358   0.220   9.814 -2.3303 -0.4859  0.9491
28728SOL    HW286763   6.283   0.305   9.915  1.3834  0.6033  2.9731
28729SOL     OW86764   8.293   5.564   7.259  0.4391 -0.0859 -0.3951
28729SOL    HW186765   8.241   5.639   7.230 -0.9393 -1.2232 -1.0018
28729SOL    HW286766   8.368   5.603   7.305 -0.8340  1.6213  0.3494
28730SOL     OW86767   1.653   0.903   0.158  0.6362  0.2562  0.0607
28730SOL    HW186768   1.696   0.918   0.074  1.6270  1.2007  0.6993
28730SOL    HW286769   1.602   0.983   0.173  1.3381  0.5811  0.8364
28731SOL     OW86770   4.492   4.183   8.101 -0.1851  0.5447  0.0753
28731SOL    HW186771   4.564   4.243   8.079  0.8181 -1.5566 -2.9832
28731SOL    HW286772   4.529   4.124   8.167 -0.0289  1.1182  0.5100
28732SOL     OW86773   5.360   8.006   1.755 -0.5937  0.4164  0.5465
28732SOL    HW186774   5.447   7.967   1.760 -0.8869 -0.8593 -2.1237
28732SOL    HW286775   5.313   7.970   1.830  0.9165  0.5129  1.5868
28733SOL     OW86776   1.700   9.429   8.683  0.4886 -0.1393  0.3978
28733SOL    HW186777   1.770   9.474   8.636  0.7619  0.1010  1.0202
28733SOL    HW286778   1.624   9.438   8.627  1.3128 -1.7887 -1.0588
28734SOL     OW86779   3.253   5.863   5.456 -0.1359 -0.1497 -0.2542
28734SOL    HW186780   3.201   5.874   5.377 -0.2242  1.4809 -0.0062
28734SOL    HW286781   3.214   5.789   5.501  0.4053 -1.6309 -2.0883
28735SOL     OW86782   5.398   3.212   8.578  0.2342  0.2233 -0.0724
28735SOL    HW186783   5.437   3.297   8.559 -0.1581  0.5461  0.5445
28735SOL    HW286784   5.332   3.230   8.644  0.0755 -0.5477 -0.0102
28736SOL     OW86785   6.101   3.368   2.736  0.6744  0.2301 -0.3628
28736SOL    HW186786   6.173   3.422   2.702  2.1970 -1.6660 -0.3253
28736SOL    HW286787   6.122   3.356   2.829 -0.8263  1.3261  0.1521
28737SOL     OW86788   7.261   8.954   9.394 -0.1392 -0.1453  0.3393
28737SOL    HW186789   7.172   8.980   9.417 -0.8743 -0.2105 -2.1607
28737SOL    HW286790   7.249   8.879   9.335  1.6465 -1.0718  1.0893
28738SOL     OW86791   1.004   9.685   8.975  0.4117  0.0878 -0.4143
28738SOL    HW186792   1.059   9.668   8.899  0.7429 -0.0853 -0.1353
28738SOL    HW286793   0.948   9.607   8.982 -0.4438  0.6065 -1.1810
28739SOL     OW86794   4.046   2.459   8.796  0.3681 -0.1732  0.1666
28739SOL    HW186795   4.090   2.510   8.864  0.3371  0.4065 -0.2472
28739SOL    HW286796   4.005   2.524   8.739 -0.3448 -0.6783  0.0839
28740SOL     OW86797   4.283   2.326   7.869  0.4379  0.6295 -0.5039
28740SOL    HW186798   4.200   2.374   7.877 -0.3790 -0.7133 -0.7820
28740SOL    HW286799   4.316   2.350   7.782 -0.3194  0.1466 -0.9338
28741SOL     OW86800   0.511   8.884   6.084  0.1747 -0.0305 -0.8220
28741SOL    HW186801   0.479   8.958   6.137  2.7074  0.0723  0.7423
28741SOL    HW286802   0.433   8.832   6.066 -1.0015  0.4329  2.3111
28742SOL     OW86803   1.129   8.161   6.434 -0.1355  0.1564  0.2492
28742SOL    HW186804   1.148   8.207   6.516 -0.3428 -0.0613  0.4193
28742SOL    HW286805   1.037   8.136   6.441  0.1407 -0.8483  0.4326
28743SOL     OW86806   5.953   9.572   2.804  0.3628  0.7804 -0.0178
28743SOL    HW186807   6.025   9.618   2.763  1.2445  0.2758  0.9138
28743SOL    HW286808   5.986   9.548   2.891 -1.5938  2.2921  1.2266
28744SOL     OW86809   8.747   1.867   3.897  0.5612  0.2253  0.5210
28744SOL    HW186810   8.766   1.773   3.896  0.3831  0.1806 -0.8971
28744SOL    HW286811   8.823   1.908   3.856  0.3798  0.6470  0.5948
28745SOL     OW86812   6.034   1.505   5.837  0.1240 -0.0546 -0.5398
28745SOL    HW186813   6.021   1.594   5.804  2.2317  0.3338 -0.4813
28745SOL    HW286814   6.092   1.516   5.913  1.0312 -1.5204 -0.9697
28746SOL     OW86815   0.421   9.112   4.621 -0.1874 -0.4869  0.0732
28746SOL    HW186816   0.450   9.072   4.538 -0.0293  0.5324 -0.3735
28746SOL    HW286817   0.397   9.201   4.598 -0.1155 -0.1761  1.1386
28747SOL     OW86818   9.119   9.063   9.090 -0.2623  0.1356  0.0938
28747SOL    HW186819   9.153   8.975   9.071 -0.6322 -0.6411  2.5687
28747SOL    HW286820   9.165   9.121   9.030  2.3748 -1.3872  0.5003
28748SOL     OW86821   4.702   1.020   7.231 -0.0574  0.6660  0.2798
28748SOL    HW186822   4.631   0.961   7.255 -0.2314  1.3212  1.4476
28748SOL    HW286823   4.685   1.043   7.140 -1.0469  0.4052  0.3967
28749SOL     OW86824   4.723   5.018   6.430  0.4555 -0.3912  0.3835
28749SOL    HW186825   4.702   5.090   6.489  0.5539  0.5174 -0.6611
28749SOL    HW286826   4.734   5.059   6.345  0.1784 -1.6913 -0.3091
28750SOL     OW86827   8.609   0.591   7.356 -0.1271  0.6962 -0.2089
28750SOL    HW186828   8.578   0.665   7.408  2.7442  1.1029  1.1176
28750SOL    HW286829   8.569   0.514   7.397 -1.7383  1.3664 -0.4905
28751SOL     OW86830   6.488   4.341   9.853  0.6832 -0.1110  0.5897
28751SOL    HW186831   6.468   4.364   9.762 -0.3596  0.5105  0.9577
28751SOL    HW286832   6.576   4.377   9.868  0.1464  1.3722  0.3514
28752SOL     OW86833   0.519   2.116   9.407 -0.0333  0.1408  0.6760
28752SOL    HW186834   0.561   2.123   9.321  0.3828  1.0351  0.9407
28752SOL    HW286835   0.427   2.099   9.387  0.3029 -1.1406  0.0812
28753SOL     OW86836   8.386   9.236   6.957  0.5635 -0.5039  0.2644
28753SOL    HW186837   8.407   9.163   7.015  0.1031 -1.1993 -0.4137
28753SOL    HW286838   8.441   9.308   6.987  2.1158 -1.5501  0.0618
28754SOL     OW86839   5.532   7.274   0.826  0.3871  0.3321 -0.3713
28754SOL    HW186840   5.575   7.356   0.801  0.4566  0.7081  0.9463
28754SOL    HW286841   5.524   7.278   0.921 -1.4621 -0.2811 -0.4527
28755SOL     OW86842   4.076   0.656   6.868  0.2646  0.3685  0.5517
28755SOL    HW186843   4.122   0.699   6.795  0.2239  0.4141  0.5531
28755SOL    HW286844   4.090   0.715   6.942 -0.6967  0.9283  0.3083
28756SOL     OW86845   3.419   8.074   5.943  0.0354 -0.4064  0.7685
28756SOL    HW186846   3.477   8.003   5.916  1.8589  1.6676 -1.1156
28756SOL    HW286847   3.341   8.063   5.887  0.4542 -0.7358  0.2400
28757SOL     OW86848   8.089   0.641   3.484  0.0909 -0.4267  0.3947
28757SOL    HW186849   8.115   0.716   3.536 -0.6030  1.4859 -1.8271
28757SOL    HW286850   8.156   0.575   3.500  2.2701  1.6659  0.3547
28758SOL     OW86851   5.059   2.811   8.573 -0.6399 -0.2898  0.3841
28758SOL    HW186852   5.087   2.902   8.570  0.9689 -0.7549  0.2140
28758SOL    HW286853   5.134   2.764   8.611 -1.8498 -1.3996  1.5047
28759SOL     OW86854   7.746   6.221   9.754 -0.2440 -0.1842 -0.2639
28759SOL    HW186855   7.805   6.295   9.744  0.3257 -0.8366 -2.2654
28759SOL    HW286856   7.795   6.146   9.719 -1.0114 -1.4186  1.1655
28760SOL     OW86857   8.451   1.161   3.526 -0.2793 -0.1780  0.4170
28760SOL    HW186858   8.409   1.236   3.484  1.2686  0.2841 -0.3600
28760SOL    HW286859   8.419   1.085   3.478 -0.2696  0.1594 -0.1311
28761SOL     OW86860   1.691   4.315   1.030 -0.3809  0.6373 -0.5688
28761SOL    HW186861   1.774   4.276   1.059 -0.0643  1.7407  0.0527
28761SOL    HW286862   1.678   4.389   1.089 -2.1822  0.0545 -0.1949
28762SOL     OW86863   0.361   8.478   5.779 -0.0318  0.0601  0.1049
28762SOL    HW186864   0.435   8.539   5.773  0.3823 -0.4745 -0.3737
28762SOL    HW286865   0.340   8.474   5.872 -1.0334  2.0752  0.0132
28763SOL     OW86866   8.764   5.011   6.251 -0.1234  1.0441 -0.0451
28763SOL    HW186867   8.825   5.036   6.320  0.3235  1.8560 -0.7200
28763SOL    HW286868   8.759   4.915   6.256  1.2404  0.9622 -0.0012
28764SOL     OW86869   8.668   4.681   4.171  0.0263  0.0995 -0.3992
28764SOL    HW186870   8.643   4.766   4.207  1.0331 -0.3054  1.3947
28764SOL    HW286871   8.760   4.691   4.148  0.3069 -0.6240  0.3305
28765SOL     OW86872   2.829   1.807   2.604 -0.4592  0.2213  0.1907
28765SOL    HW186873   2.737   1.835   2.610 -0.0921  1.3159  1.1402
28765SOL    HW286874   2.825   1.712   2.599 -1.6241  0.1777  1.3527
28766SOL     OW86875   2.100   3.697   0.520 -0.0931  0.0205  0.0314
28766SOL    HW186876   2.111   3.681   0.614 -1.3558  0.4392  0.2781
28766SOL    HW286877   2.088   3.792   0.513 -5.4727 -0.3183  0.2104
28767SOL     OW86878   8.225   5.708   3.958  0.2140 -0.0624 -0.1484
28767SOL    HW186879   8.291   5.655   3.915  0.3080 -0.0193 -0.0581
28767SOL    HW286880   8.271   5.749   4.031 -0.2739 -1.2312  0.8390
28768SOL     OW86881   3.558   9.221   7.580  0.2085 -0.2535 -0.0443
28768SOL    HW186882   3.647   9.235   7.549  0.2166  0.3815  0.2454
28768SOL    HW286883   3.551   9.127   7.592  0.5507 -0.4051 -0.9253
28769SOL     OW86884   6.735   5.410   6.231 -0.1499  0.1111 -0.5856
28769SOL    HW186885   6.650   5.366   6.239 -0.6779  1.0848 -0.7172
28769SOL    HW286886   6.795   5.356   6.284 -0.4518 -1.5539 -1.8581
28770SOL     OW86887   6.248   8.055   1.374 -0.4741 -0.4086 -0.1156
28770SOL    HW186888   6.236   8.144   1.341  0.5732 -0.8054 -1.6776
28770SOL    HW286889   6.224   7.998   1.301 -1.3165 -1.4451  0.9234
28771SOL     OW86890   8.629   1.400   9.647  0.0909 -0.1459  0.4980
28771SOL    HW186891   8.553   1.343   9.658  0.2834 -0.0496  2.9326
28771SOL    HW286892   8.605   1.481   9.693  0.9218  0.6531 -0.4228
28772SOL     OW86893   9.671   3.111   7.329  0.4365 -0.4699  0.4886
28772SOL    HW186894   9.646   3.129   7.419  0.8992 -1.9569  0.9425
28772SOL    HW286895   9.610   3.042   7.301  0.4820 -0.2200 -0.2454
28773SOL     OW86896   5.055   1.981   5.211  0.2753 -0.2091 -1.0683
28773SOL    HW186897   5.150   1.974   5.211  0.3255  0.3421  0.0823
28773SOL    HW286898   5.024   1.892   5.230  0.6016 -0.1267 -0.1062
28774SOL     OW86899   5.853   1.915   9.014 -0.3914 -0.2687  0.0457
28774SOL    HW186900   5.830   1.874   9.098  0.5239  0.0859  0.4823
28774SOL    HW286901   5.774   1.907   8.961 -1.1407 -0.0932  1.1052
28775SOL     OW86902   9.297   6.555   2.931 -0.0751 -0.0819  0.0713
28775SOL    HW186903   9.379   6.547   2.883 -0.7299  0.1865 -1.1298
28775SOL    HW286904   9.252   6.471   2.916  0.2645 -0.5070  1.3049
28776SOL     OW86905   8.294   6.409   9.002 -0.2439 -0.0319  0.0300
28776SOL    HW186906   8.318   6.322   8.969  1.1109  0.4825 -0.4020
28776SOL    HW286907   8.371   6.463   8.985 -1.3944  1.4974 -0.5733
28777SOL     OW86908   1.937   2.403   8.828 -0.2234 -0.3885 -0.5169
28777SOL    HW186909   1.877   2.466   8.789  0.1013 -0.2287 -0.7650
28777SOL    HW286910   1.896   2.379   8.912  1.6075  3.3614  1.6953
28778SOL     OW86911   3.310   4.866   1.644  0.6624 -0.0247  0.4830
28778SOL    HW186912   3.366   4.788   1.644 -1.8231 -2.1404 -3.0180
28778SOL    HW286913   3.291   4.882   1.736  1.9431 -3.0810  1.4185
28779SOL     OW86914   3.813   1.625   6.345 -0.5100 -0.0101 -0.3577
28779SOL    HW186915   3.733   1.668   6.315  0.5366  0.7565 -2.2251
28779SOL    HW286916   3.849   1.685   6.410  0.3688  1.5325 -2.1477
28780SOL     OW86917   0.825   2.566   2.080 -0.1595  0.1920 -0.0637
28780SOL    HW186918   0.826   2.642   2.023  0.7686 -0.1769 -0.5719
28780SOL    HW286919   0.867   2.596   2.161 -0.3194  0.3733 -0.0478
28781SOL     OW86920   5.868   7.428   5.423  0.3238 -0.2572  0.2830
28781SOL    HW186921   5.906   7.343   5.444  0.4379 -0.4633 -0.7050
28781SOL    HW286922   5.885   7.482   5.500  0.3755 -1.0827  0.8623
28782SOL     OW86923   5.290   5.558   8.140 -0.0337 -0.1223 -0.2587
28782SOL    HW186924   5.352   5.618   8.180 -0.2042 -0.9930  1.3858
28782SOL    HW286925   5.269   5.494   8.209 -0.4644 -1.6009 -1.6836
28783SOL     OW86926   4.152   8.865   7.094 -0.0559 -0.0933 -0.2600
28783SOL    HW186927   4.058   8.851   7.088 -0.0728 -0.5140  0.6905
28783SOL    HW286928   4.184   8.790   7.145  0.7172  0.3043 -0.1365
28784SOL     OW86929   2.410   2.630   6.053 -0.0930  0.1508 -0.5382
28784SOL    HW186930   2.364   2.647   5.970 -2.6672 -2.6069  0.1332
28784SOL    HW286931   2.481   2.570   6.029  1.2778  1.9242 -1.1253
28785SOL     OW86932   9.100   8.783   0.520  0.3200  0.6003  0.5454
28785SOL    HW186933   9.022   8.751   0.565 -0.1022  0.8392 -0.0109
28785SOL    HW286934   9.067   8.821   0.439  0.9798  1.0260  0.4738
28786SOL     OW86935   3.495   0.584   1.401 -0.1291  0.0275 -0.0593
28786SOL    HW186936   3.547   0.651   1.357 -0.4812  0.7295  0.5940
28786SOL    HW286937   3.559   0.518   1.428  0.1686 -0.1063 -1.0487
28787SOL     OW86938   2.674   1.095   6.362 -0.0547  0.1759 -0.3551
28787SOL    HW186939   2.760   1.091   6.320 -0.2930  0.3998 -0.8764
28787SOL    HW286940   2.617   1.134   6.295 -0.3713  0.8603  0.3028
28788SOL     OW86941   6.162   8.602   6.963 -0.4484 -0.1199  0.3122
28788SOL    HW186942   6.087   8.639   6.915  0.2234 -0.2968 -0.9123
28788SOL    HW286943   6.148   8.507   6.959  1.4432 -0.3983 -2.8030
28789SOL     OW86944   4.302   2.772   2.067 -0.4841 -0.2316  0.2978
28789SOL    HW186945   4.330   2.744   1.980 -1.0577 -0.8590  0.3075
28789SOL    HW286946   4.369   2.835   2.095 -0.2026 -0.1567 -0.5187
28790SOL     OW86947   2.783   5.979   7.757  0.1175  0.0355 -0.1291
28790SOL    HW186948   2.719   5.917   7.721  0.0026  0.4818 -0.7146
28790SOL    HW286949   2.766   6.060   7.710  1.0493  0.1887 -0.2132
28791SOL     OW86950   2.709   6.991   1.581  0.0590 -0.2312  0.5915
28791SOL    HW186951   2.656   6.913   1.597 -0.3712 -0.4832 -1.6509
28791SOL    HW286952   2.646   7.062   1.575  0.0632 -0.3081 -0.7181
28792SOL     OW86953   6.864   6.806   1.377  0.0422 -0.4055 -0.1682
28792SOL    HW186954   6.877   6.732   1.437 -1.5713 -0.5733  0.0083
28792SOL    HW286955   6.859   6.883   1.434 -0.0783 -0.3889 -0.1999
28793SOL     OW86956   8.735   8.610   0.600  0.0078 -0.2467  0.0213
28793SOL    HW186957   8.680   8.581   0.672 -1.3619 -0.3892 -1.0420
28793SOL    HW286958   8.813   8.647   0.642 -1.3579  0.9547  1.6033
28794SOL     OW86959   6.440   7.741   7.980 -0.2395 -0.1945  0.1302
28794SOL    HW186960   6.498   7.731   7.904  1.0010 -0.4626  1.0709
28794SOL    HW286961   6.455   7.831   8.009 -0.6183 -0.1301  0.1259
28795SOL     OW86962   5.777   8.911   3.146  0.2650  0.3638 -0.5613
28795SOL    HW186963   5.782   8.927   3.052  3.5654  0.1073 -0.5560
28795SOL    HW286964   5.822   8.827   3.158 -0.0485  0.4204  1.2536
28796SOL     OW86965   1.740   2.190   2.725 -0.1748 -0.2228 -0.2657
28796SOL    HW186966   1.682   2.118   2.750 -0.1323 -0.2278 -0.1838
28796SOL    HW286967   1.721   2.260   2.787 -0.6355  0.0501 -0.7033
28797SOL     OW86968   3.739   3.072   6.433 -0.0022 -0.6446 -0.0821
28797SOL    HW186969   3.694   2.989   6.447  0.7799 -1.2543 -1.0299
28797SOL    HW286970   3.679   3.123   6.379 -0.1440 -0.9197 -0.1850
28798SOL     OW86971   2.565   6.994   2.618  0.0594  0.1301 -0.5076
28798SOL    HW186972   2.549   6.997   2.523  2.6094 -0.8051 -1.0536
28798SOL    HW286973   2.602   7.080   2.639 -0.0522  0.1653 -0.4539
28799SOL     OW86974   0.967   8.834   6.084  0.1124 -0.3800  0.0572
28799SOL    HW186975   0.987   8.897   6.015 -0.3721  0.6727  0.8421
28799SOL    HW286976   0.883   8.796   6.057  0.9481 -1.5512 -0.9917
28800SOL     OW86977   0.786   5.285   0.362 -0.0055 -0.2596 -0.2625
28800SOL    HW186978   0.691   5.295   0.348  0.0161  1.3098  0.4778
28800SOL    HW286979   0.796   5.290   0.457  0.9890  1.8403 -0.4132
28801SOL     OW86980   8.411   9.277   4.464  0.2919 -0.2244  0.5102
28801SOL    HW186981   8.461   9.197   4.446  2.0021  0.5580  1.5646
28801SOL    HW286982   8.390   9.271   4.557 -0.8318 -0.1056  0.2754
28802SOL     OW86983   6.753   5.250   4.831  0.2641 -0.1897 -0.4015
28802SOL    HW186984   6.694   5.287   4.897  0.6034  0.6314 -0.5444
28802SOL    HW286985   6.833   5.302   4.840  1.0268 -1.3795 -0.1039
28803SOL     OW86986   1.333   9.744   6.045 -0.4287  0.3623  0.0517
28803SOL    HW186987   1.351   9.825   5.998 -2.4330  1.5899  1.2672
28803SOL    HW286988   1.416   9.725   6.090  0.2594  1.3889 -0.7188
28804SOL     OW86989   7.016   6.366   7.273 -0.3801  0.4816  0.2234
28804SOL    HW186990   6.960   6.308   7.221 -0.7267  0.6332  0.4200
28804SOL    HW286991   7.053   6.427   7.209 -0.0748  0.0951  0.0270
28805SOL     OW86992   1.655   3.199   9.043  0.1197  0.2536 -0.0288
28805SOL    HW186993   1.625   3.130   9.102  1.5706 -0.6147 -0.2367
28805SOL    HW286994   1.638   3.281   9.090  0.6191 -0.3827  1.3074
28806SOL     OW86995   1.288   6.627   4.618  0.1111 -0.1284 -0.4359
28806SOL    HW186996   1.314   6.555   4.561  1.4426 -0.1364  0.1420
28806SOL    HW286997   1.365   6.684   4.620  0.5764 -0.7097  2.2489
28807SOL     OW86998   1.148   3.029   2.358  0.3035  0.4443 -0.3356
28807SOL    HW186999   1.095   3.008   2.281  0.1885  0.3576 -0.2317
28807SOL    HW287000   1.213   3.091   2.325  0.3283  0.3165 -0.5290
28808SOL     OW87001   3.500   0.575   2.436  0.7680 -0.0448  0.1693
28808SOL    HW187002   3.435   0.508   2.412  1.3799 -0.3484 -0.6764
28808SOL    HW287003   3.447   0.650   2.463  0.0646 -0.9491  1.4016
28809SOL     OW87004   1.339   4.368   1.971 -0.4555  0.2120  0.0865
28809SOL    HW187005   1.286   4.289   1.988  0.3973 -0.2571  0.6719
28809SOL    HW287006   1.425   4.334   1.948  0.0936  0.9809  0.9600
28810SOL     OW87007   9.097   8.686   2.333  0.4401  0.3623 -0.4309
28810SOL    HW187008   9.003   8.702   2.342  0.2584 -0.0281 -1.5220
28810SOL    HW287009   9.104   8.591   2.321  1.2639 -0.1679  2.9591
28811SOL     OW87010   2.117   1.511   6.487 -0.2534  0.6741  0.4911
28811SOL    HW187011   2.046   1.537   6.428 -0.7457  0.8136  1.1332
28811SOL    HW287012   2.157   1.593   6.515  2.9098  0.5967 -3.0419
28812SOL     OW87013   2.469   7.924   8.510 -0.4511 -0.1224 -0.4593
28812SOL    HW187014   2.468   7.936   8.605 -0.0143 -1.3551 -0.2790
28812SOL    HW287015   2.379   7.940   8.482 -0.9191 -1.2027  0.3717
28813SOL     OW87016   4.454   7.943   9.748 -0.7469  0.1217  0.2415
28813SOL    HW187017   4.363   7.914   9.761 -1.4268  1.7017 -0.6819
28813SOL    HW287018   4.505   7.891   9.810 -2.5010  0.3246  1.9430
28814SOL     OW87019   8.506   6.913   0.585 -0.4606 -0.0672 -0.0167
28814SOL    HW187020   8.519   6.856   0.509 -0.2172 -3.2227  2.1965
28814SOL    HW287021   8.458   6.988   0.551 -0.0074 -1.1310 -3.3332
28815SOL     OW87022   9.381   9.433   8.137 -0.2953 -0.6214  0.9504
28815SOL    HW187023   9.291   9.443   8.168 -0.6453 -0.6934 -0.0029
28815SOL    HW287024   9.434   9.479   8.202 -1.2559  1.8348  0.1374
28816SOL     OW87025   2.383   9.826   2.977 -0.4256  0.0378 -0.1771
28816SOL    HW187026   2.330   9.905   2.968  0.0352  0.3035 -0.6596
28816SOL    HW287027   2.390   9.791   2.888 -0.4810 -0.4544  0.0049
28817SOL     OW87028   7.157   3.844   1.758 -0.0814  0.1350 -0.0556
28817SOL    HW187029   7.080   3.840   1.815  0.5336 -0.2506  0.7722
28817SOL    HW287030   7.161   3.758   1.717 -0.7676  0.5532 -1.0273
28818SOL     OW87031   1.040   0.018   0.396 -0.4584  0.0980  0.1786
28818SOL    HW187032   0.967   0.080   0.405 -1.3954 -0.9299 -0.1493
28818SOL    HW287033   1.001  -0.060   0.356  0.8477 -0.4425 -0.0961
28819SOL     OW87034   1.377   9.861   5.426 -0.0551  0.1498  0.0144
28819SOL    HW187035   1.293   9.856   5.472 -1.4612  2.2936 -2.0723
28819SOL    HW287036   1.387   9.775   5.386 -1.9321  0.2047 -0.7022
28820SOL     OW87037   8.233   9.958   9.708 -0.0502  0.3068  0.6054
28820SOL    HW187038   8.273   9.930   9.626  1.3641 -1.4119  1.7995
28820SOL    HW287039   8.266  10.047   9.721  1.1213 -0.0398  0.1338
28821SOL     OW87040   2.114   3.329   9.115 -0.2513 -0.0332 -0.1491
28821SOL    HW187041   2.090   3.240   9.140  0.5836 -1.1408 -2.9074
28821SOL    HW287042   2.206   3.323   9.090  0.0151  1.7789  0.2598
28822SOL     OW87043   4.112   7.811   7.951 -0.1686 -0.1093  0.3976
28822SOL    HW187044   4.061   7.848   8.023  0.2347 -1.1562  1.2468
28822SOL    HW287045   4.052   7.812   7.877 -0.6226  0.8974  0.7600
28823SOL     OW87046   0.288   6.079   7.019  0.0764  0.5478 -0.9040
28823SOL    HW187047   0.239   6.131   6.955  0.1285  1.0370 -0.5499
28823SOL    HW287048   0.341   6.019   6.966  0.8079  1.5634 -1.3595
28824SOL     OW87049   0.253   9.815   7.123  0.0196 -0.0434  0.2968
28824SOL    HW187050   0.218   9.735   7.163 -1.1998  0.8794  1.1235
28824SOL    HW287051   0.213   9.817   7.036  2.9311 -2.2296 -1.2846
28825SOL     OW87052   8.829   8.598   3.870 -0.1495 -0.6343 -0.2705
28825SOL    HW187053   8.804   8.525   3.814 -0.0354 -0.7729 -0.1424
28825SOL    HW287054   8.752   8.654   3.873 -0.4526 -1.0661  0.1389
28826SOL     OW87055   6.741   7.115   5.033  0.3162  0.5949  0.1397
28826SOL    HW187056   6.670   7.089   4.975 -1.2048  0.7900  1.8283
28826SOL    HW287057   6.785   7.033   5.057  0.7797  0.4903 -1.0309
28827SOL     OW87058   7.079   1.223   2.900 -0.0419  0.3856 -0.2976
28827SOL    HW187059   7.165   1.182   2.904  0.0724  0.5402 -1.1523
28827SOL    HW287060   7.065   1.258   2.988 -0.1720 -1.5337  0.5089
28828SOL     OW87061   2.959   2.678   6.901  0.0701 -0.2734  0.3121
28828SOL    HW187062   2.904   2.614   6.857 -0.3798  0.2818  0.0574
28828SOL    HW287063   2.900   2.751   6.922  0.4822 -0.1201  0.9725
28829SOL     OW87064   1.614   1.856   7.024  0.1853  0.4098  0.0200
28829SOL    HW187065   1.667   1.854   7.103  0.5071  1.6539 -0.1363
28829SOL    HW287066   1.524   1.844   7.055  0.5227 -1.8387  0.2720
28830SOL     OW87067   5.197   5.681   2.364 -0.3853  0.2130 -0.7026
28830SOL    HW187068   5.107   5.694   2.395 -0.2808 -0.1031 -0.2537
28830SOL    HW287069   5.252   5.722   2.430 -0.1871  0.1787 -0.8444
28831SOL     OW87070   9.047   1.262   0.965  0.2970  0.3359  0.4249
28831SOL    HW187071   9.077   1.352   0.957  1.9633 -0.1739  0.4748
28831SOL    HW287072   9.032   1.234   0.875 -1.7865  1.1198  0.4874
28832SOL     OW87073   5.375   1.353   3.318  0.1893  0.2239  0.3485
28832SOL    HW187074   5.282   1.357   3.339  0.1056  0.1486  0.0073
28832SOL    HW287075   5.383   1.406   3.238  0.1578 -1.0820 -0.5636
28833SOL     OW87076   2.805   3.810   4.464  0.5196 -0.3571 -0.7943
28833SOL    HW187077   2.743   3.844   4.399 -0.7022 -1.1571 -0.0818
28833SOL    HW287078   2.848   3.737   4.420  0.7371 -0.0055 -1.1793
28834SOL     OW87079   5.269   3.373   6.540 -0.5506  0.0716 -0.7540
28834SOL    HW187080   5.290   3.412   6.455  2.5059  0.1521 -0.0744
28834SOL    HW287081   5.331   3.301   6.549 -0.5019  0.3506  1.6234
28835SOL     OW87082   7.668   7.015   7.052 -0.4224  0.6283  0.2027
28835SOL    HW187083   7.730   6.967   7.108 -0.7123 -0.5295 -0.4361
28835SOL    HW287084   7.723   7.075   7.001 -0.0148  0.7438  0.7669
28836SOL     OW87085   1.682   2.963   5.644 -0.9450 -0.0076  0.2420
28836SOL    HW187086   1.695   2.870   5.661  1.2578  0.2918  0.4665
28836SOL    HW287087   1.738   3.007   5.708 -3.4814  1.5922  1.5476
28837SOL     OW87088   0.560   2.532   0.086 -0.8141 -0.0098 -0.7546
28837SOL    HW187089   0.486   2.583   0.117  0.4321  0.3875  1.8413
28837SOL    HW287090   0.521   2.454   0.046 -2.6278  0.4521  0.0364
28838SOL     OW87091   9.910   8.785   3.749  0.4565 -0.1020 -0.1872
28838SOL    HW187092   9.921   8.849   3.819  0.4322  1.1813 -1.3038
28838SOL    HW287093   9.947   8.704   3.783 -0.0681  0.3438  1.4982
28839SOL     OW87094   8.082   8.717   7.706  0.1934  0.4718  0.1505
28839SOL    HW187095   8.108   8.663   7.781  0.8726 -0.8655 -0.9954
28839SOL    HW287096   8.112   8.805   7.728 -0.1120  0.2232  1.6737
28840SOL     OW87097   5.621   3.741   5.090  0.1153 -0.5569 -0.3619
28840SOL    HW187098   5.637   3.675   5.023 -0.6082 -1.4397  0.3133
28840SOL    HW287099   5.668   3.710   5.167  1.1783  0.5977 -0.5036
28841SOL     OW87100   0.800   4.686   7.101 -0.4148  0.1748 -0.2433
28841SOL    HW187101   0.764   4.632   7.172  0.3374 -0.4687 -0.3366
28841SOL    HW287102   0.728   4.743   7.075 -1.3312 -0.9873 -0.3307
28842SOL     OW87103   6.947   4.536   9.081  0.3680 -0.4287 -0.1110
28842SOL    HW187104   6.927   4.622   9.045  0.3111 -0.2364  0.3764
28842SOL    HW287105   7.008   4.497   9.018 -0.9129 -0.7219 -1.2147
28843SOL     OW87106   3.628   2.975   3.100  0.7877  0.3760  0.0961
28843SOL    HW187107   3.703   3.034   3.104  0.5531  0.6909 -0.1565
28843SOL    HW287108   3.624   2.937   3.188  0.5889  1.1758  0.4425
28844SOL     OW87109   0.921   5.229   0.955  0.4597  0.3000  0.4333
28844SOL    HW187110   0.972   5.261   0.881  0.3280 -1.2521 -0.3584
28844SOL    HW287111   0.871   5.306   0.984  2.3588  1.5755  0.5408
28845SOL     OW87112   2.322   0.940   8.545 -0.2162  0.1284 -0.2559
28845SOL    HW187113   2.293   0.869   8.487  1.5091 -1.4572  0.7272
28845SOL    HW287114   2.403   0.972   8.506  0.2516 -0.0543  0.5322
28846SOL     OW87115   5.582   7.265   3.606 -0.1261 -0.2750  0.2736
28846SOL    HW187116   5.528   7.260   3.527 -0.7358  0.3963  0.6410
28846SOL    HW287117   5.609   7.356   3.611 -0.1229 -0.3054  0.8612
28847SOL     OW87118   7.072   4.470   9.906  0.4766 -0.1884  0.8725
28847SOL    HW187119   7.116   4.553   9.921 -1.1315  0.8111  0.3430
28847SOL    HW287120   7.071   4.460   9.811  0.2481 -0.5743  0.9118
28848SOL     OW87121   2.127   1.645   0.296 -0.1523 -0.1670 -0.3659
28848SOL    HW187122   2.196   1.612   0.354  0.7150  1.0634 -0.6444
28848SOL    HW287123   2.160   1.630   0.207 -0.3789  0.1341 -0.5063
28849SOL     OW87124   8.286   0.760   9.105 -0.6060 -0.3763  0.0391
28849SOL    HW187125   8.359   0.792   9.051 -0.1493  2.2272  1.9841
28849SOL    HW287126   8.214   0.749   9.043  1.0716 -2.0577 -1.7813
28850SOL     OW87127   7.647   7.384   5.109 -0.1933  0.0463  0.2966
28850SOL    HW187128   7.559   7.417   5.095 -0.2912 -0.1454  0.4602
28850SOL    HW287129   7.674   7.421   5.194 -0.3893 -0.4731  0.5898
28851SOL     OW87130   5.499   9.729   7.446  0.5477  0.0477  0.1351
28851SOL    HW187131   5.550   9.651   7.469 -0.3669 -0.0130  2.2458
28851SOL    HW287132   5.534   9.758   7.362 -0.4428 -3.8568 -1.8851
28852SOL     OW87133   3.877   2.377   9.747  0.9857  0.9395 -0.3690
28852SOL    HW187134   3.810   2.311   9.727  1.5741  0.8695 -2.2727
28852SOL    HW287135   3.847   2.416   9.829 -1.2216  0.6747 -0.9631
28853SOL     OW87136   7.819   4.591   6.205 -0.0659 -0.6649 -0.2664
28853SOL    HW187137   7.822   4.495   6.208 -0.3662 -0.6985 -0.8082
28853SOL    HW287138   7.896   4.619   6.255  1.2676 -1.2331 -1.8790
28854SOL     OW87139   0.437   7.019   5.182  0.5780 -0.2423  0.1953
28854SOL    HW187140   0.400   7.044   5.097  2.2617 -1.0402 -0.8147
28854SOL    HW287141   0.472   7.100   5.217 -0.6915  0.2187  0.4535
28855SOL     OW87142   1.522   6.527   9.596 -0.0346  0.1914 -0.6936
28855SOL    HW187143   1.581   6.600   9.616  2.1519 -1.0379 -2.2934
28855SOL    HW287144   1.435   6.567   9.593  0.5849  2.0279  2.0359
28856SOL     OW87145   4.148   7.227   1.533 -0.6223  0.4531  0.0820
28856SOL    HW187146   4.074   7.178   1.568 -1.3012  2.3060  1.3931
28856SOL    HW287147   4.107   7.296   1.480  0.1882  0.9440  0.0849
28857SOL     OW87148   0.457   9.968   6.878  0.4123  0.1984  0.2584
28857SOL    HW187149   0.435   9.888   6.829 -0.0507  0.8703 -0.6709
28857SOL    HW287150   0.374  10.014   6.888  0.9283  1.4461 -0.8705
28858SOL     OW87151   9.404   5.478   0.894 -0.1514  0.0836  0.3351
28858SOL    HW187152   9.380   5.570   0.880  0.3138  0.3272  1.0905
28858SOL    HW287153   9.332   5.428   0.855 -0.8213  0.7770  0.6680
28859SOL     OW87154   8.845   4.182   4.542  0.1320  0.1955  0.5570
28859SOL    HW187155   8.922   4.233   4.566  0.8722 -1.5440  2.1741
28859SOL    HW287156   8.780   4.205   4.609 -0.5404  1.1616 -0.4119
28860SOL     OW87157   4.513   6.655   8.668  0.4630  0.3945 -0.4373
28860SOL    HW187158   4.506   6.730   8.726 -0.4132  0.1584 -0.2215
28860SOL    HW287159   4.606   6.631   8.671  0.6045  0.9810  0.0992
28861SOL     OW87160   6.108  -0.005   4.403  0.0059 -0.1010  0.3087
28861SOL    HW187161   6.203  -0.005   4.413  0.1796 -2.7762 -0.6945
28861SOL    HW287162   6.093   0.047   4.324  0.5699  0.7214  0.7237
28862SOL     OW87163   8.482   1.596   0.242 -0.5513 -0.2876 -0.2532
28862SOL    HW187164   8.495   1.502   0.232  2.0219 -0.1027  0.4725
28862SOL    HW287165   8.569   1.630   0.266 -1.4951  2.2065  0.0035
28863SOL     OW87166   1.162   9.920   8.431 -0.5296 -0.2998 -0.3489
28863SOL    HW187167   1.096   9.901   8.498  0.1335 -2.0598 -0.1457
28863SOL    HW287168   1.220   9.984   8.473 -0.4077 -1.0054  0.5912
28864SOL     OW87169   3.959   5.382   7.243 -0.3799  0.3207 -0.1687
28864SOL    HW187170   3.939   5.475   7.254 -1.0442 -0.0615  2.7026
28864SOL    HW287171   4.044   5.370   7.287 -0.8323 -0.6026  0.4826
28865SOL     OW87172   6.992   9.665   4.941 -0.3115 -0.0476  0.5899
28865SOL    HW187173   7.067   9.637   4.888 -1.8325 -1.4474 -0.9575
28865SOL    HW287174   6.965   9.586   4.988  0.6229  1.0133  3.1479
28866SOL     OW87175   1.320   4.004   4.013  0.1136  0.4040  0.1005
28866SOL    HW187176   1.307   4.098   4.025  0.5565  0.5068 -0.2048
28866SOL    HW287177   1.403   3.985   4.057  0.9346  0.4967 -1.3557
28867SOL     OW87178   0.586   4.275   2.173 -0.6193 -0.2562  0.0844
28867SOL    HW187179   0.673   4.260   2.211  0.0947 -2.1918 -2.0706
28867SOL    HW287180   0.527   4.226   2.230 -0.0196 -0.5657  0.4529
28868SOL     OW87181   7.891   9.302   6.950  0.5935  0.5329 -0.4367
28868SOL    HW187182   7.965   9.250   6.981  1.4547  0.3194 -2.7123
28868SOL    HW287183   7.887   9.285   6.856 -1.7615  1.3024 -0.5369
28869SOL     OW87184   7.295   2.109   7.250 -0.0742  0.0156  0.8910
28869SOL    HW187185   7.321   2.042   7.186  1.0181  0.6319  0.6566
28869SOL    HW287186   7.225   2.157   7.207  0.7840  0.5476  0.0563
28870SOL     OW87187   0.663   3.833   1.397  0.0969  0.4925 -0.0390
28870SOL    HW187188   0.661   3.863   1.488 -0.2236 -1.1060  0.5085
28870SOL    HW287189   0.620   3.748   1.398  0.2344  0.3650 -1.6686
28871SOL     OW87190   9.857   0.834   3.264  0.6183  0.0925  0.6435
28871SOL    HW187191   9.902   0.913   3.294  1.1637  0.3877 -0.8597
28871SOL    HW287192   9.766   0.860   3.256  1.1797  1.5784 -2.7284
28872SOL     OW87193   0.224   5.625   9.349  0.7084  0.3492 -0.5768
28872SOL    HW187194   0.306   5.640   9.396  0.4651 -0.7423  0.2532
28872SOL    HW287195   0.202   5.710   9.312  0.4995  1.5357  2.0192
28873SOL     OW87196   3.984   3.486   1.308 -0.1051  0.0579 -0.2296
28873SOL    HW187197   3.967   3.497   1.215 -0.0281 -0.9263 -0.3769
28873SOL    HW287198   3.910   3.435   1.341  0.4824 -0.6835 -0.0224
28874SOL     OW87199   4.049   3.326   8.767 -0.2535  0.0773  0.1227
28874SOL    HW187200   4.111   3.285   8.827 -0.3369  0.7139  0.6626
28874SOL    HW287201   4.102   3.357   8.694 -0.1132 -0.4763 -0.0120
28875SOL     OW87202   0.578   6.892   2.988 -0.1271  0.2163  0.1349
28875SOL    HW187203   0.599   6.986   2.985 -0.2494  0.2165 -0.9786
28875SOL    HW287204   0.639   6.851   2.928 -0.4296 -0.3512  0.2082
28876SOL     OW87205   7.702   7.541   6.098 -0.2996 -0.1413 -0.7492
28876SOL    HW187206   7.767   7.610   6.088 -0.4042  0.0487 -0.1018
28876SOL    HW287207   7.753   7.464   6.123 -0.4963  0.4706  1.7373
28877SOL     OW87208   7.006   1.653   3.788 -0.4730 -0.1027  0.2770
28877SOL    HW187209   7.100   1.650   3.804 -0.2907 -0.5184 -0.7484
28877SOL    HW287210   6.978   1.562   3.794 -0.4640 -0.2332 -1.1640
28878SOL     OW87211   3.143   9.248   5.055 -0.7636  0.1384 -0.5389
28878SOL    HW187212   3.148   9.159   5.088 -0.3627  0.2982 -0.1539
28878SOL    HW287213   3.105   9.299   5.127 -1.9969  0.0929 -1.1412
28879SOL     OW87214   6.274   8.878   5.518  0.1179 -0.1188  0.1914
28879SOL    HW187215   6.250   8.793   5.481  2.4184 -0.1647 -1.3912
28879SOL    HW287216   6.340   8.859   5.584  1.3490  0.4559 -0.8326
28880SOL     OW87217   0.508   7.491   8.670 -0.2796 -0.2527 -0.0709
28880SOL    HW187218   0.489   7.407   8.712  0.1921 -1.1397 -1.5412
28880SOL    HW287219   0.575   7.532   8.725 -1.9571  0.1547  1.8104
28881SOL     OW87220   0.799   4.229   3.314  0.0357  0.3520 -0.1728
28881SOL    HW187221   0.815   4.164   3.246  1.6287  0.5506 -0.0203
28881SOL    HW287222   0.710   4.260   3.298 -0.2566 -0.8975 -1.0534
28882SOL     OW87223   2.082   5.382   1.346  0.3863  0.2446 -0.1677
28882SOL    HW187224   2.000   5.427   1.326  0.4181  0.0184 -0.8311
28882SOL    HW287225   2.056   5.309   1.401  0.0096 -0.3654 -1.1229
28883SOL     OW87226   2.185   3.982   6.077 -0.2829  0.5594  0.5279
28883SOL    HW187227   2.257   3.921   6.096  1.0155  1.6825 -0.5786
28883SOL    HW287228   2.213   4.065   6.115 -0.8350  1.1025 -0.2279
28884SOL     OW87229   4.926   3.998   8.343 -0.3024  0.6359 -0.7208
28884SOL    HW187230   5.006   4.027   8.387 -0.8529  0.8863  0.1333
28884SOL    HW287231   4.956   3.931   8.281  0.2682 -1.2677  1.4879
28885SOL     OW87232   3.815   2.387   3.695  0.6452  0.0794  0.0650
28885SOL    HW187233   3.749   2.364   3.630 -0.3109  0.3433  0.9054
28885SOL    HW287234   3.895   2.343   3.666 -0.2754 -1.4897 -0.1929
28886SOL     OW87235   8.862   1.549   1.658  0.0075 -0.3171  0.3528
28886SOL    HW187236   8.847   1.635   1.619  2.1354 -0.7432 -1.5883
28886SOL    HW287237   8.944   1.518   1.620 -0.7375 -3.3014  0.8571
28887SOL     OW87238   2.984   0.233   5.515 -0.3897 -0.1872  0.3265
28887SOL    HW187239   2.942   0.194   5.591 -0.6380 -2.2334 -0.7738
28887SOL    HW287240   2.912   0.254   5.455 -0.0781 -0.6577 -0.2301
28888SOL     OW87241   7.237   3.662   9.317  0.0826  0.5439  0.4261
28888SOL    HW187242   7.298   3.601   9.357  0.6011  1.6491  1.4019
28888SOL    HW287243   7.182   3.608   9.261  1.4280 -0.6020  0.1436
28889SOL     OW87244   5.833   3.379   2.251 -0.1115  0.3385 -0.1858
28889SOL    HW187245   5.761   3.318   2.233  1.1276 -1.2211 -0.1130
28889SOL    HW287246   5.815   3.412   2.339 -0.8708  0.1713 -0.2737
28890SOL     OW87247   7.198   8.744   1.137  0.8863  0.3338 -0.3459
28890SOL    HW187248   7.124   8.708   1.090  0.4677 -0.7088  1.0504
28890SOL    HW287249   7.179   8.837   1.145 -0.4798  0.0156  0.3247
28891SOL     OW87250   0.190   9.248   7.611  0.2376  0.4294 -0.1408
28891SOL    HW187251   0.273   9.225   7.652  0.1270 -1.4183 -0.8628
28891SOL    HW287252   0.168   9.334   7.648  2.0978  0.6467  0.5883
28892SOL     OW87253   5.558   1.695   6.044 -0.6739 -0.5158  0.1816
28892SOL    HW187254   5.589   1.665   5.958 -1.2392 -0.3601 -0.0776
28892SOL    HW287255   5.487   1.756   6.025  0.6975  1.3518  0.6750
28893SOL     OW87256   9.211   2.058   8.325 -0.8480  0.1560  0.9042
28893SOL    HW187257   9.297   2.024   8.300 -0.7732  1.2573 -0.4009
28893SOL    HW287258   9.149   2.011   8.269 -1.0739 -0.2890  1.5102
28894SOL     OW87259   7.494   5.491   6.347  0.6465  0.0287 -0.2652
28894SOL    HW187260   7.423   5.545   6.382  1.7642  1.2967  0.1312
28894SOL    HW287261   7.550   5.472   6.423  0.7789 -0.9069 -0.5818
28895SOL     OW87262   4.249   4.478   8.575  0.0280  0.8204 -0.1912
28895SOL    HW187263   4.246   4.504   8.667  0.1379  1.2488 -0.3031
28895SOL    HW287264   4.186   4.407   8.567 -0.9730  1.6609 -0.0499
28896SOL     OW87265   1.990   6.358   7.520  0.2298 -0.5330  0.1044
28896SOL    HW187266   2.014   6.413   7.594  2.0878 -3.3182  1.7520
28896SOL    HW287267   1.912   6.311   7.549 -2.3227  2.0393 -1.8749
28897SOL     OW87268   0.552   1.521   1.257 -0.1905  0.7645 -0.0987
28897SOL    HW187269   0.646   1.524   1.238 -0.3394  2.1366 -0.7074
28897SOL    HW287270   0.518   1.604   1.224 -1.7797 -0.0989 -0.7523
28898SOL     OW87271   7.072   1.134   1.404 -0.2949  0.6434  0.1725
28898SOL    HW187272   7.139   1.116   1.338 -0.4807 -0.7031  0.3257
28898SOL    HW287273   7.011   1.194   1.360  0.3338  0.8860 -0.3852
28899SOL     OW87274   5.372   2.181   6.167  0.2305 -0.2730  0.1045
28899SOL    HW187275   5.327   2.248   6.115  2.1951  1.2820  0.2964
28899SOL    HW287276   5.304   2.148   6.226 -0.7105  2.0506  0.4511
28900SOL     OW87277   6.637   3.663   2.572 -0.4241  0.0205 -0.3723
28900SOL    HW187278   6.591   3.619   2.500  0.3410 -0.4505 -0.5861
28900SOL    HW287279   6.723   3.622   2.574  0.2022  1.2623 -0.3497
28901SOL     OW87280   1.571   4.706   6.225 -0.4458 -0.8019  0.4365
28901SOL    HW187281   1.653   4.674   6.264 -0.0397  0.6015  0.7978
28901SOL    HW287282   1.600   4.767   6.157 -1.1826 -1.6211 -0.6347
28902SOL     OW87283   5.261   8.151   0.444  0.0160 -0.4198  0.5271
28902SOL    HW187284   5.221   8.144   0.357  0.8874  1.2532 -0.0462
28902SOL    HW287285   5.217   8.226   0.484 -1.2344 -1.8936  2.0489
28903SOL     OW87286   2.649   3.819   5.314 -0.4674  0.6217  0.4095
28903SOL    HW187287   2.621   3.741   5.266  1.6083 -0.0551  0.1692
28903SOL    HW287288   2.637   3.891   5.252  0.6825 -0.0150 -0.6118
28904SOL     OW87289   2.725   9.799   6.682  0.1708 -0.3662 -0.6765
28904SOL    HW187290   2.792   9.868   6.675  0.2356 -0.0459  2.0207
28904SOL    HW287291   2.653   9.840   6.728 -0.3344 -1.7398 -0.1901
28905SOL     OW87292   5.500   6.600   2.757 -0.1174  0.4205  0.1024
28905SOL    HW187293   5.407   6.617   2.741 -0.5132 -1.6363  0.0290
28905SOL    HW287294   5.544   6.638   2.681 -1.1828 -1.1504 -1.3623
28906SOL     OW87295   6.536   8.756   2.899  0.1449 -0.9038 -0.4280
28906SOL    HW187296   6.602   8.791   2.958  0.7498 -1.9593 -0.4771
28906SOL    HW287297   6.475   8.709   2.956 -1.0698  0.7519 -0.2723
28907SOL     OW87298   8.085   2.594   0.726  0.1117 -0.1029  0.0057
28907SOL    HW187299   8.162   2.581   0.671  0.1914  0.0993  0.0701
28907SOL    HW287300   8.070   2.688   0.724 -0.1917 -0.1506 -0.0856
28908SOL     OW87301   4.909   8.885   1.645 -0.1297  0.1600  0.4389
28908SOL    HW187302   4.931   8.796   1.616 -0.1830  0.0997  0.5821
28908SOL    HW287303   4.930   8.885   1.738 -0.3679  0.2216  0.4920
28909SOL     OW87304   4.663   7.442   4.943  0.5107  0.2982  0.3486
28909SOL    HW187305   4.589   7.422   4.885 -0.2045  1.2983  0.8828
28909SOL    HW287306   4.690   7.357   4.978 -1.1842  0.0133  1.0817
28910SOL     OW87307   8.433   2.558   5.279  0.4632  0.0895 -0.1002
28910SOL    HW187308   8.477   2.638   5.307  0.7731  0.4308 -1.5010
28910SOL    HW287309   8.502   2.491   5.280  0.7663  0.3696 -1.1766
28911SOL     OW87310   0.232   4.654   5.427  0.1049 -0.5219  0.7096
28911SOL    HW187311   0.152   4.602   5.439  0.1367 -0.5976  0.6045
28911SOL    HW287312   0.258   4.680   5.515  0.1932 -0.8472  0.7816
28912SOL     OW87313  -0.012   0.637   8.193  0.0696  0.5519  0.3668
28912SOL    HW187314   0.054   0.655   8.259 -0.3284 -1.6447  1.4547
28912SOL    HW287315   0.036   0.592   8.123 -0.0603 -0.1945  0.7382
28913SOL     OW87316   0.514   3.287   4.533  0.2412  0.5609 -0.1932
28913SOL    HW187317   0.589   3.257   4.584 -1.3549  0.2933  2.1660
28913SOL    HW287318   0.471   3.207   4.505 -1.1083  0.5965  1.5991
28914SOL     OW87319   8.590   8.524   7.052 -0.3742 -0.1914 -0.4931
28914SOL    HW187320   8.655   8.579   7.008 -0.9291  1.6603  0.9075
28914SOL    HW287321   8.529   8.499   6.983 -1.7697  3.4143 -0.7411
28915SOL     OW87322   5.356   3.790   3.858  0.0070  0.3603 -0.3630
28915SOL    HW187323   5.340   3.883   3.871  0.8180  0.2665  1.6395
28915SOL    HW287324   5.413   3.765   3.930 -0.5071 -1.7821 -0.6233
28916SOL     OW87325   6.079   7.149   4.237  0.3044  0.6168  0.4167
28916SOL    HW187326   6.043   7.224   4.284 -0.2305  0.9405 -0.4806
28916SOL    HW287327   6.056   7.165   4.145  1.1116 -0.1173  0.0765
28917SOL     OW87328   3.437   4.909   2.310 -0.2992 -0.0126  0.3142
28917SOL    HW187329   3.429   4.938   2.401  0.0403 -1.5912  0.8656
28917SOL    HW287330   3.481   4.825   2.315 -1.2958 -0.6701 -1.2265
28918SOL     OW87331   5.297   9.483   9.758  0.5188 -0.0249  0.5113
28918SOL    HW187332   5.313   9.401   9.805  0.3729  0.7449  1.9917
28918SOL    HW287333   5.382   9.529   9.760 -0.0223  1.0072  2.1288
28919SOL     OW87334   1.796   1.272   2.002 -0.3338  0.4060  0.6819
28919SOL    HW187335   1.820   1.352   1.955  0.7359 -0.1029  0.3115
28919SOL    HW287336   1.870   1.213   1.987 -0.9813 -0.5577  1.1726
28920SOL     OW87337   1.744   6.709   9.637  0.5517  0.5244 -0.1768
28920SOL    HW187338   1.731   6.692   9.731 -0.6307  1.6872 -0.1018
28920SOL    HW287339   1.797   6.788   9.634  0.7214  0.4002 -0.4983
28921SOL     OW87340   7.875   1.332   7.740  0.2780 -0.1528  0.2501
28921SOL    HW187341   7.858   1.278   7.663  1.9277 -1.1338  0.5203
28921SOL    HW287342   7.803   1.313   7.799  0.6169 -1.8131  0.1792
28922SOL     OW87343   1.272   4.072   6.489 -0.0066 -0.5174 -0.5245
28922SOL    HW187344   1.297   3.980   6.505  2.3801  0.1802  0.2776
28922SOL    HW287345   1.220   4.096   6.565  1.6767 -0.4771  0.6670
28923SOL     OW87346   9.156   9.386   6.524  0.3047  0.4322  0.4386
28923SOL    HW187347   9.238   9.338   6.532  0.1437  0.3440  1.7779
28923SOL    HW287348   9.095   9.323   6.485  0.7874  0.4091 -0.2926
28924SOL     OW87349   2.496   8.252   8.649  0.1200 -0.2792  0.1685
28924SOL    HW187350   2.569   8.304   8.680  1.9616 -1.3212 -2.0782
28924SOL    HW287351   2.506   8.168   8.693  0.1218 -0.3293  0.0742
28925SOL     OW87352   9.827   2.070   7.366  0.0907 -0.6274 -0.3218
28925SOL    HW187353   9.795   2.148   7.321  0.0106 -0.0010  0.7697
28925SOL    HW287354   9.777   1.998   7.328 -0.9199  0.0412 -0.3137
28926SOL     OW87355   6.077   6.414   7.565 -0.5358  0.5712 -0.1070
28926SOL    HW187356   6.132   6.417   7.644 -1.9859  0.3748  0.9499
28926SOL    HW287357   6.112   6.341   7.514 -0.4579 -0.2310  1.0519
28927SOL     OW87358   4.184   5.468   8.747 -0.4204 -0.0077 -0.2966
28927SOL    HW187359   4.238   5.461   8.668 -0.3749 -2.4491 -0.1048
28927SOL    HW287360   4.107   5.413   8.729 -0.5153 -0.4410  1.2641
28928SOL     OW87361   6.832   1.457   4.560 -0.2135  0.2049  0.2911
28928SOL    HW187362   6.921   1.452   4.525 -0.9212 -0.9291 -1.4781
28928SOL    HW287363   6.806   1.366   4.575 -1.0755  0.5200  0.8124
28929SOL     OW87364   5.955   6.455   5.477  0.2630 -0.1007  0.1887
28929SOL    HW187365   5.970   6.478   5.386  0.5089 -0.2368  0.1942
28929SOL    HW287366   5.954   6.359   5.478 -3.5603 -0.2190 -0.3165
28930SOL     OW87367   2.420   9.931   4.312 -0.4606  0.5623 -0.4703
28930SOL    HW187368   2.416  10.026   4.320  0.8972  0.4839  3.5484
28930SOL    HW287369   2.372   9.899   4.389  0.6169 -1.9308 -0.7422
28931SOL     OW87370   6.826   0.261   0.441 -0.0672  0.0835  0.0440
28931SOL    HW187371   6.870   0.252   0.357  0.1128 -0.6917  0.2080
28931SOL    HW287372   6.742   0.302   0.421 -0.7070 -1.5316 -0.7487
28932SOL     OW87373   1.921   4.950   6.559  0.6470 -0.3494  0.0293
28932SOL    HW187374   1.833   4.952   6.521  0.9978  2.3951 -0.8029
28932SOL    HW287375   1.907   4.971   6.652  0.3730 -0.6320  0.0537
28933SOL     OW87376   6.450   7.655   2.488 -0.3356 -0.0484  0.4414
28933SOL    HW187377   6.405   7.705   2.556 -1.8066  2.2416 -1.9917
28933SOL    HW287378   6.516   7.716   2.454 -1.0875 -0.2604 -1.5445
28934SOL     OW87379   0.445   8.913   9.705 -0.4471  0.1569  0.2829
28934SOL    HW187380   0.372   8.897   9.644  0.5258 -0.0275 -0.8724
28934SOL    HW287381   0.454   9.008   9.707  0.0477  0.1385 -0.5392
28935SOL     OW87382   6.995   2.738   9.886  0.0695  0.7512 -0.3057
28935SOL    HW187383   6.912   2.780   9.863  0.5712  2.5643  1.0245
28935SOL    HW287384   7.056   2.768   9.819  0.5279  2.5715  0.8837
28936SOL     OW87385   2.437   0.057   3.228 -0.3661  0.5160 -0.4535
28936SOL    HW187386   2.353   0.092   3.258  0.3491  1.2918  0.7182
28936SOL    HW287387   2.438  -0.034   3.259 -1.1244  0.2180 -1.2458
28937SOL     OW87388   7.289   4.677   4.792  0.2718  0.1595  0.2838
28937SOL    HW187389   7.216   4.642   4.844  0.3901  0.6953  0.8196
28937SOL    HW287390   7.320   4.602   4.741 -1.6796  0.2595 -1.1928
28938SOL     OW87391   3.746   7.419   5.173 -0.1552  0.4114  0.1488
28938SOL    HW187392   3.771   7.485   5.108  0.3900 -1.0011 -1.1551
28938SOL    HW287393   3.799   7.342   5.150 -1.1334 -0.6382  1.2877
28939SOL     OW87394   8.037   0.684   8.188 -0.0010  0.3581  0.0996
28939SOL    HW187395   7.967   0.621   8.206  2.4681 -2.8936 -0.7719
28939SOL    HW287396   8.039   0.691   8.092  2.0701 -1.3029 -0.0618
28940SOL     OW87397   1.569   4.253   7.942 -0.0595 -0.6972  0.6010
28940SOL    HW187398   1.626   4.257   8.019 -1.8296 -1.9963  2.0544
28940SOL    HW287399   1.485   4.286   7.973 -0.0434  1.8185 -1.6545
28941SOL     OW87400   4.793   3.950   9.547  0.3254  0.3492 -0.2211
28941SOL    HW187401   4.809   3.995   9.464 -0.6077  2.6210  0.7660
28941SOL    HW287402   4.720   3.997   9.587  0.9554 -0.4584  2.0493
28942SOL     OW87403   3.364   7.462   6.729 -0.6772  0.6130  0.3375
28942SOL    HW187404   3.314   7.399   6.677  0.0982 -1.7904  2.3157
28942SOL    HW287405   3.384   7.532   6.668 -1.9477 -0.8509 -1.9067
28943SOL     OW87406   6.930   3.610   2.459 -0.2563  0.1823 -0.1293
28943SOL    HW187407   6.973   3.599   2.544  1.3017 -2.3807 -1.1187
28943SOL    HW287408   6.936   3.703   2.440 -0.5313  0.8025  2.4627
28944SOL     OW87409   1.229   4.830   9.071  0.4344  0.4250  0.8276
28944SOL    HW187410   1.244   4.787   9.155  2.6079  0.5190  0.5510
28944SOL    HW287411   1.297   4.897   9.065  0.0995  0.6777 -0.8429
28945SOL     OW87412   0.887   7.152   7.521 -0.0577  0.4006 -0.4322
28945SOL    HW187413   0.978   7.175   7.504 -0.1617  0.6714 -0.6372
28945SOL    HW287414   0.863   7.095   7.448  0.0109  0.1633 -0.2670
28946SOL     OW87415   3.243   5.635   0.079 -0.1512 -0.1430  0.1987
28946SOL    HW187416   3.270   5.573   0.147 -0.9439  0.7324  1.3511
28946SOL    HW287417   3.287   5.717   0.102  0.5624 -0.1398 -1.0756
28947SOL     OW87418   4.625   6.172   3.912 -0.3447 -0.5174 -0.0483
28947SOL    HW187419   4.675   6.099   3.948  0.3224  0.3935  0.9239
28947SOL    HW287420   4.686   6.214   3.851 -0.5400 -0.4368 -0.1893
28948SOL     OW87421   7.540   7.320   8.104  0.3923 -0.4979  0.6575
28948SOL    HW187422   7.472   7.258   8.076 -0.7134  2.0137 -2.9529
28948SOL    HW287423   7.619   7.290   8.059  0.4476 -0.6213  0.8373
28949SOL     OW87424   3.479   1.787   6.776 -0.1001 -0.0764  0.5716
28949SOL    HW187425   3.524   1.829   6.849 -1.5412 -0.6943  1.8919
28949SOL    HW287426   3.536   1.715   6.750  0.5277  0.2756  0.9685
28950SOL     OW87427   1.297   1.087   1.229  0.1930 -0.7381 -0.2936
28950SOL    HW187428   1.329   1.084   1.319  0.7321 -1.7229 -0.5062
28950SOL    HW287429   1.209   1.049   1.234  0.1664 -0.6604 -0.1614
28951SOL     OW87430   0.370   2.146   4.592  0.1064  0.1659  0.7874
28951SOL    HW187431   0.290   2.108   4.557  0.6707  0.2245 -0.6532
28951SOL    HW287432   0.343   2.230   4.629 -0.4385  0.3442  0.0008
28952SOL     OW87433   0.019   8.439   0.997  0.0964 -0.0832  0.4468
28952SOL    HW187434   0.095   8.387   0.971  0.4032  1.3327 -1.7713
28952SOL    HW287435  -0.021   8.389   1.068  0.6090 -3.1341 -1.2358
28953SOL     OW87436   6.581   4.756   4.840 -0.2044  0.1179  0.1616
28953SOL    HW187437   6.624   4.801   4.768  1.7784  0.5767  1.5490
28953SOL    HW287438   6.621   4.669   4.842 -0.1201  0.1643  0.7947
28954SOL     OW87439   1.891   6.911   1.635 -0.2073  0.2214 -0.1022
28954SOL    HW187440   1.837   6.966   1.692  0.2247  0.0615  0.4631
28954SOL    HW287441   1.937   6.973   1.578  0.6939  0.4865  0.8920
28955SOL     OW87442   4.685   6.542   3.972  0.3411 -0.3635  0.1403
28955SOL    HW187443   4.611   6.498   4.012 -0.9584  1.7795  0.2551
28955SOL    HW287444   4.701   6.618   4.028  1.8899 -0.1714 -0.5132
28956SOL     OW87445   3.857   6.511   4.632  0.1558  0.6282  0.1886
28956SOL    HW187446   3.835   6.470   4.716 -2.5164  1.0240 -0.2433
28956SOL    HW287447   3.881   6.600   4.655 -1.0457  0.8800  0.5291
28957SOL     OW87448   1.746   5.297   0.504 -0.2441  0.6133  0.1467
28957SOL    HW187449   1.827   5.265   0.543  0.2252  2.6218  0.9821
28957SOL    HW287450   1.702   5.219   0.472  1.2717 -0.6970  1.0979
28958SOL     OW87451   1.661   6.143   1.771  0.4350 -0.5563 -1.2824
28958SOL    HW187452   1.571   6.136   1.740 -0.7541  2.4351  0.9580
28958SOL    HW287453   1.688   6.232   1.746  1.9821 -0.6422 -0.0918
28959SOL     OW87454   4.645   0.165   1.560  0.0688 -0.1813 -0.3454
28959SOL    HW187455   4.552   0.154   1.578  0.1182  0.7932  0.6080
28959SOL    HW287456   4.648   0.192   1.468 -0.5872 -0.1721 -0.3721
28960SOL     OW87457   8.748   1.071   0.958 -0.0146 -0.1433 -0.4177
28960SOL    HW187458   8.728   1.136   0.891 -0.7311 -0.7433 -0.7990
28960SOL    HW287459   8.735   1.116   1.041 -0.9910  0.0588 -0.6754
28961SOL     OW87460   0.025   8.040   4.280 -0.0892 -0.1668  0.0192
28961SOL    HW187461   0.008   8.132   4.299  1.8585  0.1551  0.4258
28961SOL    HW287462   0.116   8.038   4.253 -0.7878 -1.6385 -2.5492
28962SOL     OW87463   2.622   1.110   2.351 -0.1703 -0.3348 -0.0444
28962SOL    HW187464   2.557   1.146   2.290 -2.2574 -2.8096  0.5015
28962SOL    HW287465   2.606   1.156   2.433 -1.3674 -0.9523  0.0961
28963SOL     OW87466   5.593   2.848   1.919 -0.5302 -0.3809  0.0441
28963SOL    HW187467   5.560   2.788   1.852  1.7370 -0.6449 -0.9369
28963SOL    HW287468   5.688   2.833   1.920 -0.0062  2.3720  0.5611
28964SOL     OW87469   2.917   9.162   1.267  0.0945 -0.1540 -0.1490
28964SOL    HW187470   2.951   9.183   1.354 -2.4084  1.1774  0.6104
28964SOL    HW287471   2.989   9.180   1.207  1.2831  0.7181  1.4867
28965SOL     OW87472   3.652   4.083   6.575  0.2547  0.0344  0.7578
28965SOL    HW187473   3.599   4.155   6.609  0.1343 -1.0382  3.0055
28965SOL    HW287474   3.589   4.029   6.526  0.0831  0.7345  0.1846
28966SOL     OW87475   7.047   7.005   7.273  0.2020  0.6247 -0.3851
28966SOL    HW187476   7.059   7.095   7.302  1.5388 -0.6226  3.6204
28966SOL    HW287477   7.070   6.952   7.350  0.3813 -3.1788 -2.7988
28967SOL     OW87478   6.810   8.748   8.041 -0.6087 -0.1526 -0.2227
28967SOL    HW187479   6.748   8.814   8.011 -0.5124 -0.1346 -0.3797
28967SOL    HW287480   6.877   8.745   7.973 -1.7520 -1.9900 -1.3481
28968SOL     OW87481   1.509   1.241   7.764 -0.3233  0.8152 -0.0724
28968SOL    HW187482   1.462   1.235   7.847 -0.5177 -0.1262 -0.2492
28968SOL    HW287483   1.577   1.175   7.769  1.1114  2.2615  0.2393
28969SOL     OW87484   7.984   2.680   1.663 -0.0226 -0.0829 -1.1540
28969SOL    HW187485   7.900   2.699   1.705  0.3667  0.1279 -0.4760
28969SOL    HW287486   8.013   2.597   1.702  0.2737  0.0424 -1.1070
28970SOL     OW87487   8.360   3.728   7.719  0.2998 -0.2909 -0.1940
28970SOL    HW187488   8.394   3.758   7.635  0.7839 -1.0809 -0.2936
28970SOL    HW287489   8.398   3.641   7.731 -1.3166 -1.0340 -0.0913
28971SOL     OW87490   5.651   7.605   0.965  0.4072 -0.0469  0.6767
28971SOL    HW187491   5.699   7.569   0.890  0.2707  1.2847 -0.0835
28971SOL    HW287492   5.597   7.675   0.927  0.6652  0.9549  2.0885
28972SOL     OW87493   2.053   2.981   0.670  0.4453 -0.5260 -0.0164
28972SOL    HW187494   2.100   3.031   0.737 -2.4918 -0.6199  2.2706
28972SOL    HW287495   1.961   3.003   0.683 -0.2733  0.6509 -5.1035
28973SOL     OW87496   5.868   7.350   5.841  0.0482 -1.3144  0.0885
28973SOL    HW187497   5.955   7.314   5.821  0.7425 -0.0697  0.7265
28973SOL    HW287498   5.834   7.295   5.911  0.2879 -1.8651 -0.2246
28974SOL     OW87499   0.142   5.700   4.336 -0.4446  0.0588  0.2882
28974SOL    HW187500   0.047   5.695   4.335 -0.6987  2.9174 -0.1479
28974SOL    HW287501   0.162   5.756   4.411  0.8263  0.0946 -0.0579
28975SOL     OW87502   0.369   2.717   2.210 -0.5087  0.1011 -0.1203
28975SOL    HW187503   0.402   2.631   2.237 -2.4093 -0.5189  0.3486
28975SOL    HW287504   0.344   2.760   2.292  1.4451  1.6221 -0.2186
28976SOL     OW87505   4.483   8.312   9.476  0.6276 -0.1299  0.0065
28976SOL    HW187506   4.480   8.348   9.565 -1.8028 -0.8698  0.2796
28976SOL    HW287507   4.523   8.226   9.487 -0.2210 -0.4739  0.5051
28977SOL     OW87508   4.290   3.274   3.516  0.6139 -0.3647  0.0356
28977SOL    HW187509   4.288   3.341   3.585  1.5763  0.5548 -0.7937
28977SOL    HW287510   4.287   3.191   3.563  0.7948  0.2439  1.1632
28978SOL     OW87511   7.231   4.963   0.631 -0.3500  0.1560  0.1451
28978SOL    HW187512   7.155   4.921   0.590  0.2008 -3.1647  2.2133
28978SOL    HW287513   7.301   4.956   0.566 -0.1379 -2.8088  0.5663
28979SOL     OW87514   6.527   8.279   4.260 -0.4415  0.6921 -0.0437
28979SOL    HW187515   6.622   8.278   4.255 -0.4790  1.3847 -1.4441
28979SOL    HW287516   6.503   8.190   4.287  0.5466  0.1386 -0.9500
28980SOL     OW87517   4.994   6.747   0.467 -0.5332  0.6000  0.2245
28980SOL    HW187518   4.981   6.836   0.498 -1.2626  1.2342 -1.7765
28980SOL    HW287519   4.915   6.726   0.418 -0.0199 -0.8510 -0.0556
28981SOL     OW87520   8.486   0.757   8.053 -0.6565  0.3815 -0.1107
28981SOL    HW187521   8.445   0.718   8.130 -2.3131  1.7848 -0.2094
28981SOL    HW287522   8.424   0.825   8.025  1.3964  2.1001 -0.7538
28982SOL     OW87523   6.754   0.337   6.909 -0.5010 -0.0513 -0.4730
28982SOL    HW187524   6.749   0.372   6.997 -3.2989 -2.1095  0.3262
28982SOL    HW287525   6.817   0.265   6.915 -0.5442 -0.0646 -0.1763
28983SOL     OW87526   9.089   0.174   2.816  0.3040 -0.0943 -0.3408
28983SOL    HW187527   8.998   0.153   2.794 -0.1434  1.2886  0.0637
28983SOL    HW287528   9.083   0.226   2.896  1.2827  1.6526 -1.3502
28984SOL     OW87529   3.273   2.794   6.584  0.2701  0.3593 -0.4566
28984SOL    HW187530   3.295   2.884   6.558  1.0301 -0.0434 -1.2768
28984SOL    HW287531   3.232   2.756   6.506 -3.1392  0.9622  0.9037
28985SOL     OW87532   1.183   4.318   8.301  0.6452 -0.0396  0.1444
28985SOL    HW187533   1.179   4.266   8.381  1.5189  0.4919  0.5507
28985SOL    HW287534   1.208   4.405   8.330 -0.5166  0.5558 -0.5600
28986SOL     OW87535   0.294   9.000   2.838  0.4338 -0.2814  0.2457
28986SOL    HW187536   0.312   9.033   2.926 -0.8050  2.1986 -0.3390
28986SOL    HW287537   0.334   9.066   2.780  1.5404 -2.0401 -1.0999
28987SOL     OW87538   7.659   3.713   9.599  1.0257  0.5206  0.0749
28987SOL    HW187539   7.585   3.744   9.545  0.2077 -2.4848 -0.7198
28987SOL    HW287540   7.727   3.691   9.535  0.8398 -1.0825  0.4039
28988SOL     OW87541   4.698   2.718   8.163  0.1830 -0.3011  0.5174
28988SOL    HW187542   4.776   2.734   8.218 -1.2289 -0.0027  2.5578
28988SOL    HW287543   4.697   2.623   8.151  1.5667 -0.2053 -0.7143
28989SOL     OW87544   2.442   4.634   5.790  0.1671 -0.3545  0.5114
28989SOL    HW187545   2.362   4.658   5.743  0.1343  0.9924  1.2255
28989SOL    HW287546   2.428   4.664   5.879  2.0000  1.1931  0.3404
28990SOL     OW87547   4.125   7.706   4.763 -0.6918 -0.1173 -0.0583
28990SOL    HW187548   4.101   7.632   4.819 -2.9472  1.3716  1.0800
28990SOL    HW287549   4.217   7.724   4.786 -1.6318  0.7543  3.7034
28991SOL     OW87550   5.477   6.612   8.304  0.1078  0.1298 -0.2412
28991SOL    HW187551   5.455   6.694   8.349 -0.5866  0.4853 -1.1885
28991SOL    HW287552   5.551   6.577   8.354 -0.5579  0.5511  1.0957
28992SOL     OW87553   0.185   0.399   9.453 -0.6166 -0.6420  0.2982
28992SOL    HW187554   0.162   0.396   9.546  1.7116  0.3146  0.9658
28992SOL    HW287555   0.238   0.320   9.439 -0.4738 -0.4797 -0.0784
28993SOL     OW87556   8.258   4.528   1.883  0.7095  0.5780  0.2507
28993SOL    HW187557   8.297   4.508   1.798  0.4976  1.9882 -0.2035
28993SOL    HW287558   8.328   4.510   1.946  1.7625  2.0001 -0.4573
28994SOL     OW87559   3.849   0.748   7.319  0.6650  0.3301  0.2617
28994SOL    HW187560   3.832   0.660   7.287 -0.3871  0.3357  0.7362
28994SOL    HW287561   3.764   0.792   7.313  0.8258  0.8413  1.4282
28995SOL     OW87562   6.332   4.266   4.581  1.4633 -0.1573 -0.3309
28995SOL    HW187563   6.332   4.181   4.538  1.2274 -0.1827 -0.2825
28995SOL    HW287564   6.276   4.321   4.526  0.4147 -0.4410  0.4336
28996SOL     OW87565   6.779   2.214   7.005 -0.7442 -0.4507  0.2940
28996SOL    HW187566   6.784   2.216   7.100  0.5264 -1.0814  0.2553
28996SOL    HW287567   6.817   2.297   6.976 -1.8209  0.0827  0.3286
28997SOL     OW87568   2.111   8.748   4.949  0.3422  0.3213  0.0103
28997SOL    HW187569   2.194   8.703   4.936 -0.2835 -0.4278 -1.5000
28997SOL    HW287570   2.129   8.839   4.926  0.2268 -0.2544 -2.6650
28998SOL     OW87571   7.745   7.267   6.577 -0.3571  0.0244  0.7014
28998SOL    HW187572   7.664   7.219   6.595 -0.2399 -0.0958  0.9185
28998SOL    HW287573   7.814   7.201   6.585 -0.3920 -0.4078 -1.7651
28999SOL     OW87574   7.748   2.637   7.547 -0.4869  0.3896  0.3136
28999SOL    HW187575   7.754   2.625   7.642 -0.5340 -0.2772  0.2381
28999SOL    HW287576   7.789   2.722   7.531 -0.2769  0.4062  0.9100
29000SOL     OW87577   8.628   1.006   8.372 -0.0199 -0.5246  0.3480
29000SOL    HW187578   8.549   1.037   8.329  0.0413  1.3477  1.4675
29000SOL    HW287579   8.692   0.998   8.302 -0.7961 -0.6567 -0.3546
29001SOL     OW87580   2.248   8.928   8.890 -0.4756  0.2713 -0.4979
29001SOL    HW187581   2.327   8.887   8.927 -0.7897 -1.4293 -1.5766
29001SOL    HW287582   2.181   8.915   8.957  0.2793  2.4251  0.7688
29002SOL     OW87583   4.215   0.328   2.578 -0.2559  0.3558  0.1902
29002SOL    HW187584   4.159   0.394   2.538  1.5699  0.6796 -2.0949
29002SOL    HW287585   4.234   0.267   2.507 -0.2469 -1.5174  1.7240
29003SOL     OW87586   3.694   2.305   4.815  0.0688  0.1921 -0.3861
29003SOL    HW187587   3.744   2.237   4.861  0.5327  0.5288 -0.3881
29003SOL    HW287588   3.730   2.387   4.847 -0.1483  0.4380 -0.7627
29004SOL     OW87589   6.454   9.557   4.211  0.2486 -0.2390 -0.3571
29004SOL    HW187590   6.533   9.517   4.174  0.0921 -1.6073  0.6889
29004SOL    HW287591   6.417   9.608   4.139  0.5174 -1.9383 -1.7644
29005SOL     OW87592   5.592   8.206   6.242  0.3026  0.3971  0.3943
29005SOL    HW187593   5.633   8.236   6.161  1.2285 -0.2577  0.6063
29005SOL    HW287594   5.573   8.287   6.291  1.1143  0.7313  0.1764
29006SOL     OW87595   0.524   2.872   7.764  0.8930  0.3012  0.2010
29006SOL    HW187596   0.537   2.818   7.686  0.3242  1.0239 -0.4241
29006SOL    HW287597   0.429   2.873   7.776  0.8303  1.7501 -0.2539
29007SOL     OW87598   6.683   6.685   0.494  0.1274 -0.6311  0.7662
29007SOL    HW187599   6.778   6.695   0.500  0.5156 -3.0295 -0.2482
29007SOL    HW287600   6.670   6.619   0.426 -2.4269  1.8278 -1.3890
29008SOL     OW87601   3.876   5.694   3.985  0.3219  0.9310  0.1621
29008SOL    HW187602   3.854   5.690   3.892  1.1847 -1.4237 -0.0180
29008SOL    HW287603   3.940   5.764   3.992 -0.7484  2.0376 -0.7553
29009SOL     OW87604   4.528   1.877   9.961 -0.1014 -0.2074 -0.0526
29009SOL    HW187605   4.540   1.941   9.891  0.5506 -0.0739  0.1729
29009SOL    HW287606   4.488   1.802   9.918  1.8627 -0.8115 -0.9516
29010SOL     OW87607   5.211   6.990   2.988  0.1973  0.3559  0.3842
29010SOL    HW187608   5.182   6.952   2.905  1.4688 -1.4335  0.6989
29010SOL    HW287609   5.189   6.923   3.053  1.5746  0.5979  1.1190
29011SOL     OW87610   5.958   4.446   2.103 -0.5107 -0.2601  0.3409
29011SOL    HW187611   5.930   4.416   2.017  0.4457  0.9494 -0.4202
29011SOL    HW287612   6.032   4.391   2.126 -0.2164 -0.0102 -0.0084
29012SOL     OW87613   8.828   2.027   7.280 -0.0692 -0.0460  0.1740
29012SOL    HW187614   8.795   2.015   7.191 -0.8079  0.0302  0.4329
29012SOL    HW287615   8.810   2.118   7.300  2.7231  0.7970 -0.6361
29013SOL     OW87616   0.483   2.472   3.248  0.0318  0.8118  0.5132
29013SOL    HW187617   0.524   2.451   3.164 -0.6909 -0.2241  0.4057
29013SOL    HW287618   0.471   2.567   3.245  0.2025  0.8146 -0.4756
29014SOL     OW87619   7.127   8.666   2.319 -0.4414 -0.2669 -0.6005
29014SOL    HW187620   7.175   8.743   2.350 -1.9153  0.3376  0.3153
29014SOL    HW287621   7.194   8.599   2.306  0.8392  1.0668 -1.1023
29015SOL     OW87622   3.234   8.105   5.419  0.1479 -0.1656  0.3386
29015SOL    HW187623   3.243   8.084   5.327 -0.1709 -0.5040  0.3813
29015SOL    HW287624   3.155   8.058   5.447 -0.5319  0.9950  0.4597
29016SOL     OW87625   5.054   2.080   0.502 -0.3444  0.2109  0.3919
29016SOL    HW187626   5.114   2.011   0.529  1.6023  1.5507 -0.2900
29016SOL    HW287627   5.042   2.135   0.580  1.0096  1.0803  0.0262
29017SOL     OW87628   0.920   6.175   4.365 -0.4623  0.1325 -0.1797
29017SOL    HW187629   0.847   6.229   4.397 -0.1459  0.4902 -0.0550
29017SOL    HW287630   0.936   6.113   4.436 -0.4029  0.2966 -0.0469
29018SOL     OW87631   6.918   0.195   8.693 -0.3419  0.4462 -0.2922
29018SOL    HW187632   7.000   0.225   8.734  0.5171  0.5113 -1.9647
29018SOL    HW287633   6.925   0.100   8.693 -0.8094  0.4042  0.5956
29019SOL     OW87634   7.633   1.327   8.627  0.1331  0.3243  0.2179
29019SOL    HW187635   7.715   1.287   8.656 -0.2422  0.2492  1.2497
29019SOL    HW287636   7.637   1.324   8.532  0.3496 -1.7227  0.2304
29020SOL     OW87637   8.742   3.703   2.751  0.1649  0.6188  0.3557
29020SOL    HW187638   8.739   3.798   2.760  2.4384  1.1609 -2.8360
29020SOL    HW287639   8.809   3.675   2.813  1.1139  1.4301 -0.2753
29021SOL     OW87640   5.480   0.355   6.703 -0.3604 -0.1372  0.0510
29021SOL    HW187641   5.463   0.437   6.657 -0.3834 -0.4877 -0.5746
29021SOL    HW287642   5.404   0.345   6.761 -0.8366 -0.1929 -0.5679
29022SOL     OW87643   2.779   0.072   2.531 -0.4926  1.2262  0.1171
29022SOL    HW187644   2.762   0.011   2.460  0.3675  1.1861 -0.0558
29022SOL    HW287645   2.744   0.029   2.609  1.4394 -0.1714  0.2528
29023SOL     OW87646   5.892   4.801   0.908  0.2852 -0.4049 -0.3079
29023SOL    HW187647   5.866   4.801   0.816  0.2817  0.2396 -0.3112
29023SOL    HW287648   5.987   4.814   0.906  0.3428 -0.8088 -0.2322
29024SOL     OW87649   0.161   7.081   9.692 -0.3228 -0.2023 -0.0889
29024SOL    HW187650   0.155   6.986   9.704 -1.5503 -0.0915  0.3192
29024SOL    HW287651   0.070   7.110   9.682  0.1186  0.7351 -1.9218
29025SOL     OW87652   8.182   3.412   2.197  0.1823  0.3189  0.7695
29025SOL    HW187653   8.140   3.463   2.266  1.5620  2.0030  0.4394
29025SOL    HW287654   8.115   3.405   2.128 -0.5689  0.2524  1.4915
29026SOL     OW87655   5.274   7.201   4.632 -0.5651  0.5473  0.0239
29026SOL    HW187656   5.232   7.117   4.617 -1.5170  1.0183 -0.0165
29026SOL    HW287657   5.232   7.235   4.711  1.0437  0.2205  1.0822
29027SOL     OW87658   6.550   9.128   7.096  0.5848 -0.6939 -0.2909
29027SOL    HW187659   6.589   9.051   7.055  1.1279 -0.6833  0.2004
29027SOL    HW287660   6.615   9.197   7.083  0.2902 -0.4256 -0.3483
29028SOL     OW87661   6.443   2.867   4.127  0.2582  0.1072 -0.2213
29028SOL    HW187662   6.424   2.817   4.206  4.5065  0.8861  1.6034
29028SOL    HW287663   6.376   2.935   4.124 -2.3324 -2.2310  0.3584
29029SOL     OW87664   0.198   0.669   8.413 -0.1772 -0.3942  0.2178
29029SOL    HW187665   0.292   0.656   8.425 -0.0944  0.5216  0.6463
29029SOL    HW287666   0.181   0.756   8.449 -0.9527  0.0533 -1.1810
29030SOL     OW87667   3.558   4.915   7.564 -0.3428  0.4488 -0.6405
29030SOL    HW187668   3.495   4.933   7.494  0.2452  0.5778 -1.1443
29030SOL    HW287669   3.617   4.990   7.565  0.9348 -0.4908 -1.4451
29031SOL     OW87670   8.401   5.072   2.515  0.6299  0.2765  0.0608
29031SOL    HW187671   8.376   4.982   2.495  0.8812 -0.0217  1.0545
29031SOL    HW287672   8.363   5.124   2.443 -0.5278 -0.4735  0.1049
29032SOL     OW87673   4.202   8.307   8.762 -1.1979  0.2396  0.1719
29032SOL    HW187674   4.260   8.260   8.702 -0.3952 -0.7287  1.6583
29032SOL    HW287675   4.170   8.381   8.710 -0.4986 -0.5219 -1.4292
29033SOL     OW87676   9.115   5.856   6.696 -0.4818  0.1435 -0.1045
29033SOL    HW187677   9.109   5.775   6.747 -0.8291  1.5064  2.1517
29033SOL    HW287678   9.197   5.848   6.647 -1.7640 -2.6472 -2.0363
29034SOL     OW87679   4.076   0.817   2.448 -0.1227  0.7973 -0.3063
29034SOL    HW187680   4.147   0.764   2.483 -1.2934  0.4775  1.7534
29034SOL    HW287681   4.118   0.874   2.383  2.1533  1.1805  1.3965
29035SOL     OW87682   7.534   2.469   3.065 -0.2874  0.3316  0.0806
29035SOL    HW187683   7.461   2.512   3.109 -1.1668 -3.8208  3.2410
29035SOL    HW287684   7.494   2.420   2.993 -0.0816  0.5525 -0.1897
29036SOL     OW87685   4.908   5.503   0.176 -0.0413 -0.1774 -0.6145
29036SOL    HW187686   4.816   5.529   0.179 -0.2294 -0.7717 -1.0287
29036SOL    HW287687   4.908   5.418   0.132  0.5683 -0.8303  0.5960
29037SOL     OW87688   2.471   8.456   1.544  0.4131 -0.0245  0.3930
29037SOL    HW187689   2.485   8.548   1.520  0.4383 -0.0262  0.4011
29037SOL    HW287690   2.414   8.460   1.622  0.3386 -0.0194  0.3384
29038SOL     OW87691   5.355   6.266   7.919  0.3479 -0.0928  0.1960
29038SOL    HW187692   5.450   6.258   7.919  0.2753 -1.3143 -0.6892
29038SOL    HW287693   5.337   6.353   7.955  1.8259  0.5093 -0.4561
29039SOL     OW87694   9.749   2.869   7.500 -0.0210 -0.2945  0.1343
29039SOL    HW187695   9.802   2.934   7.454 -1.0516  0.2741 -0.3086
29039SOL    HW287696   9.765   2.885   7.593  0.3898  0.0328  0.0059
29040SOL     OW87697   9.453   5.196   3.699  0.0189  0.0818 -0.6790
29040SOL    HW187698   9.370   5.186   3.746  0.6581 -0.3439  0.3873
29040SOL    HW287699   9.428   5.192   3.606 -1.3981  1.8923 -0.4524
29041SOL     OW87700   5.600   5.175   4.488 -1.0396 -0.3337 -0.0679
29041SOL    HW187701   5.583   5.256   4.439  0.4700 -0.5564 -1.0239
29041SOL    HW287702   5.602   5.107   4.421  2.9089 -0.3994 -0.0952
29042SOL     OW87703   3.775   5.885   2.347 -0.1201  0.0898 -0.2040
29042SOL    HW187704   3.788   5.912   2.438 -0.5773 -0.4268  0.0143
29042SOL    HW287705   3.761   5.791   2.351 -2.3553  0.3623 -0.5723
29043SOL     OW87706   6.206   2.687   1.302  0.3138 -0.0708  0.7721
29043SOL    HW187707   6.254   2.711   1.381 -0.8909  0.6281  1.3259
29043SOL    HW287708   6.267   2.705   1.230  0.8882  0.7643  1.4472
29044SOL     OW87709   6.726   6.752   6.948  0.1364 -0.4941 -0.8811
29044SOL    HW187710   6.798   6.780   7.006  0.2991  0.1259 -1.3778
29044SOL    HW287711   6.770   6.702   6.879 -0.1186 -1.7329 -0.1743
29045SOL     OW87712   3.681   4.485   1.372 -0.6005 -0.0398  0.0131
29045SOL    HW187713   3.652   4.564   1.327 -2.3203 -2.3220 -3.2849
29045SOL    HW287714   3.758   4.456   1.323  1.6028  0.7425  2.7383
29046SOL     OW87715   1.746   0.579   7.442  0.1670 -0.2819  0.2609
29046SOL    HW187716   1.690   0.642   7.397  1.1765 -0.0630 -0.7320
29046SOL    HW287717   1.813   0.632   7.485  0.5550 -0.6177  0.0828
29047SOL     OW87718   8.228   0.699   9.553 -0.1004 -0.1528 -0.3287
29047SOL    HW187719   8.139   0.700   9.516  0.3742 -0.6686 -1.5439
29047SOL    HW287720   8.231   0.618   9.604  0.1637 -1.0177 -1.6504
29048SOL     OW87721   7.185   2.323   6.900  0.6222  0.5478 -0.5716
29048SOL    HW187722   7.182   2.392   6.967  0.4654 -0.4130  0.4449
29048SOL    HW287723   7.135   2.251   6.938  1.8536 -0.5978 -1.0633
29049SOL     OW87724   5.660   5.992   4.060 -0.5974  0.0407 -0.2454
29049SOL    HW187725   5.701   5.924   4.113 -1.0575 -1.0513 -1.2428
29049SOL    HW287726   5.685   6.074   4.102  0.9830 -0.6861  0.2871
29050SOL     OW87727   6.275   7.358   8.583  0.7408 -0.0918 -0.1553
29050SOL    HW187728   6.344   7.296   8.606  2.6782  1.1368 -2.1808
29050SOL    HW287729   6.243   7.391   8.667  1.6155 -1.7402  0.8801
29051SOL     OW87730   9.651   4.541   0.094 -0.0625  0.3201 -0.6091
29051SOL    HW187731   9.659   4.533   0.189  1.4980 -0.6827 -0.7951
29051SOL    HW287732   9.722   4.599   0.068  1.3610 -1.6845 -1.4287
29052SOL     OW87733   8.070   2.536   3.832  0.0251  0.3635  0.2334
29052SOL    HW187734   7.983   2.567   3.857 -0.8563 -0.9126 -1.1065
29052SOL    HW287735   8.091   2.587   3.754  0.9172  1.3428  1.0934
29053SOL     OW87736   8.564   8.083   6.023  0.5810  0.0417  0.1618
29053SOL    HW187737   8.496   8.131   6.071  0.6848 -0.2244  0.5735
29053SOL    HW287738   8.621   8.047   6.091 -0.5317 -2.2539 -0.0199
29054SOL     OW87739   9.904   9.362   6.919  0.2393 -0.6887 -0.0423
29054SOL    HW187740   9.960   9.333   6.847 -2.1976 -2.0107 -1.5550
29054SOL    HW287741   9.931   9.307   6.993  1.4367 -0.7329 -0.4835
29055SOL     OW87742   3.486   2.174   1.324  0.3745 -0.2022 -0.1352
29055SOL    HW187743   3.529   2.093   1.349  1.8876 -0.0891 -2.1552
29055SOL    HW287744   3.526   2.241   1.379 -0.4608 -0.7093  1.1222
29056SOL     OW87745   0.762   4.775   1.585  0.1825  0.0765  0.1427
29056SOL    HW187746   0.694   4.842   1.595 -0.5322 -0.7123  0.6514
29056SOL    HW287747   0.714   4.693   1.576  1.0637 -0.4430  0.0448
29057SOL     OW87748   6.842   2.609   0.237  0.4576  0.1312  0.1267
29057SOL    HW187749   6.787   2.619   0.316 -0.2125 -0.2532 -0.2842
29057SOL    HW287750   6.859   2.699   0.210  0.5639  0.2672  0.6246
29058SOL     OW87751   1.297   1.092   6.536  0.5499 -0.3379 -0.8058
29058SOL    HW187752   1.218   1.041   6.556 -0.8658  1.2239 -2.0999
29058SOL    HW287753   1.324   1.128   6.620 -0.8086  0.0052 -0.4855
29059SOL     OW87754   4.096   0.966   6.895  0.6687  0.1883  0.2224
29059SOL    HW187755   4.107   0.960   6.990  0.2305  1.0488  0.3362
29059SOL    HW287756   4.037   1.041   6.882  1.6513  0.8153 -0.7797
29060SOL     OW87757   2.197   1.306   7.816 -0.3273  0.1440 -0.2510
29060SOL    HW187758   2.259   1.271   7.753  0.2251  0.2715  0.2174
29060SOL    HW287759   2.248   1.367   7.869 -1.1066  1.0983 -0.5714
29061SOL     OW87760   9.236   0.737   7.152  0.0445  0.1105  0.2325
29061SOL    HW187761   9.252   0.717   7.059  0.0437 -0.0218  0.2620
29061SOL    HW287762   9.323   0.760   7.186 -0.1076  1.2024 -0.0583
29062SOL     OW87763   3.782   5.842   7.415 -0.1312  0.4783 -0.4020
29062SOL    HW187764   3.757   5.907   7.350  0.0013  0.6567 -0.2750
29062SOL    HW287765   3.703   5.829   7.468 -0.6081 -0.5451 -1.3291
29063SOL     OW87766   2.444   1.560   7.113  0.5843  0.1098  0.0848
29063SOL    HW187767   2.372   1.584   7.055  1.5913 -0.1665 -1.3525
29063SOL    HW287768   2.490   1.643   7.129  0.7925  0.0597 -0.2320
29064SOL     OW87769   5.460   9.379   7.541 -0.4253  0.0466 -0.6529
29064SOL    HW187770   5.502   9.293   7.535  1.6205  0.9013  0.4640
29064SOL    HW287771   5.518   9.437   7.491 -2.3024  0.6469 -2.2408
29065SOL     OW87772   4.369   7.662   3.942 -0.1264 -0.0001 -0.2931
29065SOL    HW187773   4.300   7.611   3.984 -1.2674  2.0184  0.4629
29065SOL    HW287774   4.446   7.607   3.947 -1.1720 -1.4361  0.9039
29066SOL     OW87775   9.782   4.402   5.087  0.5588  0.2841 -0.2807
29066SOL    HW187776   9.805   4.480   5.037  0.7005  0.1887 -0.3659
29066SOL    HW287777   9.794   4.330   5.025 -2.0258  0.3938 -1.0344
29067SOL     OW87778   6.607   4.155   8.217 -0.1649 -0.4961 -0.4199
29067SOL    HW187779   6.692   4.136   8.176 -0.0581 -0.2756 -0.3056
29067SOL    HW287780   6.544   4.146   8.146  0.2354  1.9173 -1.1806
29068SOL     OW87781   8.279   4.593   4.484 -0.2924  0.7222 -0.6104
29068SOL    HW187782   8.301   4.667   4.540  0.2684 -1.2093  1.9144
29068SOL    HW287783   8.188   4.573   4.506  0.4706 -1.1650  1.0967
29069SOL     OW87784   4.294   4.986   2.593  0.5150 -0.3915 -0.4028
29069SOL    HW187785   4.369   4.930   2.572  0.8554 -0.2903  0.5122
29069SOL    HW287786   4.331   5.062   2.636  0.1034  0.8525 -2.1338
29070SOL     OW87787   3.513   3.606   0.965 -0.3755 -0.2498 -0.2519
29070SOL    HW187788   3.563   3.673   1.011 -0.0026 -0.9877  0.4501
29070SOL    HW287789   3.422   3.623   0.990 -0.1464 -0.8369  1.0498
29071SOL     OW87790   9.946   4.841   2.636  0.0169  0.6456 -0.3074
29071SOL    HW187791  10.021   4.899   2.650 -1.0135  1.8324  0.5416
29071SOL    HW287792   9.941   4.789   2.716 -0.5657  1.1647 -0.0030
29072SOL     OW87793   1.838   1.882   7.665 -0.1928 -0.1152 -0.0672
29072SOL    HW187794   1.756   1.845   7.632 -0.1728  0.0254 -0.2734
29072SOL    HW287795   1.839   1.858   7.758  0.5561 -1.9700 -0.5110
29073SOL     OW87796   3.808   1.508   9.398  0.3147  0.1571  0.6426
29073SOL    HW187797   3.714   1.502   9.414  0.3309  0.3690  0.8212
29073SOL    HW287798   3.823   1.599   9.372  0.3618 -0.0588 -0.1182
29074SOL     OW87799   6.507   4.421   7.265  0.1976  0.2636  0.2203
29074SOL    HW187800   6.475   4.424   7.175  0.9725  1.0619 -0.0389
29074SOL    HW287801   6.519   4.327   7.282 -2.0305 -0.0693  0.2782
29075SOL     OW87802   9.360   5.178   0.089 -0.0781 -0.4706  0.3717
29075SOL    HW187803   9.387   5.205   0.177  0.2599  0.4912 -0.0156
29075SOL    HW287804   9.433   5.203   0.033 -1.0900  0.7600 -0.4709
29076SOL     OW87805   4.975   7.350   3.824  0.2637  0.0653  0.3727
29076SOL    HW187806   4.980   7.279   3.760 -1.2303 -0.4801  0.8117
29076SOL    HW287807   4.905   7.323   3.884 -0.3771  1.9306  0.5278
29077SOL     OW87808   8.124   5.087   5.815 -0.1670 -0.1186 -0.1156
29077SOL    HW187809   8.138   4.997   5.843 -1.1948  0.0155  0.8812
29077SOL    HW287810   8.197   5.105   5.755  0.2465 -1.4826 -0.0529
29078SOL     OW87811   5.111   8.886   6.554 -0.3683 -0.0158 -0.5979
29078SOL    HW187812   5.018   8.908   6.548 -0.1296  1.6592  0.8659
29078SOL    HW287813   5.115   8.816   6.619 -0.6495 -0.6163 -1.2132
29079SOL     OW87814   1.697   5.717   0.798 -0.7201  0.1197 -0.0119
29079SOL    HW187815   1.779   5.682   0.833 -1.9551 -2.0009  0.9415
29079SOL    HW287816   1.632   5.648   0.815 -2.3402  0.9460 -2.3865
29080SOL     OW87817   7.971   6.800   2.282 -0.2221 -0.2399  0.6002
29080SOL    HW187818   7.927   6.748   2.349  0.9039 -1.0604  0.7287
29080SOL    HW287819   7.934   6.770   2.199 -0.0932 -0.7429  0.7254
29081SOL     OW87820   3.258   1.195   3.313 -0.8131 -0.8311 -0.0854
29081SOL    HW187821   3.240   1.229   3.225 -0.3401 -1.7804 -0.5697
29081SOL    HW287822   3.325   1.254   3.348 -0.2560 -1.0361 -0.7765
29082SOL     OW87823   0.655   2.771   3.861 -0.8559 -0.4407  0.1355
29082SOL    HW187824   0.590   2.743   3.925 -1.8826  3.4073  1.0325
29082SOL    HW287825   0.605   2.787   3.781 -0.8076  1.0286  0.3704
29083SOL     OW87826   0.078   4.552   9.051 -0.1329  0.0712 -0.1067
29083SOL    HW187827   0.011   4.485   9.033  0.4822 -0.7164  0.4836
29083SOL    HW287828   0.153   4.525   8.998 -0.5684  1.4872 -1.5301
29084SOL     OW87829   3.582   5.321   1.718 -0.3030 -0.2032  0.5969
29084SOL    HW187830   3.666   5.321   1.763  0.6166 -3.1804 -0.8809
29084SOL    HW287831   3.549   5.231   1.730 -2.1336  0.2225 -0.8722
29085SOL     OW87832   0.827   6.992   4.001  0.1273 -0.2232 -0.1040
29085SOL    HW187833   0.835   7.004   4.095 -1.7697 -0.1724  0.0910
29085SOL    HW287834   0.823   7.081   3.965 -2.4712 -0.1826  0.1505
29086SOL     OW87835   0.119   9.068   0.538 -0.1923  0.0081  0.0621
29086SOL    HW187836   0.181   9.112   0.598  0.1655 -2.7508  1.9151
29086SOL    HW287837   0.153   8.978   0.531 -1.7989 -0.5011 -2.1586
29087SOL     OW87838   5.591   7.674   7.958 -0.0375 -0.2630  0.0179
29087SOL    HW187839   5.643   7.631   8.026  1.6274 -0.5428 -1.3609
29087SOL    HW287840   5.649   7.740   7.921 -0.7223 -0.4546 -1.4658
29088SOL     OW87841   4.123   0.508   4.953 -0.0277  0.3439  0.2295
29088SOL    HW187842   4.113   0.603   4.954  0.1131  0.3657  1.3663
29088SOL    HW287843   4.206   0.493   4.907 -0.0696  0.7664  0.0115
29089SOL     OW87844   7.435   4.353   2.018  0.2234 -0.1301  0.4819
29089SOL    HW187845   7.487   4.432   2.011  0.0593 -0.1285 -0.8770
29089SOL    HW287846   7.495   4.282   1.997  0.2470 -0.3397  1.2150
29090SOL     OW87847   3.857   1.364   5.773 -0.0202 -0.2589 -0.4032
29090SOL    HW187848   3.861   1.374   5.678  0.9812  1.1756 -0.2485
29090SOL    HW287849   3.946   1.338   5.798  0.0284  0.4693  0.2340
29091SOL     OW87850   1.228   4.746   3.519 -0.5033 -0.6103  0.0897
29091SOL    HW187851   1.293   4.733   3.588 -1.7340 -0.6669  1.2866
29091SOL    HW287852   1.146   4.759   3.566 -1.2017  0.4721 -1.3476
29092SOL     OW87853   5.065   5.259   5.605 -0.3734  0.6008  0.1062
29092SOL    HW187854   5.089   5.192   5.669  0.4813 -0.0166 -0.8211
29092SOL    HW287855   5.117   5.335   5.629 -0.7962  0.7023  0.7233
29093SOL     OW87856   3.478   7.572   6.320  0.1175 -0.0965 -0.0574
29093SOL    HW187857   3.488   7.489   6.275 -0.0085 -0.0248 -0.2180
29093SOL    HW287858   3.519   7.636   6.263 -1.6613  0.2880 -0.9912
29094SOL     OW87859   0.362   3.532   6.538 -0.2721  0.2159 -0.3592
29094SOL    HW187860   0.302   3.607   6.531  0.5636  0.9494  0.1977
29094SOL    HW287861   0.370   3.500   6.448 -0.3050  1.0557 -0.6703
29095SOL     OW87862   1.603   5.581   8.244  0.0666 -0.4107  0.4250
29095SOL    HW187863   1.670   5.640   8.279  0.3368 -1.2507  1.3853
29095SOL    HW287864   1.650   5.502   8.219 -0.2757 -0.1954 -0.9697
29096SOL     OW87865   6.170   6.727   1.795 -0.5638  0.1532 -0.2734
29096SOL    HW187866   6.238   6.789   1.772 -0.2331 -0.2832 -0.4756
29096SOL    HW287867   6.206   6.642   1.772 -0.8460 -0.1544  0.3878
29097SOL     OW87868   4.655   0.839   3.379  0.7672  0.0452 -0.0527
29097SOL    HW187869   4.705   0.763   3.347  0.0540  0.3268 -1.9765
29097SOL    HW287870   4.707   0.915   3.351  0.1604  0.3008 -0.5138
29098SOL     OW87871   8.735   8.064   3.133 -0.4701 -0.7420 -0.2206
29098SOL    HW187872   8.815   8.081   3.183 -1.7198  2.3129  0.9698
29098SOL    HW287873   8.718   8.146   3.086 -2.7808 -1.3584 -0.5761
29099SOL     OW87874   7.359   7.041   4.803  0.3799 -0.4815  0.5534
29099SOL    HW187875   7.370   7.074   4.892 -1.1958  0.2207  0.5264
29099SOL    HW287876   7.439   7.068   4.757  1.3730 -1.1845  1.8367
29100SOL     OW87877   3.718   8.529   1.425 -0.0620 -0.1123 -0.1896
29100SOL    HW187878   3.625   8.513   1.443 -0.5108  0.9694 -1.3539
29100SOL    HW287879   3.725   8.519   1.330  1.3489 -1.6412  0.0282
29101SOL     OW87880   6.694   4.985   9.003  0.2723  0.0003 -0.2037
29101SOL    HW187881   6.784   5.019   9.000 -0.1434  1.0486 -1.3638
29101SOL    HW287882   6.667   4.979   8.911 -1.3445  1.0733  0.1595
29102SOL     OW87883   4.769   1.920   0.122  0.4154  0.3056 -0.0575
29102SOL    HW187884   4.689   1.929   0.069 -0.8169  1.8525  1.9320
29102SOL    HW287885   4.819   1.999   0.102  0.8592 -0.0536 -0.3623
29103SOL     OW87886   9.465   6.309   6.171 -0.3432  0.4572  0.1532
29103SOL    HW187887   9.458   6.385   6.115 -0.5756 -0.3118 -0.8990
29103SOL    HW287888   9.540   6.326   6.227 -0.3166  1.3913 -0.1611
29104SOL     OW87889   7.823   4.903   8.970  0.1377  0.2223 -0.3047
29104SOL    HW187890   7.745   4.852   8.950 -0.4051  1.4389 -1.4378
29104SOL    HW287891   7.895   4.849   8.938  0.0051 -1.8000  2.4699
29105SOL     OW87892   5.515   6.265   8.557  0.2173  0.0649 -0.0449
29105SOL    HW187893   5.468   6.227   8.631 -1.9292  0.3304 -1.2093
29105SOL    HW287894   5.556   6.190   8.514 -0.8050 -0.4558 -0.1382
29106SOL     OW87895   9.489   9.831   9.022 -0.3893  0.2922  0.5741
29106SOL    HW187896   9.504   9.924   9.038 -1.4562  0.6006 -0.1865
29106SOL    HW287897   9.546   9.787   9.086  0.1567  1.4539  0.9123
29107SOL     OW87898   4.574   6.157   1.202  0.0358  0.0540  0.0240
29107SOL    HW187899   4.603   6.127   1.117 -1.6883 -1.1803 -0.1879
29107SOL    HW287900   4.484   6.186   1.188  0.3857  1.7497  1.0332
29108SOL     OW87901   1.110   6.061   3.750 -0.0615 -0.4312  0.0709
29108SOL    HW187902   1.173   6.023   3.811  0.6654  0.6995  0.0528
29108SOL    HW287903   1.070   5.985   3.706  0.9656 -1.1825  0.3956
29109SOL     OW87904   6.401   1.884   3.151  0.2470  0.3200 -0.3370
29109SOL    HW187905   6.336   1.954   3.148 -1.7357 -1.0577  3.5390
29109SOL    HW287906   6.350   1.803   3.145  1.8080 -0.8208  0.8900
29110SOL     OW87907   8.224   9.762   6.008  0.0664  0.1460 -0.2816
29110SOL    HW187908   8.299   9.761   6.067  0.6282  1.1737 -0.9517
29110SOL    HW287909   8.245   9.695   5.942 -0.9471 -1.6086  1.0921
29111SOL     OW87910   6.837   8.057   8.633  0.2894 -0.4071 -0.2194
29111SOL    HW187911   6.904   8.116   8.598 -0.8229  2.3438  1.9090
29111SOL    HW287912   6.851   8.059   8.728 -2.4566 -0.1387  0.2457
29112SOL     OW87913   9.325   9.611   5.692  0.3837 -0.8081  0.0620
29112SOL    HW187914   9.329   9.560   5.611  0.1917 -0.8313  0.0656
29112SOL    HW287915   9.406   9.589   5.738  1.3746  0.6008 -0.9328
29113SOL     OW87916   4.821   1.181   1.739  0.1722 -0.0827 -0.0710
29113SOL    HW187917   4.743   1.157   1.689  0.3960 -1.2710  0.1161
29113SOL    HW287918   4.788   1.230   1.814 -0.3465 -0.1504 -0.2560
29114SOL     OW87919   5.314   5.675   2.627 -0.1027 -0.1642 -0.6834
29114SOL    HW187920   5.360   5.756   2.647  0.0205 -0.2243 -0.7232
29114SOL    HW287921   5.237   5.676   2.685  1.5897 -1.5986  1.7722
29115SOL     OW87922   9.705   4.523   7.549  0.2422  0.6286  0.0605
29115SOL    HW187923   9.755   4.542   7.628  1.1276 -0.6201 -0.1838
29115SOL    HW287924   9.771   4.503   7.483 -0.5612 -0.9486 -0.2981
29116SOL     OW87925   6.907   0.100   5.643  0.5255 -0.0916 -0.3833
29116SOL    HW187926   6.871   0.121   5.729 -1.3730  0.2853 -1.2180
29116SOL    HW287927   6.990   0.147   5.640 -0.0266  1.0298  0.7421
29117SOL     OW87928   1.829   3.091   0.009  0.0222  0.3189 -0.3318
29117SOL    HW187929   1.918   3.066   0.032  0.1146  1.2575  0.3956
29117SOL    HW287930   1.807   3.162   0.071 -1.0770  0.3668 -0.7524
29118SOL     OW87931   6.482   5.888   7.160  0.3647  0.2513 -0.1415
29118SOL    HW187932   6.561   5.930   7.194  0.4724 -0.5783  0.7027
29118SOL    HW287933   6.412   5.951   7.176  0.7069  0.5937  0.0156
29119SOL     OW87934   6.543   5.528   4.070 -0.5837 -0.1143  0.4551
29119SOL    HW187935   6.504   5.583   4.137  0.1756  0.0194  0.7909
29119SOL    HW287936   6.506   5.560   3.987 -0.1904  0.8627  0.6495
29120SOL     OW87937   0.066   6.787   4.009  0.1566 -0.7858 -0.1515
29120SOL    HW187938  -0.006   6.848   4.027  0.6675 -0.0587 -0.4952
29120SOL    HW287939   0.089   6.751   4.095  0.1729 -0.1086  0.1356
29121SOL     OW87940   9.079   1.406   4.063 -0.4473  0.2543  0.1830
29121SOL    HW187941   9.115   1.470   4.002 -1.7574 -0.1321 -1.0627
29121SOL    HW287942   9.006   1.451   4.106  0.2224  0.3978  1.1919
29122SOL     OW87943   3.527   4.660   9.094  0.0316  0.0222  0.0578
29122SOL    HW187944   3.496   4.711   9.019  0.1896  0.8807  0.5560
29122SOL    HW287945   3.622   4.673   9.094 -0.0820  1.0421  1.0972
29123SOL     OW87946   6.403   5.487   9.052  0.9590 -0.4556 -0.0906
29123SOL    HW187947   6.479   5.429   9.044  0.8052 -1.1927  2.6880
29123SOL    HW287948   6.384   5.489   9.146 -2.2598  0.0047 -0.6267
29124SOL     OW87949   8.951   2.607   1.586  0.0276 -0.3349  0.1941
29124SOL    HW187950   8.996   2.620   1.670 -1.8975  0.2496  1.1918
29124SOL    HW287951   8.924   2.515   1.588 -0.1228 -0.2886  0.2604
29125SOL     OW87952   0.794   2.996   9.318 -0.2770 -0.2717  0.0592
29125SOL    HW187953   0.734   2.945   9.372 -2.3786  0.4699 -1.4545
29125SOL    HW287954   0.854   3.037   9.380 -0.0704 -2.5753  1.4767
29126SOL     OW87955   6.296   5.905   6.315 -0.1540  0.7314 -0.2056
29126SOL    HW187956   6.218   5.940   6.274  0.1015  0.9048 -0.5471
29126SOL    HW287957   6.369   5.939   6.263  0.0648 -1.2246 -1.2745
29127SOL     OW87958   2.803   2.401   3.462 -0.2946  0.0906  0.3669
29127SOL    HW187959   2.733   2.377   3.523 -0.3638  0.0870  0.2862
29127SOL    HW287960   2.761   2.460   3.399 -0.2394  0.0401  0.2824
29128SOL     OW87961   0.382   0.335   0.420  0.2581  0.5556  0.0290
29128SOL    HW187962   0.389   0.360   0.512 -0.6580 -0.2435  0.3360
29128SOL    HW287963   0.378   0.418   0.372  2.0055  0.9895  0.5746
29129SOL     OW87964   2.660   5.163   6.338  0.1403  0.7919 -0.3858
29129SOL    HW187965   2.641   5.207   6.422  1.8661  0.6788  0.1040
29129SOL    HW287966   2.749   5.131   6.348 -0.7659 -2.2030 -1.0279
29130SOL     OW87967   5.274   9.208   0.538  0.0378  0.2796 -0.0493
29130SOL    HW187968   5.231   9.292   0.552 -0.3559  0.0191  0.3202
29130SOL    HW287969   5.204   9.148   0.513  0.3853  0.1714 -0.7753
29131SOL     OW87970   6.416   4.812   8.517 -0.0281  0.1907 -0.4165
29131SOL    HW187971   6.481   4.784   8.581 -0.3712  0.0475 -0.1222
29131SOL    HW287972   6.361   4.734   8.504 -0.0378  0.2566 -0.7902
29132SOL     OW87973   8.942   8.425   7.005 -0.2472  0.0117 -0.0190
29132SOL    HW187974   8.946   8.463   7.092  0.2906 -1.7812  0.7856
29132SOL    HW287975   8.992   8.485   6.950 -1.5475  1.7739  0.6237
29133SOL     OW87976   1.093   1.648   9.822  0.2407 -0.4822 -0.3853
29133SOL    HW187977   1.051   1.607   9.898  0.8011  0.9796  0.7578
29133SOL    HW287978   1.025   1.647   9.754 -0.9565 -0.0782  0.7592
29134SOL     OW87979   8.508   3.942   8.576  0.2292 -0.4609  0.2192
29134SOL    HW187980   8.500   3.880   8.649 -0.7379  0.2672  0.7575
29134SOL    HW287981   8.600   3.968   8.577  0.3678 -0.9501  0.7815
29135SOL     OW87982   1.561   6.786   1.890  0.6619 -0.7349 -0.0655
29135SOL    HW187983   1.496   6.824   1.949 -0.8379 -0.2899 -1.9076
29135SOL    HW287984   1.644   6.794   1.937 -0.1180  1.6251  1.0788
29136SOL     OW87985   6.970   4.569   6.004 -0.0508 -0.3315  0.5519
29136SOL    HW187986   6.924   4.576   5.920 -0.0984 -2.1231  0.3869
29136SOL    HW287987   7.061   4.588   5.984 -0.0522 -0.8152  0.0676
29137SOL     OW87988   7.575   6.202   3.382  0.2515 -0.4871  0.4839
29137SOL    HW187989   7.509   6.168   3.442 -2.2401  2.2399 -0.4533
29137SOL    HW287990   7.655   6.155   3.405 -1.4208 -2.2230  3.3730
29138SOL     OW87991   1.674   1.132   8.244 -0.2366  0.3920  0.1909
29138SOL    HW187992   1.622   1.058   8.212  1.1167 -1.0549  1.1833
29138SOL    HW287993   1.618   1.175   8.308 -1.9043  1.6508 -1.9911
29139SOL     OW87994   2.286   0.917   4.506 -0.6929  0.1163 -0.1069
29139SOL    HW187995   2.240   0.873   4.578  0.3933 -0.8128  0.0572
29139SOL    HW287996   2.357   0.964   4.548  0.5212 -1.1930 -0.6199
29140SOL     OW87997   3.549   1.170   5.259  0.2797  0.5293  0.2134
29140SOL    HW187998   3.640   1.199   5.250  1.1337 -2.1511 -0.7612
29140SOL    HW287999   3.498   1.238   5.214  1.7997  1.8989  0.4529
29141SOL     OW88000   7.878   7.423   3.551 -0.8856 -0.4028 -0.3062
29141SOL    HW188001   7.940   7.420   3.623 -0.2899 -1.6220 -0.8500
29141SOL    HW288002   7.860   7.331   3.530 -0.7491 -0.0870 -1.9550
29142SOL     OW88003   7.851   6.422   2.689  0.3727  0.2862  0.1169
29142SOL    HW188004   7.823   6.370   2.764  0.2206 -0.5239 -0.4944
29142SOL    HW288005   7.897   6.360   2.632  0.4586  0.8819 -0.4761
29143SOL     OW88006   2.029   0.622   9.667 -0.4080 -0.1323  0.0564
29143SOL    HW188007   2.093   0.687   9.639  1.9532 -1.7419  1.4368
29143SOL    HW288008   1.954   0.636   9.609  1.5211  1.2153 -2.2788
29144SOL     OW88009   0.829   4.280   6.467 -0.0158 -0.2040  0.3369
29144SOL    HW188010   0.755   4.339   6.481  0.4165  0.0760  1.5601
29144SOL    HW288011   0.896   4.311   6.528  0.2496 -1.8878  0.9662
29145SOL     OW88012   2.233   4.407   7.435  0.1753  0.2293 -0.4970
29145SOL    HW188013   2.270   4.328   7.394 -0.3383 -0.2145 -0.1249
29145SOL    HW288014   2.145   4.414   7.399 -0.8587 -1.0343  1.5952
29146SOL     OW88015   1.958   2.812   9.304 -0.2647  0.6610  0.0241
29146SOL    HW188016   1.977   2.730   9.258 -1.7705 -0.3195  1.0465
29146SOL    HW288017   1.862   2.811   9.314 -0.1373  1.6722  1.6345
29147SOL     OW88018   5.298   9.232   4.622 -0.1766 -0.1177  0.1785
29147SOL    HW188019   5.273   9.142   4.642 -2.6757  0.7970  1.5848
29147SOL    HW288020   5.225   9.267   4.571  0.9473  1.0261 -0.7389
29148SOL     OW88021   4.109   0.507   9.625 -0.0376  0.3108 -1.3343
29148SOL    HW188022   4.047   0.434   9.631  0.2454  0.1033 -0.8805
29148SOL    HW288023   4.059   0.582   9.656  0.7520 -0.3573  1.9652
29149SOL     OW88024   1.350   8.474   5.592  0.3234 -0.1815 -0.4368
29149SOL    HW188025   1.295   8.552   5.594  0.4843 -0.0877  0.9768
29149SOL    HW288026   1.290   8.404   5.565 -0.1913  0.1400 -0.1499
29150SOL     OW88027   0.314   0.938   9.857 -0.1797 -0.2078  0.0821
29150SOL    HW188028   0.359   0.863   9.896  0.6309  1.1054  1.8316
29150SOL    HW288029   0.221   0.920   9.871 -0.1759 -1.9541 -1.6647
29151SOL     OW88030   1.711   3.294   7.929 -0.6390 -0.2581 -0.1152
29151SOL    HW188031   1.713   3.278   7.835 -0.7325 -0.2147 -0.1242
29151SOL    HW288032   1.801   3.275   7.958 -0.5249  0.0472 -0.2669
29152SOL     OW88033   8.846   5.153   7.097  0.1025  0.1684  0.7275
29152SOL    HW188034   8.809   5.096   7.165 -0.9992 -0.0849 -0.0607
29152SOL    HW288035   8.797   5.131   7.018  0.5653  1.2814  0.1102
29153SOL     OW88036   7.998   1.653   9.853 -0.0080 -0.2019  0.0783
29153SOL    HW188037   7.941   1.630   9.926 -2.2600  2.8983 -0.5157
29153SOL    HW288038   7.958   1.611   9.777 -1.6223  1.8735 -0.3177
29154SOL     OW88039   8.996   4.171   0.184  0.6103 -0.5568 -0.3836
29154SOL    HW188040   9.050   4.189   0.108 -1.6776  1.2538 -1.7064
29154SOL    HW288041   8.906   4.174   0.151 -0.4156 -1.0041  2.1457
29155SOL     OW88042   2.813   8.720   4.088 -0.3027  0.3866 -0.1631
29155SOL    HW188043   2.775   8.807   4.075  0.0771  0.5049 -0.5073
29155SOL    HW288044   2.907   8.734   4.078 -0.3357 -0.3161 -1.6355
29156SOL     OW88045   7.275   9.802   6.430  0.8829  0.4973  0.4875
29156SOL    HW188046   7.275   9.766   6.341  0.0727  1.2062  0.1825
29156SOL    HW288047   7.305   9.893   6.418 -1.3756  1.3263  0.5873
29157SOL     OW88048   7.373   4.179   2.665  0.7690 -0.3499 -0.3309
29157SOL    HW188049   7.396   4.269   2.686  0.6706  0.2707 -2.6422
29157SOL    HW288050   7.278   4.180   2.652  0.5158 -1.1751  1.2436
29158SOL     OW88051   9.792   7.773   2.670 -0.1742  0.3197 -0.4488
29158SOL    HW188052   9.713   7.720   2.663 -0.0654  0.1306 -0.2724
29158SOL    HW288053   9.765   7.861   2.645 -0.4481  0.2624 -0.3564
29159SOL     OW88054   8.992   5.582   5.564  0.2904 -0.1732 -0.6906
29159SOL    HW188055   8.988   5.502   5.512 -1.2806  0.6438 -1.9134
29159SOL    HW288056   9.044   5.642   5.511  0.3750  0.0357 -0.3702
29160SOL     OW88057   9.670   1.865   6.062 -0.5947 -0.3401 -0.3616
29160SOL    HW188058   9.686   1.796   5.999  1.5099 -0.6816  0.4604
29160SOL    HW288059   9.660   1.819   6.146 -0.2093  0.2860  0.0351
29161SOL     OW88060   6.609  -0.003   2.189 -0.4478  0.0309  0.4202
29161SOL    HW188061   6.583  -0.040   2.273 -1.0636 -1.2413 -0.3166
29161SOL    HW288062   6.537   0.055   2.165 -0.5336 -0.0432  0.4971
29162SOL     OW88063   5.911   5.996   3.840 -0.1077 -0.2114  0.1407
29162SOL    HW188064   5.981   5.967   3.898 -0.7067 -1.3207  0.3430
29162SOL    HW288065   5.834   6.003   3.897  0.4684  4.4905  0.7366
29163SOL     OW88066   5.008   3.044   5.424 -0.3704 -0.2486  0.1086
29163SOL    HW188067   4.919   3.080   5.420  0.2008  1.1584 -1.1873
29163SOL    HW288068   5.064   3.121   5.434  0.7354 -1.0462  0.1427
29164SOL     OW88069   5.960   2.917   1.747 -0.0711 -0.6797 -0.4784
29164SOL    HW188070   5.905   2.995   1.743  1.8539  0.8386  0.8956
29164SOL    HW288071   5.928   2.869   1.824 -0.2107 -0.4023 -0.3621
29165SOL     OW88072   3.534   4.463   1.752 -0.6485  0.8213 -0.1344
29165SOL    HW188073   3.515   4.379   1.710 -0.5711  2.1555 -3.1056
29165SOL    HW288074   3.629   4.468   1.752 -0.6227  0.5238  0.9462
29166SOL     OW88075   8.112   9.361   0.706  0.0957  0.2024 -0.0318
29166SOL    HW188076   8.139   9.297   0.640 -1.2215  0.0446 -0.4396
29166SOL    HW288077   8.195   9.398   0.738  0.8630 -1.3815 -0.0832
29167SOL     OW88078   8.999   3.181   1.302  0.0476  0.1814  0.0360
29167SOL    HW188079   8.986   3.099   1.255 -1.4292 -0.5523  1.5865
29167SOL    HW288080   9.092   3.182   1.325 -0.2581 -2.0994  1.7228
29168SOL     OW88081   1.717   3.117   6.620 -0.5684  0.5802 -0.1765
29168SOL    HW188082   1.786   3.054   6.642  0.2042  1.6865  0.6534
29168SOL    HW288083   1.638   3.064   6.612  0.1125 -0.5323  0.2492
29169SOL     OW88084   4.753   9.176   2.030  0.3421 -0.4341  0.2054
29169SOL    HW188085   4.665   9.199   2.059 -0.4023 -0.0922 -2.1138
29169SOL    HW288086   4.752   9.081   2.020  0.1036 -0.3816 -0.2499
29170SOL     OW88087   3.603   0.161   1.089  0.3343  0.3742  0.2583
29170SOL    HW188088   3.641   0.079   1.057  0.2655 -0.3748  1.9837
29170SOL    HW288089   3.672   0.226   1.076  0.3159  0.1329 -1.3231
29171SOL     OW88090   8.500   1.898   6.745 -0.5266 -0.8889 -0.2238
29171SOL    HW188091   8.432   1.918   6.682 -0.4708 -1.2762 -0.4090
29171SOL    HW288092   8.462   1.920   6.830 -1.0051 -1.4230 -0.2973
29172SOL     OW88093   2.336   4.917   7.610  0.3882  0.0019  0.0946
29172SOL    HW188094   2.426   4.924   7.579  0.0096  1.6995 -0.7158
29172SOL    HW288095   2.316   5.003   7.648 -1.8575  0.7759 -2.5100
29173SOL     OW88096   9.919   0.295   8.947  0.1344  0.3403 -0.3664
29173SOL    HW188097   9.999   0.347   8.949 -0.9718  2.1255 -0.7339
29173SOL    HW288098   9.866   0.328   9.020 -1.0492  0.5574 -1.2797
29174SOL     OW88099   1.395   6.341   8.464 -0.1974 -0.1415  0.3952
29174SOL    HW188100   1.339   6.417   8.446 -0.8820 -0.5023  0.9933
29174SOL    HW288101   1.335   6.267   8.464  0.5496 -0.7735 -0.7504
29175SOL     OW88102   1.474   8.054   9.951 -0.2731  0.0938 -0.1566
29175SOL    HW188103   1.401   7.996   9.931  0.1721 -0.5393  0.0315
29175SOL    HW288104   1.450   8.095  10.034  0.2581 -1.2478  0.6722
29176SOL     OW88105   7.056   9.554   2.652  0.1130  0.4712  0.2290
29176SOL    HW188106   7.083   9.491   2.719 -0.0039  1.2541  1.0279
29176SOL    HW288107   7.092   9.637   2.681 -1.1011  1.0866  0.0647
29177SOL     OW88108   6.842   7.650   2.601  0.2982  0.2386 -0.2429
29177SOL    HW188109   6.758   7.661   2.646  0.2796  0.9080 -0.4370
29177SOL    HW288110   6.823   7.589   2.530 -0.3704  1.5255 -1.1918
29178SOL     OW88111   9.293   1.156   7.567 -0.4228  0.2413  0.6833
29178SOL    HW188112   9.300   1.141   7.661  0.8390  0.2721  0.6083
29178SOL    HW288113   9.383   1.157   7.536 -0.6432  2.9430 -0.1204
29179SOL     OW88114   8.730   1.958   7.026  0.2251  0.5888 -0.2783
29179SOL    HW188115   8.653   1.932   7.076  0.2494  0.2022 -0.4389
29179SOL    HW288116   8.697   2.014   6.957  0.0192 -0.0378 -0.6894
29180SOL     OW88117   2.290   5.662   4.444 -0.0246 -0.7588 -0.4678
29180SOL    HW188118   2.211   5.697   4.403 -0.1836 -0.6077 -0.0387
29180SOL    HW288119   2.291   5.702   4.531  1.5854  0.8560 -1.1519
29181SOL     OW88120   7.012   1.865   1.677 -0.3830  0.2632  0.0756
29181SOL    HW188121   6.916   1.868   1.674 -0.3855  1.9422  0.8349
29181SOL    HW288122   7.035   1.908   1.760  0.9947 -1.8274  0.8818
29182SOL     OW88123   6.946   1.427   8.241 -0.2307  0.5808  0.1577
29182SOL    HW188124   6.900   1.504   8.208 -0.0814  0.9736  0.8426
29182SOL    HW288125   7.001   1.460   8.312 -0.7240 -0.2789  0.9686
29183SOL     OW88126   0.397   5.492   4.441 -0.4700  0.5347  0.6283
29183SOL    HW188127   0.483   5.534   4.449 -0.4224  0.7811 -0.9473
29183SOL    HW288128   0.337   5.564   4.424 -0.5403  0.0950 -1.1173
29184SOL     OW88129   8.957   5.215   9.404  0.0828  0.1908  0.0521
29184SOL    HW188130   8.941   5.294   9.351  0.7625  0.0792 -0.3269
29184SOL    HW288131   9.002   5.155   9.345  2.7047  0.8040  1.2837
29185SOL     OW88132   4.305   3.174   4.274  0.2929  0.0986  0.4552
29185SOL    HW188133   4.347   3.096   4.311 -0.3415  1.0409  3.4303
29185SOL    HW288134   4.378   3.225   4.239  0.8255 -1.2401 -0.5354
29186SOL     OW88135   8.044   4.347   8.795 -0.2835  0.3583  0.2905
29186SOL    HW188136   8.111   4.332   8.862 -0.1563  1.3809  0.4092
29186SOL    HW288137   8.071   4.429   8.753 -1.1220  0.4415 -0.0919
29187SOL     OW88138   5.546   9.058   3.180 -0.5450 -0.0651 -0.3711
29187SOL    HW188139   5.628   9.010   3.172  0.6349  1.3797  1.9604
29187SOL    HW288140   5.522   9.079   3.089  1.9244 -0.1094 -1.1090
29188SOL     OW88141   6.632   5.729   6.839  0.2125 -0.3316 -0.9475
29188SOL    HW188142   6.553   5.781   6.853 -0.1955 -1.1824  0.1255
29188SOL    HW288143   6.646   5.685   6.923  2.1731  0.2467 -0.9236
29189SOL     OW88144   9.673   2.624   4.377 -0.4803  0.0776 -0.4103
29189SOL    HW188145   9.646   2.714   4.357  0.7292  0.3839 -0.7723
29189SOL    HW288146   9.667   2.578   4.294  1.0976  0.4332 -0.7576
29190SOL     OW88147   2.142   6.414   9.552 -0.5648  0.2731  0.0184
29190SOL    HW188148   2.071   6.474   9.576  0.4793  1.7399 -0.4271
29190SOL    HW288149   2.210   6.430   9.617  0.0209  0.0952 -0.5464
29191SOL     OW88150   1.112   5.082   8.700  0.5615  0.4042 -1.3730
29191SOL    HW188151   1.196   5.085   8.653  0.9039 -2.2290 -1.1077
29191SOL    HW288152   1.100   4.989   8.721 -1.4664  0.9839  0.3734
29192SOL     OW88153   0.994   9.574   2.699  0.2946 -0.3336  0.6358
29192SOL    HW188154   0.972   9.664   2.676  0.0294 -0.3745  0.7161
29192SOL    HW288155   0.912   9.526   2.688  0.3736 -0.5169  0.8321
29193SOL     OW88156   2.325   9.977   6.120 -0.3603  0.3787  0.0863
29193SOL    HW188157   2.368   9.942   6.042 -1.9732 -0.2489 -0.5673
29193SOL    HW288158   2.268   9.906   6.150  0.1278  0.6660  1.7723
29194SOL     OW88159   9.740   5.633   5.479 -0.3540  0.5971 -0.4128
29194SOL    HW188160   9.799   5.606   5.550 -0.7986  0.3090 -0.1458
29194SOL    HW288161   9.653   5.607   5.510 -0.5554  0.5058 -1.0488
29195SOL     OW88162   9.137   7.111   6.174  0.2201 -0.2281  0.0910
29195SOL    HW188163   9.063   7.057   6.203 -1.3335  1.5141 -0.4464
29195SOL    HW288164   9.142   7.182   6.238  2.1546 -0.8664  0.7205
29196SOL     OW88165   9.501   3.733   8.783 -0.0183  0.3966  0.0214
29196SOL    HW188166   9.592   3.704   8.778 -0.1543  0.0589 -0.6576
29196SOL    HW288167   9.456   3.664   8.831 -0.0427  0.2340 -0.2334
29197SOL     OW88168   8.773   6.290   3.081 -0.1219  0.1066  0.1761
29197SOL    HW188169   8.682   6.262   3.084  0.2665 -1.4960 -1.3600
29197SOL    HW288170   8.815   6.245   3.155 -0.5303  0.7751  0.8290
29198SOL     OW88171   6.167   0.200   2.727 -0.2690 -0.1073 -0.4797
29198SOL    HW188172   6.073   0.214   2.741 -0.6185 -2.4282 -0.0059
29198SOL    HW288173   6.175   0.105   2.714  2.2373 -0.2900  1.5291
29199SOL     OW88174   4.557   8.773   6.598 -0.2262  0.2158 -0.2356
29199SOL    HW188175   4.627   8.707   6.591  0.3215  0.8359 -0.7096
29199SOL    HW288176   4.593   8.840   6.656 -0.6341  0.2866 -0.0636
29200SOL     OW88177   5.366   4.460   3.289  0.0589 -0.1613  0.0122
29200SOL    HW188178   5.437   4.521   3.267 -1.7543  1.1429 -2.8584
29200SOL    HW288179   5.373   4.390   3.225 -0.8786 -0.3346  0.0836
29201SOL     OW88180   2.135   5.307   5.686  0.2454 -0.2167  0.4749
29201SOL    HW188181   2.042   5.323   5.672  0.1737 -0.7907  0.3018
29201SOL    HW288182   2.154   5.349   5.770 -0.1212  0.0847  0.4082
29202SOL     OW88183   1.646   5.833   8.487 -0.0228 -0.0387  0.1211
29202SOL    HW188184   1.699   5.877   8.553 -2.4154  0.7121  1.6476
29202SOL    HW288185   1.566   5.884   8.481  0.2674  0.3250 -3.8950
29203SOL     OW88186   7.975   7.363   9.271  0.2320  0.0528 -0.2681
29203SOL    HW188187   8.002   7.454   9.264  2.2051 -0.5129 -0.5566
29203SOL    HW288188   8.024   7.329   9.346 -1.3326 -0.5165  0.5541
29204SOL     OW88189   6.602   6.009   1.229  0.3135 -0.1535 -0.2205
29204SOL    HW188190   6.662   5.939   1.256  1.3960 -0.5008 -3.1461
29204SOL    HW288191   6.525   5.997   1.284  1.1977 -2.4829  0.6365
29205SOL     OW88192   5.655   8.955   1.544 -0.2493 -0.4729  0.3350
29205SOL    HW188193   5.662   8.978   1.636  0.3797 -1.1996  0.4824
29205SOL    HW288194   5.736   8.986   1.505 -0.9607  0.7748 -0.2044
29206SOL     OW88195   5.138   8.290   7.950 -0.1407 -0.2836  0.0103
29206SOL    HW188196   5.054   8.316   7.989 -0.8825  1.1475 -2.3392
29206SOL    HW288197   5.119   8.207   7.907 -0.4524  0.1738 -0.7518
29207SOL     OW88198   1.531   9.922   2.058 -0.5026 -0.0318 -0.1790
29207SOL    HW188199   1.623   9.928   2.034 -0.5526  1.6157 -0.0511
29207SOL    HW288200   1.531   9.890   2.148 -0.1212 -1.0065 -0.5077
29208SOL     OW88201   6.913   4.192   0.537 -0.3805  0.1034 -0.2944
29208SOL    HW188202   6.925   4.287   0.541  1.6055  0.0180 -2.2614
29208SOL    HW288203   6.990   4.156   0.581 -0.3122 -0.5830 -0.9572
29209SOL     OW88204   3.909   7.858   7.776  0.2957 -0.0514  0.3753
29209SOL    HW188205   3.903   7.772   7.736 -0.9530 -0.0919  0.6200
29209SOL    HW288206   3.823   7.873   7.815  0.0094  1.8638 -0.8277
29210SOL     OW88207   6.078   2.322   4.051 -0.4998 -0.2812 -0.0533
29210SOL    HW188208   5.995   2.363   4.027 -0.7922 -0.8043  0.0427
29210SOL    HW288209   6.084   2.245   3.995 -0.5168 -0.7460  0.5756
29211SOL     OW88210   2.332   6.600   5.537 -0.3474  0.3968  0.2293
29211SOL    HW188211   2.291   6.548   5.606 -1.5081 -1.0138 -1.4002
29211SOL    HW288212   2.401   6.543   5.502 -0.9339  0.3294 -0.8870
29212SOL     OW88213   3.972   6.329   7.044  0.7858  0.2885 -0.2001
29212SOL    HW188214   3.961   6.336   7.139  1.0503  1.7520 -0.2443
29212SOL    HW288215   3.910   6.262   7.017 -2.4415  2.7199  0.5009
29213SOL     OW88216   2.999   7.565   9.584  0.1022  0.3259 -0.7676
29213SOL    HW188217   3.076   7.520   9.617 -0.7907  0.6751  2.0820
29213SOL    HW288218   2.989   7.641   9.642 -1.7192  0.9121 -1.7628
29214SOL     OW88219   0.054   6.311   6.192 -0.4656 -0.0381 -0.1621
29214SOL    HW188220   0.035   6.277   6.105 -1.8212 -1.2273  0.5603
29214SOL    HW288221   0.061   6.234   6.248 -2.8994  0.7251  1.3892
29215SOL     OW88222   3.542   0.888   2.373  0.1663  0.8847 -0.1087
29215SOL    HW188223   3.610   0.845   2.425 -0.3255 -0.2658 -0.3734
29215SOL    HW288224   3.582   0.902   2.288  0.1672  0.4293 -0.1883
29216SOL     OW88225   5.344   5.901   7.423  0.1554  0.3733  0.4732
29216SOL    HW188226   5.347   5.926   7.331  1.1420  1.9331  0.8926
29216SOL    HW288227   5.326   5.807   7.421  3.2039 -0.3219 -1.4424
29217SOL     OW88228   5.206   6.874   8.851  0.1701 -0.4601  0.0989
29217SOL    HW188229   5.256   6.802   8.889  1.1854  0.4605  0.5405
29217SOL    HW288230   5.271   6.937   8.823 -0.7383  0.9822  1.1084
29218SOL     OW88231   4.655   5.089   7.846  0.4230  0.4215 -0.3053
29218SOL    HW188232   4.714   5.093   7.771 -0.1609  2.0060 -0.7143
29218SOL    HW288233   4.702   5.132   7.917 -0.0428  1.3217 -0.5211
29219SOL     OW88234   1.957   2.490   1.205  0.0334 -0.5523 -0.0103
29219SOL    HW188235   2.012   2.499   1.127  2.5999 -1.7607  1.5403
29219SOL    HW288236   2.001   2.542   1.272 -1.6516 -0.2217  0.9050
29220SOL     OW88237   1.247   1.256   8.627 -0.0167 -0.2634  0.5075
29220SOL    HW188238   1.217   1.325   8.568  0.3820 -1.2331 -0.8763
29220SOL    HW288239   1.172   1.197   8.636  0.3694 -0.8771 -0.2048
29221SOL     OW88240   8.251   0.937   2.562  0.0982 -0.1811  0.4130
29221SOL    HW188241   8.255   1.027   2.527  0.2291 -0.0687  0.7190
29221SOL    HW288242   8.258   0.948   2.657 -0.8398 -0.4462  0.5220
29222SOL     OW88243   7.483   4.823   8.671 -0.0984 -0.3579 -0.2118
29222SOL    HW188244   7.507   4.916   8.675  1.4610 -0.7680  0.9495
29222SOL    HW288245   7.431   4.815   8.591 -0.2743  1.5100 -0.3295
29223SOL     OW88246   7.502   8.324   4.052  0.0242  0.5209 -0.1233
29223SOL    HW188247   7.561   8.383   4.098 -0.4886  0.0856  1.1160
29223SOL    HW288248   7.419   8.330   4.100 -0.9480  1.0755 -1.7839
29224SOL     OW88249   8.192   3.965   8.394  0.1462  0.3506  0.5200
29224SOL    HW188250   8.195   3.910   8.473  1.9550  0.6324  0.6969
29224SOL    HW288251   8.104   4.003   8.394  0.5171  1.4623  3.2171
29225SOL     OW88252   1.305   3.390   7.495  0.1998 -0.4753 -0.1438
29225SOL    HW188253   1.284   3.386   7.401  0.3529  1.4786 -0.2918
29225SOL    HW288254   1.243   3.329   7.535 -0.1009 -1.0964 -1.4722
29226SOL     OW88255   3.510   0.261   1.549  0.7611 -0.2613  0.4610
29226SOL    HW188256   3.494   0.259   1.455  0.9239 -1.3724  0.4413
29226SOL    HW288257   3.592   0.212   1.561  1.3849  0.8738  1.0707
29227SOL     OW88258   7.726   3.100   4.441  0.6551 -0.1528 -0.5249
29227SOL    HW188259   7.817   3.102   4.410  0.8367 -1.2225 -0.1013
29227SOL    HW288260   7.675   3.135   4.368  1.5840  2.5406  0.0069
29228SOL     OW88261   6.114   6.941   3.430 -0.2630  0.6609  0.0723
29228SOL    HW188262   6.115   6.891   3.512 -0.5372  0.3991 -0.0779
29228SOL    HW288263   6.203   6.974   3.421 -0.1604  0.4679  0.3429
29229SOL     OW88264   8.732   1.124   1.555 -0.0610  0.0252 -0.1268
29229SOL    HW188265   8.667   1.120   1.626 -0.2622  0.5629 -0.2733
29229SOL    HW288266   8.735   1.035   1.520 -0.9757  0.0693 -0.3388
29230SOL     OW88267   5.518   0.417   3.574 -0.5837  0.7957  0.1157
29230SOL    HW188268   5.468   0.419   3.655 -1.2631  0.3733 -0.2803
29230SOL    HW288269   5.503   0.330   3.538 -0.6996  1.1365 -0.7028
29231SOL     OW88270   4.035   1.966   5.077  0.0973 -0.5660  0.4022
29231SOL    HW188271   4.115   1.941   5.031 -0.5417  0.5592 -1.4385
29231SOL    HW288272   4.062   2.039   5.133  0.3084  0.0917 -0.5285
29232SOL     OW88273   3.611   5.701   6.783  0.5026  0.3185 -0.3770
29232SOL    HW188274   3.528   5.747   6.776 -0.7033 -1.8080 -0.6622
29232SOL    HW288275   3.646   5.701   6.693 -1.1963 -2.2549 -1.1284
29233SOL     OW88276   7.270   4.212   4.934 -0.3379 -0.1994 -0.0298
29233SOL    HW188277   7.225   4.283   4.980 -0.3327  0.1679 -0.5780
29233SOL    HW288278   7.259   4.233   4.841 -0.1021 -0.7725 -0.1910
29234SOL     OW88279   6.435   4.736   5.087 -0.3529 -0.0729 -0.0109
29234SOL    HW188280   6.457   4.687   5.166 -0.8406 -1.6400 -0.8045
29234SOL    HW288281   6.474   4.685   5.015 -1.1401  0.5349 -0.8915
29235SOL     OW88282   2.923   8.039   9.117  0.2378 -0.5602  0.6867
29235SOL    HW188283   2.906   8.089   9.197  1.4145  0.3496  0.3984
29235SOL    HW288284   3.016   8.017   9.123 -0.1878 -2.4915  0.6620
29236SOL     OW88285   7.370   3.022   2.158 -0.1853  0.3420  0.1555
29236SOL    HW188286   7.417   2.957   2.212 -0.4693 -0.4938 -0.5751
29236SOL    HW288287   7.435   3.053   2.096 -0.8555 -1.8989 -1.8297
29237SOL     OW88288   8.688   6.861   9.143 -0.3387 -0.2026  0.1440
29237SOL    HW188289   8.608   6.860   9.195 -0.2924 -0.7997  0.2120
29237SOL    HW288290   8.659   6.878   9.054 -0.5105 -0.1056  0.2191
29238SOL     OW88291   3.561   8.455   0.861  0.7790 -0.7724 -0.7216
29238SOL    HW188292   3.653   8.432   0.870  0.8825 -0.1816 -0.1771
29238SOL    HW288293   3.529   8.464   0.951  0.7319  1.0628 -0.8735
29239SOL     OW88294   5.701   3.326   0.909  0.5584 -0.4725  0.4273
29239SOL    HW188295   5.642   3.355   0.839 -2.8468 -2.6529  2.1240
29239SOL    HW288296   5.773   3.389   0.907 -2.1209  2.9112 -1.4006
29240SOL     OW88297   2.607   9.554   3.286 -0.2151  0.4057 -0.1897
29240SOL    HW188298   2.697   9.573   3.259  0.8086 -1.3225  1.7357
29240SOL    HW288299   2.567   9.513   3.209  0.8052  0.6277 -0.8617
29241SOL     OW88300   4.089   1.230   2.368 -0.7736 -0.0696 -0.3753
29241SOL    HW188301   4.150   1.185   2.310 -0.5406  0.4853 -0.5639
29241SOL    HW288302   4.036   1.159   2.405  1.9594 -0.9414  2.2110
29242SOL     OW88303   2.006   8.666   2.402  0.0261 -0.2931 -0.3048
29242SOL    HW188304   2.018   8.739   2.463 -0.0110 -1.0087  0.5833
29242SOL    HW288305   1.976   8.593   2.457  1.8008 -1.5197 -0.8581
29243SOL     OW88306   1.588   9.687   7.468 -0.3580  0.2364 -0.2009
29243SOL    HW188307   1.550   9.714   7.551 -0.8261  1.3239 -0.7453
29243SOL    HW288308   1.643   9.761   7.442 -0.9151  0.2974 -1.2682
29244SOL     OW88309   3.918   5.298   6.069  0.1397 -0.8345 -0.1439
29244SOL    HW188310   3.827   5.329   6.066  0.3670  0.0590  1.1506
29244SOL    HW288311   3.954   5.318   5.983 -0.7585 -0.7917 -0.5198
29245SOL     OW88312   5.570   3.516   6.066 -0.6338  0.6261 -0.0501
29245SOL    HW188313   5.606   3.432   6.094 -0.2978  1.2164  1.3801
29245SOL    HW288314   5.482   3.495   6.035 -0.2378 -0.3676 -0.5388
29246SOL     OW88315   5.616   3.267   3.925  0.0685  0.3438  0.1509
29246SOL    HW188316   5.562   3.335   3.883  0.9132  0.1138 -1.3707
29246SOL    HW288317   5.570   3.185   3.905 -0.7147  0.3888  1.6157
29247SOL     OW88318   0.182   6.266   6.849 -0.2221  0.9392 -0.2841
29247SOL    HW188319   0.129   6.294   6.774 -0.6971  2.4794  0.5734
29247SOL    HW288320   0.269   6.301   6.831 -0.2581  1.0355 -0.2744
29248SOL     OW88321   4.063   7.459   1.390  0.3760  0.7033 -0.6989
29248SOL    HW188322   3.976   7.486   1.362 -0.2867 -2.0276 -1.5319
29248SOL    HW288323   4.111   7.446   1.308  1.3097  1.3119 -0.2667
29249SOL     OW88324   0.970   1.087   7.808 -0.0853  0.1031 -1.0017
29249SOL    HW188325   0.892   1.079   7.862  1.5843 -0.7368  1.4344
29249SOL    HW288326   0.937   1.103   7.720 -2.9520  0.8013  0.1141
29250SOL     OW88327   9.601   1.023   1.863 -0.3312 -0.3068  0.1012
29250SOL    HW188328   9.583   1.092   1.927  2.2434  0.3379  0.2404
29250SOL    HW288329   9.683   1.049   1.822 -0.1506 -2.4600 -1.0501
29251SOL     OW88330   4.704   1.039   9.930 -0.5015 -0.6287 -0.4759
29251SOL    HW188331   4.620   1.049   9.885 -0.8387 -2.2544 -0.2985
29251SOL    HW288332   4.768   1.024   9.861 -0.2088  1.2500 -0.6550
29252SOL     OW88333   5.494   9.674   0.910  0.2683  0.4615 -0.0434
29252SOL    HW188334   5.585   9.702   0.909 -0.3140  2.5069 -0.0157
29252SOL    HW288335   5.488   9.608   0.842  1.4124  1.6028 -1.2982
29253SOL     OW88336   3.088   7.262   3.448  0.1946 -0.0393  0.3426
29253SOL    HW188337   3.070   7.196   3.515 -0.9216  1.9959  2.2183
29253SOL    HW288338   3.181   7.254   3.430  0.4490 -0.9000  1.9021
29254SOL     OW88339   0.599   3.997   4.896 -0.2685  0.1209  0.1655
29254SOL    HW188340   0.614   3.941   4.972  0.8949  1.4995  1.0093
29254SOL    HW288341   0.667   4.065   4.903 -1.5047  1.5245 -0.9127
29255SOL     OW88342   5.362   0.872   2.270  0.2931 -0.0537 -0.5690
29255SOL    HW188343   5.419   0.866   2.194 -0.4897  0.4566 -1.2143
29255SOL    HW288344   5.280   0.907   2.236  1.0771  3.9547  1.1003
29256SOL     OW88345   2.761   4.956   4.274  0.2886 -0.1366 -0.7177
29256SOL    HW188346   2.690   4.908   4.231 -2.2762  3.1799 -0.5959
29256SOL    HW288347   2.803   5.004   4.203  0.4197  0.2221 -0.4007
29257SOL     OW88348   5.180   6.253   4.972 -0.4614  0.0967 -0.4787
29257SOL    HW188349   5.203   6.160   4.972  1.6720  0.5694 -1.5448
29257SOL    HW288350   5.154   6.270   4.882  0.0575  0.7247 -0.5139
29258SOL     OW88351   1.145   5.466   7.293 -0.1304  0.4368  0.5416
29258SOL    HW188352   1.157   5.435   7.383  0.5598  0.3817  0.4352
29258SOL    HW288353   1.051   5.463   7.279 -0.1605 -0.5607  0.9102
29259SOL     OW88354   1.775   6.783   2.066  0.4714  0.3055 -0.3053
29259SOL    HW188355   1.707   6.748   2.124 -0.2042  1.6133 -0.2803
29259SOL    HW288356   1.855   6.780   2.118 -0.1854  1.7789  0.8508
29260SOL     OW88357   4.744   2.200   2.947  0.0787  0.5464  0.3674
29260SOL    HW188358   4.728   2.279   2.999 -0.3501  0.3671  0.5141
29260SOL    HW288359   4.657   2.172   2.919  0.2016 -0.0430  0.5634
29261SOL     OW88360   2.319   8.970   6.747 -0.0415  0.3609  0.2070
29261SOL    HW188361   2.290   9.056   6.779 -1.2758 -0.2625  0.8449
29261SOL    HW288362   2.410   8.984   6.719 -0.5608  2.1277 -0.7583
29262SOL     OW88363   9.710   8.653   3.604  0.3028  0.1370 -0.3123
29262SOL    HW188364   9.780   8.699   3.650 -0.5355  0.3311  0.8071
29262SOL    HW288365   9.654   8.619   3.674 -1.2797  0.8616 -1.1676
29263SOL     OW88366   7.726   0.677   1.321  0.5593 -0.3194 -0.3019
29263SOL    HW188367   7.702   0.591   1.356 -1.4312  0.2802 -0.0711
29263SOL    HW288368   7.755   0.726   1.398 -0.1236 -0.2091 -0.1062
29264SOL     OW88369   2.925   4.085   4.519  0.3414 -0.2924  0.2472
29264SOL    HW188370   2.905   3.992   4.503  1.4849 -0.5055 -0.0275
29264SOL    HW288371   2.940   4.090   4.614  3.0974 -1.0098 -0.0643
29265SOL     OW88372   1.192   8.446   4.986  0.5380  0.3089  0.2563
29265SOL    HW188373   1.170   8.488   5.069 -1.3465 -1.3966  0.6991
29265SOL    HW288374   1.165   8.510   4.919 -0.4541  0.6299  0.9319
29266SOL     OW88375   5.676   2.937   2.357  0.2443  0.1723 -0.2630
29266SOL    HW188376   5.589   2.924   2.318 -0.0675  1.1358  0.0820
29266SOL    HW288377   5.664   2.914   2.450  0.6671 -0.8554 -0.4453
29267SOL     OW88378   1.690   7.685   0.632  0.3212 -0.0847 -0.1187
29267SOL    HW188379   1.709   7.778   0.621 -0.8195  0.3006  1.0057
29267SOL    HW288380   1.748   7.656   0.702 -1.1503  0.4257  1.3555
29268SOL     OW88381   9.288   9.242   1.219 -0.1503 -0.2679  0.0471
29268SOL    HW188382   9.258   9.322   1.261 -0.3502  1.7773 -3.5805
29268SOL    HW288383   9.235   9.173   1.258 -1.9105  1.7252  1.3952
29269SOL     OW88384   6.950   6.541   5.825 -0.2155 -0.4703  0.0758
29269SOL    HW188385   6.861   6.545   5.791  0.1657 -0.2733 -0.9411
29269SOL    HW288386   6.951   6.603   5.897 -1.1504 -1.1706  0.7114
29270SOL     OW88387   5.056   2.805   0.204 -0.3265  0.1651  0.0817
29270SOL    HW188388   5.013   2.890   0.204 -1.6782 -0.4806 -0.3557
29270SOL    HW288389   5.071   2.785   0.296  0.6711  1.1760  0.1564
29271SOL     OW88390   3.951   1.168   3.178 -0.3581  0.2651 -0.2617
29271SOL    HW188391   4.009   1.129   3.113 -0.5897  0.8615 -0.8419
29271SOL    HW288392   3.877   1.201   3.128  0.7924  3.3610 -0.1646
29272SOL     OW88393   5.740   9.570   1.804 -0.5661 -0.5542 -0.5844
29272SOL    HW188394   5.692   9.636   1.755 -0.8330 -0.6584 -0.4662
29272SOL    HW288395   5.695   9.487   1.785  0.3713 -0.8688 -1.5273
29273SOL     OW88396   1.931   5.238   8.258 -0.3445 -0.0542 -0.1024
29273SOL    HW188397   2.014   5.205   8.224  0.1603  0.4320  0.6469
29273SOL    HW288398   1.932   5.216   8.351 -0.2600  1.5245  0.2943
29274SOL     OW88399   6.789   9.293   9.462 -0.5547  0.7100  0.4335
29274SOL    HW188400   6.835   9.260   9.539 -0.8060 -0.5954  0.0428
29274SOL    HW288401   6.817   9.385   9.455  0.8321  0.3637  1.0633
29275SOL     OW88402   0.340   3.298   5.874  0.0899  0.3876  0.6380
29275SOL    HW188403   0.389   3.271   5.797 -0.6091  0.6580  0.0831
29275SOL    HW288404   0.336   3.220   5.930  1.5104  0.4869  0.9009
29276SOL     OW88405   7.137   9.888   2.983  0.5608  0.1332  0.7021
29276SOL    HW188406   7.124   9.982   2.971  2.3348  0.2919 -0.3314
29276SOL    HW288407   7.209   9.881   3.045  1.0537 -0.5080  0.0766
29277SOL     OW88408   1.135   5.468   5.399 -0.3277  0.2653 -0.9507
29277SOL    HW188409   1.064   5.530   5.413  0.1675  0.6660 -0.0731
29277SOL    HW288410   1.155   5.473   5.306 -3.1022 -1.7120 -1.7591
29278SOL     OW88411   0.019   3.138   6.956  0.0689  0.3644 -0.3296
29278SOL    HW188412  -0.020   3.223   6.978  2.3804  1.0597  1.4784
29278SOL    HW288413   0.021   3.090   7.038 -0.2192 -1.0768 -1.1175
29279SOL     OW88414   2.375   3.438   0.538  0.6911 -0.1045  0.0632
29279SOL    HW188415   2.363   3.349   0.505 -1.6166  0.3513 -0.5186
29279SOL    HW288416   2.391   3.491   0.460 -1.5360  0.4857 -0.0516
29280SOL     OW88417   3.783   6.060   6.263 -0.5300  0.4828 -0.1198
29280SOL    HW188418   3.805   6.142   6.307 -1.0331 -0.5315  2.1268
29280SOL    HW288419   3.699   6.033   6.301  0.1386 -1.6094  0.0132
29281SOL     OW88420   0.535   3.752   0.953  0.1640 -0.6935 -0.5876
29281SOL    HW188421   0.592   3.678   0.931 -0.0507 -0.9372 -0.3341
29281SOL    HW288422   0.446   3.718   0.942  0.0626 -0.5644 -0.1699
29282SOL     OW88423   6.410   5.660   7.275  0.6754 -0.1398  0.4217
29282SOL    HW188424   6.339   5.624   7.222 -1.2918  2.2321  1.2274
29282SOL    HW288425   6.442   5.735   7.226  0.6768  0.4613  1.3025
29283SOL     OW88426   0.064   1.966   0.516  0.3605 -0.8384  0.3745
29283SOL    HW188427   0.065   2.021   0.438 -2.3615 -0.4212  0.5397
29283SOL    HW288428   0.050   1.877   0.483 -0.1192 -0.7523  0.3414
29284SOL     OW88429   4.034   3.712   2.876  0.1905  0.5054 -0.0035
29284SOL    HW188430   4.030   3.709   2.781  1.0613 -4.3086 -0.1150
29284SOL    HW288431   4.125   3.692   2.897 -0.3851 -0.4436  1.8159
29285SOL     OW88432   0.377   5.351   7.973 -0.8280  0.3727 -0.1378
29285SOL    HW188433   0.443   5.310   7.917  0.2504  1.5148  0.2442
29285SOL    HW288434   0.361   5.287   8.043  1.0310  0.6605  0.6057
29286SOL     OW88435   0.884   3.823   8.399 -0.0340  0.1267 -0.4487
29286SOL    HW188436   0.808   3.881   8.398 -0.4707 -0.3897  0.8313
29286SOL    HW288437   0.868   3.764   8.472  1.3805 -0.3043 -0.4626
29287SOL     OW88438   5.019   5.274   6.594  0.1486  0.0220 -0.0752
29287SOL    HW188439   5.100   5.286   6.644 -0.0174  1.7594 -0.1624
29287SOL    HW288440   5.017   5.348   6.533 -2.1907  0.8792  0.9147
29288SOL     OW88441   7.767   5.631   3.535 -0.0817  0.6515  0.2679
29288SOL    HW188442   7.709   5.707   3.528 -0.4556  0.5071  1.5824
29288SOL    HW288443   7.727   5.577   3.603  2.1033  1.0353  1.9707
29289SOL     OW88444   9.058   7.463   7.920  0.1518  0.2334 -0.4743
29289SOL    HW188445   9.066   7.495   8.010 -0.2968  0.3653 -0.4785
29289SOL    HW288446   9.036   7.541   7.869 -1.2187 -0.0978 -0.4444
29290SOL     OW88447   2.678   7.487   9.015 -0.1932  0.4511  0.1567
29290SOL    HW188448   2.727   7.553   8.968 -0.3948 -0.2149 -1.0339
29290SOL    HW288449   2.625   7.536   9.078  1.2216  1.2386  0.7751
29291SOL     OW88450   5.389   7.150   7.644 -0.2754  0.5120 -0.4496
29291SOL    HW188451   5.477   7.113   7.640 -1.0271 -1.4490 -0.0828
29291SOL    HW288452   5.360   7.133   7.734 -1.0954  0.9842 -0.6122
29292SOL     OW88453   4.691   6.865   3.195  0.5533 -0.3536 -0.3582
29292SOL    HW188454   4.692   6.792   3.257 -2.3537 -1.0867 -1.0236
29292SOL    HW288455   4.620   6.843   3.134 -1.2652  3.5028  0.0746
29293SOL     OW88456   5.332   5.825   4.749 -0.0803 -0.1218  0.7871
29293SOL    HW188457   5.312   5.832   4.843  2.5678 -1.2100  1.5080
29293SOL    HW288458   5.385   5.902   4.731  1.4395 -1.1210  0.8165
29294SOL     OW88459   1.257   6.125   7.049 -0.6614 -0.4197 -0.5374
29294SOL    HW188460   1.226   6.206   7.090 -1.1065 -0.1466 -1.3986
29294SOL    HW288461   1.258   6.062   7.120  0.6893  0.5884  0.3949
29295SOL     OW88462   0.068   1.010   2.661 -0.1632  0.4420 -0.3738
29295SOL    HW188463  -0.025   1.025   2.679  0.2638  1.3001  1.4033
29295SOL    HW288464   0.090   0.934   2.715 -0.1591 -0.7345 -1.9892
29296SOL     OW88465   0.752   0.365   2.612 -0.0244 -0.6239 -0.0181
29296SOL    HW188466   0.787   0.384   2.699 -3.0707  0.6302  1.0783
29296SOL    HW288467   0.823   0.388   2.552  0.8601  2.4336  1.9535
29297SOL     OW88468   5.052   9.495   7.105  0.0892 -0.6602 -0.4618
29297SOL    HW188469   5.004   9.544   7.172  1.4908 -1.3094  1.0871
29297SOL    HW288470   4.991   9.490   7.031 -0.5096  2.4015 -0.2994
29298SOL     OW88471   9.616   5.374   5.854  0.1329  0.1603  0.5768
29298SOL    HW188472   9.618   5.421   5.937 -2.0507  0.1513  0.7165
29298SOL    HW288473   9.699   5.326   5.851  0.3506  0.3026  2.6688
29299SOL     OW88474   7.415   6.712   1.259  0.1465  0.2887  0.4245
29299SOL    HW188475   7.465   6.730   1.179 -0.2984 -1.4128 -0.2892
29299SOL    HW288476   7.337   6.768   1.252 -1.0628 -1.4654 -1.5734
29300SOL     OW88477   5.144   5.297   3.973 -0.4113 -0.0653 -0.4852
29300SOL    HW188478   5.187   5.314   4.057  0.3619 -3.0507 -0.1709
29300SOL    HW288479   5.057   5.266   3.996 -0.5090 -0.0453 -0.8222
29301SOL     OW88480   5.625   4.173   7.408  0.1847  0.2259 -0.2828
29301SOL    HW188481   5.557   4.203   7.348 -1.0910  0.4149  1.1747
29301SOL    HW288482   5.707   4.181   7.359 -0.7827  0.4368 -1.9370
29302SOL     OW88483   4.285   6.101   6.152  0.1607 -0.3436  0.1179
29302SOL    HW188484   4.379   6.085   6.155 -0.1957 -2.9363  0.7261
29302SOL    HW288485   4.263   6.134   6.239  0.4008 -0.6359  0.2926
29303SOL     OW88486   4.215   1.354   9.676 -0.2504  0.4068 -0.2585
29303SOL    HW188487   4.120   1.354   9.680 -0.5257 -2.6310 -2.7914
29303SOL    HW288488   4.237   1.437   9.632 -1.9155  0.2808 -1.4268
29304SOL     OW88489   6.187   7.058   6.151 -0.5763  0.0880  0.0477
29304SOL    HW188490   6.112   7.017   6.193 -0.9854  3.1037  2.5633
29304SOL    HW288491   6.255   7.060   6.218  0.2746  1.1561 -0.7971
29305SOL     OW88492   1.082   7.946   6.756 -0.7047  0.3330 -0.1161
29305SOL    HW188493   1.122   7.873   6.709  0.0713 -0.6173  1.9054
29305SOL    HW288494   1.147   8.016   6.752 -0.4579  0.1065 -0.0530
29306SOL     OW88495   0.715   9.521   2.115  0.1443  0.0165  0.2782
29306SOL    HW188496   0.704   9.426   2.104 -1.7167 -0.0983  2.5136
29306SOL    HW288497   0.627   9.557   2.106  0.6800  1.4351  0.4542
29307SOL     OW88498   9.813   3.767   7.432  0.0794  0.4603 -0.4851
29307SOL    HW188499   9.807   3.862   7.444 -2.4428  0.3867 -0.5304
29307SOL    HW288500   9.726   3.735   7.456  1.1266 -1.9635  0.3750
29308SOL     OW88501   6.460   7.283   1.973 -0.2411 -0.0042  0.2128
29308SOL    HW188502   6.466   7.347   2.044  1.1269 -1.4891  1.5020
29308SOL    HW288503   6.417   7.207   2.012  0.5929 -0.8761 -0.4945
29309SOL     OW88504   8.844   9.421   8.220 -0.4107  0.0626  0.0124
29309SOL    HW188505   8.833   9.399   8.313 -0.7519  3.1122  0.7898
29309SOL    HW288506   8.795   9.353   8.174 -0.1157 -1.6108  2.0329
29310SOL     OW88507   6.077   0.209   5.925  0.3012  0.1991  0.4967
29310SOL    HW188508   5.997   0.240   5.968  0.2279  0.4986  0.1457
29310SOL    HW288509   6.129   0.288   5.911 -0.0575  0.2330 -0.7580
29311SOL     OW88510   3.258   9.931   5.823  0.0521 -0.0992  0.0288
29311SOL    HW188511   3.339   9.942   5.872 -0.6217  2.0380  0.7564
29311SOL    HW288512   3.262   9.998   5.754 -0.3061 -1.1659 -1.0606
29312SOL     OW88513   3.769   9.263   9.719  0.0184 -0.0548 -0.0224
29312SOL    HW188514   3.727   9.177   9.721 -2.3345  0.9491  3.2903
29312SOL    HW288515   3.852   9.250   9.765 -0.0397 -0.6858 -0.0907
29313SOL     OW88516   4.574   5.867   7.395 -0.2401  0.0372 -0.1861
29313SOL    HW188517   4.610   5.779   7.391 -0.6024 -0.0864 -0.8750
29313SOL    HW288518   4.493   5.858   7.444 -0.1481  0.0298 -0.0366
29314SOL     OW88519   5.172   8.873   8.659  0.1809 -0.3447 -0.4236
29314SOL    HW188520   5.222   8.949   8.690  0.8886 -0.0482 -2.1656
29314SOL    HW288521   5.154   8.822   8.738 -0.4101  1.6694  0.8150
29315SOL     OW88522   5.502   4.464   3.610  0.6596  0.0424  0.3293
29315SOL    HW188523   5.500   4.477   3.516  1.3862  0.5559  0.3794
29315SOL    HW288524   5.451   4.538   3.645 -1.7900 -1.4896  0.2424
29316SOL     OW88525   1.489   0.267   7.945  1.1007  0.0150 -0.5232
29316SOL    HW188526   1.437   0.210   7.887 -0.4125  2.0053 -1.2518
29316SOL    HW288527   1.517   0.209   8.016 -1.3405 -1.4282 -0.5933
29317SOL     OW88528   2.929   6.782   6.450  0.0478 -1.1534  0.6786
29317SOL    HW188529   2.853   6.792   6.392 -0.6974  0.3929  1.8276
29317SOL    HW288530   2.913   6.846   6.520  1.7378 -1.7878  1.6878
29318SOL     OW88531   7.135   3.139   6.532  0.3733 -0.0413 -1.0268
29318SOL    HW188532   7.072   3.210   6.517  0.7322  0.4116 -0.3947
29318SOL    HW288533   7.111   3.073   6.466 -4.0285 -2.1538  2.1437
29319SOL     OW88534   6.809   1.558   3.257 -0.0884 -0.4568 -0.0020
29319SOL    HW188535   6.786   1.619   3.328 -0.0349 -1.0828  0.5663
29319SOL    HW288536   6.793   1.607   3.177 -2.1587 -0.4006  0.3844
29320SOL     OW88537   5.798   2.269   6.818 -0.0539 -0.1896  0.2919
29320SOL    HW188538   5.798   2.333   6.746  1.3525 -0.3338  0.1380
29320SOL    HW288539   5.876   2.291   6.869  0.6805 -2.0169  0.0106
29321SOL     OW88540   7.880   0.766   1.923 -0.2547 -0.7894 -0.1799
29321SOL    HW188541   7.903   0.744   1.832 -1.2953 -1.6982 -0.2472
29321SOL    HW288542   7.786   0.785   1.919  0.0538  1.0963  0.3853
29322SOL     OW88543   5.397   2.345   3.826 -0.6534 -0.3465 -0.0930
29322SOL    HW188544   5.352   2.266   3.857 -3.3098  1.5638  1.3587
29322SOL    HW288545   5.454   2.371   3.898 -0.3920 -0.4980 -0.2448
29323SOL     OW88546   4.907   3.156   2.183 -0.9301  0.1585  0.3240
29323SOL    HW188547   4.853   3.078   2.171 -0.2027 -0.1240 -1.5088
29323SOL    HW288548   4.910   3.196   2.096 -0.4465  1.6706  1.0094
29324SOL     OW88549   8.367   2.651   8.272  0.3014 -0.3165  0.1114
29324SOL    HW188550   8.294   2.714   8.271  0.7992  0.3068  1.1038
29324SOL    HW288551   8.356   2.600   8.192  0.2208  1.4367 -1.0453
29325SOL     OW88552   1.429   6.430   9.142 -0.2027 -0.0191 -0.3485
29325SOL    HW188553   1.520   6.433   9.173  0.1312  0.1131 -1.3091
29325SOL    HW288554   1.412   6.337   9.126  0.8132  0.1556 -3.0617
29326SOL     OW88555   7.135   2.168   5.541  0.5400 -0.0560 -0.1371
29326SOL    HW188556   7.202   2.215   5.592 -0.3250  0.8896  0.1598
29326SOL    HW288557   7.118   2.225   5.466 -0.5651  0.1621  0.2544
29327SOL     OW88558   5.209   5.830   0.307  0.5039 -0.9733  0.2054
29327SOL    HW188559   5.145   5.759   0.317  0.5414 -1.0408 -0.0232
29327SOL    HW288560   5.280   5.807   0.366 -0.5243  0.0790  1.9332
29328SOL     OW88561   5.432   9.726   2.845 -0.6349 -0.2848  0.1610
29328SOL    HW188562   5.387   9.641   2.851  1.7334 -1.5890  0.7464
29328SOL    HW288563   5.405   9.772   2.924  1.4499 -2.3835  2.2739
29329SOL     OW88564   3.332   5.332   1.360  0.1339  0.1627  0.1852
29329SOL    HW188565   3.287   5.252   1.335 -1.0791  0.8112  0.2357
29329SOL    HW288566   3.367   5.367   1.278 -0.1751  0.0958  0.0258
29330SOL     OW88567   8.754   2.847   7.006  0.3392 -0.1713  0.6246
29330SOL    HW188568   8.795   2.762   6.990 -0.4148 -0.0720 -2.3361
29330SOL    HW288569   8.806   2.909   6.954 -2.6671  0.1166 -2.4168
29331SOL     OW88570   2.361   6.120   7.474  0.0194 -0.1382 -0.3183
29331SOL    HW188571   2.327   6.060   7.408 -1.7446  1.0974 -0.6148
29331SOL    HW288572   2.315   6.203   7.458 -0.9489  0.0604  2.7872
29332SOL     OW88573   8.400   8.277   3.525  0.4193  0.5050 -0.2046
29332SOL    HW188574   8.492   8.250   3.522 -0.0974 -1.3053 -1.8901
29332SOL    HW288575   8.369   8.244   3.609  0.4739 -2.0815 -1.1262
29333SOL     OW88576   7.989   2.873   6.863 -0.1973 -0.2700  0.4863
29333SOL    HW188577   7.900   2.900   6.839  0.3541  0.9189 -0.3287
29333SOL    HW288578   8.029   2.952   6.900  0.3464 -0.9439  1.3661
29334SOL     OW88579   1.963   4.567   7.524 -0.1622  0.0857  0.4066
29334SOL    HW188580   1.878   4.609   7.513 -0.5643 -1.0290 -1.0280
29334SOL    HW288581   1.980   4.572   7.618 -1.8077  0.3625  0.7158
29335SOL     OW88582   7.481   3.550   6.257 -0.1119 -0.4803  0.2622
29335SOL    HW188583   7.419   3.480   6.280 -2.2456  0.9170 -0.8939
29335SOL    HW288584   7.457   3.574   6.167  2.0488  0.2452 -0.1648
29336SOL     OW88585   4.725   3.233   9.069  0.3018  0.2425  0.3365
29336SOL    HW188586   4.738   3.161   9.008  0.3810  0.2225  0.3774
29336SOL    HW288587   4.707   3.190   9.153  0.4031  0.2700  0.3724
29337SOL     OW88588   3.392   2.151   4.417 -0.4235  0.2298 -0.0898
29337SOL    HW188589   3.446   2.215   4.464  0.5019 -0.4705 -0.1874
29337SOL    HW288590   3.427   2.151   4.328 -1.9480  1.3023 -0.7382
29338SOL     OW88591   2.322   7.433   3.466 -0.4137  0.1191 -0.0594
29338SOL    HW188592   2.246   7.379   3.489 -0.8840 -0.0519 -1.8222
29338SOL    HW288593   2.397   7.384   3.500 -0.9745 -0.6562  0.1116
29339SOL     OW88594   0.906   9.207   8.372 -0.0852  0.0456 -0.0115
29339SOL    HW188595   0.901   9.139   8.305 -0.2734  0.8221 -0.8019
29339SOL    HW288596   0.898   9.289   8.324  0.8802  0.6673  0.8418
29340SOL     OW88597   8.039   6.185   2.952 -0.2140 -0.2656  0.2501
29340SOL    HW188598   8.125   6.210   2.986  0.4938 -1.0804 -0.8822
29340SOL    HW288599   8.057   6.140   2.869 -1.6426 -1.4721  0.5310
29341SOL     OW88600   3.749   8.297   7.141  0.3034  0.4505 -0.5295
29341SOL    HW188601   3.814   8.244   7.094 -1.4752 -1.9469 -0.4943
29341SOL    HW288602   3.743   8.378   7.091  1.6015 -0.2351 -1.8763
29342SOL     OW88603   7.687   7.131   3.245 -0.7076  0.6269 -0.3434
29342SOL    HW188604   7.592   7.144   3.253 -0.4695  2.6692 -0.3844
29342SOL    HW288605   7.696   7.040   3.219 -2.6545  0.3435 -0.1967
29343SOL     OW88606   7.248   5.999   2.658  0.2570  0.3146  0.2945
29343SOL    HW188607   7.180   5.931   2.658 -2.2643  2.6878  0.1199
29343SOL    HW288608   7.283   5.997   2.747 -0.8229 -0.2232  0.7239
29344SOL     OW88609   4.737   7.270   1.156  0.5693 -0.2068  0.5552
29344SOL    HW188610   4.793   7.336   1.197  1.4261 -0.0900 -0.7473
29344SOL    HW288611   4.797   7.203   1.124 -0.0971 -0.5158 -0.0853
29345SOL     OW88612   6.899   5.537   4.084  0.0957  0.0328  0.4886
29345SOL    HW188613   6.876   5.623   4.119  1.9255  0.0029  1.9309
29345SOL    HW288614   6.989   5.547   4.054  0.2530 -1.3210  0.4581
29346SOL     OW88615   4.461   3.880   5.631  0.0945 -0.3335  0.1971
29346SOL    HW188616   4.467   3.792   5.667  0.8260 -0.7575 -0.9015
29346SOL    HW288617   4.368   3.900   5.631  0.0277 -0.5085  1.8072
29347SOL     OW88618   8.222   3.758   1.287 -0.6450 -0.6598  0.8537
29347SOL    HW188619   8.204   3.690   1.222  1.0788 -0.3839  0.0266
29347SOL    HW288620   8.205   3.840   1.242  1.1622 -0.4450  0.4991
29348SOL     OW88621   5.521   8.394   9.366  0.3916  0.3569  0.6426
29348SOL    HW188622   5.467   8.472   9.353  0.3336 -0.0116 -1.6573
29348SOL    HW288623   5.484   8.329   9.307  2.1043 -0.5399  0.4912
29349SOL     OW88624   3.404   1.698   6.489 -0.2885 -1.0360 -0.5456
29349SOL    HW188625   3.384   1.713   6.581 -1.0468  0.2965 -0.9015
29349SOL    HW288626   3.479   1.755   6.471 -0.6202 -0.7175 -0.9333
29350SOL     OW88627   3.292   0.060   4.692 -0.0189 -0.1683  0.5630
29350SOL    HW188628   3.216   0.012   4.660 -1.4949  2.7016 -0.6553
29350SOL    HW288629   3.298   0.038   4.784  0.4496 -3.8219 -0.1900
29351SOL     OW88630   2.818   6.252   0.238 -0.1454  0.2700  0.3890
29351SOL    HW188631   2.904   6.259   0.197  0.1702  0.2808  1.0380
29351SOL    HW288632   2.820   6.169   0.285  0.5681  1.5177  2.7307
29352SOL     OW88633   3.170   9.634   5.368  0.3160  0.4248 -0.5319
29352SOL    HW188634   3.142   9.720   5.335  0.8859  1.3487  1.2415
29352SOL    HW288635   3.199   9.652   5.457  1.0826 -1.5201 -0.3539
29353SOL     OW88636   9.612   8.838   3.443 -0.1949 -0.0015 -0.2513
29353SOL    HW188637   9.646   8.778   3.508  0.3147  1.4310  0.8665
29353SOL    HW288638   9.690   8.872   3.398 -0.5344 -0.8917 -1.5493
29354SOL     OW88639   4.527   7.055   5.917  0.5494  0.6522 -1.0770
29354SOL    HW188640   4.560   7.032   5.830 -0.5384 -1.1904 -1.0463
29354SOL    HW288641   4.434   7.074   5.903  0.0650 -0.8720 -0.1696
29355SOL     OW88642   7.926   0.714   3.082  0.2876 -0.2619 -0.3101
29355SOL    HW188643   7.924   0.666   3.000 -0.4745 -0.0242 -0.4367
29355SOL    HW288644   7.858   0.780   3.073 -0.1949 -0.5966  0.7397
29356SOL     OW88645   7.119   6.677   3.577 -0.0436 -0.3016  0.7159
29356SOL    HW188646   7.104   6.644   3.488 -2.0376  0.8924  0.5557
29356SOL    HW288647   7.129   6.598   3.631  2.2617 -1.0501 -0.6740
29357SOL     OW88648   2.161   2.640   1.319  0.3270 -0.1279 -0.5519
29357SOL    HW188649   2.134   2.714   1.373  0.5125  0.4058 -1.1813
29357SOL    HW288650   2.222   2.677   1.256  1.5827 -1.0777  0.0551
29358SOL     OW88651   2.541   0.754   2.307  0.0412  0.1840 -0.2244
29358SOL    HW188652   2.531   0.736   2.400  0.7729  0.5494 -0.0626
29358SOL    HW288653   2.527   0.670   2.264  1.3926 -0.3780  0.3595
29359SOL     OW88654   9.740   9.120   1.360  0.3915  0.5618 -0.1312
29359SOL    HW188655   9.706   9.172   1.433  1.4701  1.9661 -0.5798
29359SOL    HW288656   9.727   9.177   1.283  0.6655 -0.2626 -0.7988
29360SOL     OW88657   5.675   0.129   2.923  0.2768  0.1072  0.4937
29360SOL    HW188658   5.590   0.160   2.892 -0.0618  0.6373  1.8603
29360SOL    HW288659   5.728   0.122   2.844 -0.9060  0.1635 -0.3392
29361SOL     OW88660   0.191   5.007   2.723 -0.4311 -0.5063 -0.2559
29361SOL    HW188661   0.244   5.085   2.710 -0.7327 -0.6673 -3.5368
29361SOL    HW288662   0.252   4.934   2.706 -0.9210 -0.8007 -0.8066
29362SOL     OW88663   9.195   0.972   3.170  0.9505  0.3761 -0.1571
29362SOL    HW188664   9.272   1.023   3.142  0.8444  1.1307  0.8521
29362SOL    HW288665   9.134   1.038   3.203  0.4807 -0.3472  0.4435
29363SOL     OW88666   8.537   8.880   0.605  1.1550  0.5181  0.1415
29363SOL    HW188667   8.534   8.791   0.569  1.8517  0.8115 -0.6630
29363SOL    HW288668   8.509   8.870   0.696 -0.7010 -0.2447 -0.4574
29364SOL     OW88669   8.943   2.858   4.938  0.1681 -0.7382  0.2285
29364SOL    HW188670   8.961   2.918   4.865  1.2720  0.3953  1.3757
29364SOL    HW288671   9.020   2.803   4.943  0.7443  0.1306  1.3906
29365SOL     OW88672   5.153   6.742   1.047  0.0014 -0.4424 -0.2701
29365SOL    HW188673   5.211   6.715   0.976  1.0348  1.9256 -0.4404
29365SOL    HW288674   5.175   6.685   1.120  2.0405 -0.1393 -0.5844
29366SOL     OW88675   4.065   7.191   6.829 -0.2296 -0.0259 -0.1841
29366SOL    HW188676   3.996   7.214   6.766  0.4011  1.8118 -0.2530
29366SOL    HW288677   4.067   7.095   6.828 -3.4435 -0.2087  0.5408
29367SOL     OW88678   7.565   0.257   7.719 -0.3132 -0.3484  0.0766
29367SOL    HW188679   7.596   0.218   7.637 -0.4554 -1.0064  0.3269
29367SOL    HW288680   7.643   0.295   7.759 -0.3548  0.5534 -0.6657
29368SOL     OW88681   1.732   7.953   0.336  0.1020 -0.4056  0.4525
29368SOL    HW188682   1.637   7.940   0.330 -0.1930  1.4879  0.5273
29368SOL    HW288683   1.769   7.872   0.299 -1.5386 -0.2249 -1.8390
29369SOL     OW88684   8.009   1.016   6.294  0.1723 -0.0474 -0.0050
29369SOL    HW188685   7.987   0.933   6.336  0.1321  0.5306  1.1611
29369SOL    HW288686   7.957   1.016   6.213 -0.2358 -0.9188  0.2421
29370SOL     OW88687   7.524   5.683   9.709  0.0912 -0.0913 -0.2052
29370SOL    HW188688   7.496   5.766   9.748 -0.3152  0.1091 -0.9053
29370SOL    HW288689   7.574   5.708   9.632 -1.1625 -0.4984 -1.1763
29371SOL     OW88690   1.521   8.254   4.617  0.1246  0.2349  0.8828
29371SOL    HW188691   1.611   8.287   4.627  0.4763 -0.1828 -0.6223
29371SOL    HW288692   1.482   8.266   4.703  1.4342  1.0000  1.4103
29372SOL     OW88693   7.780   1.999   3.308 -0.1163  0.4899 -0.1061
29372SOL    HW188694   7.875   2.005   3.312 -0.2104  2.3216  0.0925
29372SOL    HW288695   7.753   1.974   3.397  0.2625 -2.4716 -0.7318
29373SOL     OW88696   4.094   8.494   6.869 -0.8448  0.1587 -0.2646
29373SOL    HW188697   4.136   8.436   6.805  0.0240 -0.3918  0.7752
29373SOL    HW288698   4.161   8.509   6.936 -1.8411  0.4531  0.6971
29374SOL     OW88699   6.339   9.826   9.235 -0.2324 -0.7099  0.0955
29374SOL    HW188700   6.342   9.922   9.241 -0.1381 -0.5847 -1.4521
29374SOL    HW288701   6.248   9.804   9.256 -0.8776 -0.0371 -1.7490
29375SOL     OW88702   2.524   1.637   6.751 -0.6969  0.1703  0.2750
29375SOL    HW188703   2.505   1.544   6.762 -2.1402  0.4225  0.0891
29375SOL    HW288704   2.557   1.644   6.661 -3.5036  0.2050 -0.8652
29376SOL     OW88705   3.039   3.959   1.137  0.0501 -0.3653 -0.3833
29376SOL    HW188706   3.048   4.046   1.176 -0.2183 -0.5344  0.0586
29376SOL    HW288707   3.045   3.899   1.211  1.1901 -0.7774 -0.7938
29377SOL     OW88708   1.154   7.378   8.354  0.0460  0.7715  0.0334
29377SOL    HW188709   1.207   7.386   8.275  1.0552 -0.4052  0.5606
29377SOL    HW288710   1.147   7.467   8.387 -1.4142  1.4773 -1.9914
29378SOL     OW88711   5.698   7.766   6.922  0.3449  0.1516 -0.4664
29378SOL    HW188712   5.732   7.689   6.877  0.4992 -0.2656  0.3383
29378SOL    HW288713   5.674   7.827   6.852  1.1424 -0.2339 -1.0890
29379SOL     OW88714   5.500   6.595   2.389  0.1174 -0.1218  0.4017
29379SOL    HW188715   5.545   6.558   2.314  0.8578  2.1030 -0.3378
29379SOL    HW288716   5.409   6.606   2.359  0.4443  0.8993 -0.2487
29380SOL     OW88717   3.529   0.926   4.486  0.1534  0.1246  0.6477
29380SOL    HW188718   3.573   0.933   4.570 -0.0099  0.7871  0.6828
29380SOL    HW288719   3.538   0.834   4.461  3.1790  0.5737 -0.2387
29381SOL     OW88720   1.048   8.794   7.188  0.0793  0.6026 -0.1104
29381SOL    HW188721   0.979   8.760   7.245  0.1469 -0.6586 -0.7540
29381SOL    HW288722   1.042   8.742   7.108  1.3719  0.8882 -0.4254
29382SOL     OW88723   4.910   2.550   9.727  0.0140 -0.1115 -0.2447
29382SOL    HW188724   4.936   2.559   9.635 -2.0403 -0.9656 -0.9555
29382SOL    HW288725   4.986   2.582   9.776  0.4469  2.2710 -2.2348
29383SOL     OW88726   5.295   7.470   8.534  0.0109  0.5012  0.0451
29383SOL    HW188727   5.283   7.560   8.506 -0.1648  1.0536  1.7601
29383SOL    HW288728   5.249   7.465   8.618  0.7547 -0.9382  0.3975
29384SOL     OW88729   7.579   3.652   0.252 -0.4928  0.4363  0.5631
29384SOL    HW188730   7.580   3.720   0.184  0.0005  0.3760  0.5116
29384SOL    HW288731   7.492   3.611   0.243 -0.5470  0.6330  0.1746
29385SOL     OW88732   9.774   9.194   1.942 -0.2609 -0.0433  0.0267
29385SOL    HW188733   9.685   9.170   1.914 -0.2083 -0.6676  0.3648
29385SOL    HW288734   9.768   9.198   2.038  0.0415  0.0507  0.0418
29386SOL     OW88735   7.858   6.388   6.131 -0.1613  0.5486  0.2458
29386SOL    HW188736   7.931   6.392   6.193  0.2164 -1.6488  0.0489
29386SOL    HW288737   7.899   6.398   6.045 -0.1470 -0.1138  0.1687
29387SOL     OW88738   2.126   3.091   4.832 -0.0428 -0.0725 -0.5227
29387SOL    HW188739   2.056   3.155   4.847 -1.7322 -2.0140  0.4208
29387SOL    HW288740   2.136   3.047   4.916  0.8851 -1.2258 -1.2175
29388SOL     OW88741   5.312   4.618   5.003  0.9277  0.4677  0.7292
29388SOL    HW188742   5.326   4.612   4.908  0.6074  1.5570  0.6043
29388SOL    HW288743   5.259   4.697   5.014  0.6734  0.1588  1.7914
29389SOL     OW88744   4.114   2.943   2.994 -0.5131  0.1533  0.2817
29389SOL    HW188745   4.089   3.028   3.029 -0.8486  0.4833 -0.7483
29389SOL    HW288746   4.073   2.880   3.053 -0.9568  0.7025  0.5625
29390SOL     OW88747   5.824   0.709   0.085 -0.3328 -0.4374  0.3567
29390SOL    HW188748   5.896   0.676   0.032  0.2142 -1.1570  1.5068
29390SOL    HW288749   5.747   0.700   0.029  0.3380 -0.4872 -0.5733
29391SOL     OW88750   3.891   1.945   2.432  0.7011 -0.3345  0.4460
29391SOL    HW188751   3.846   2.023   2.465 -1.7137 -1.4470  0.0093
29391SOL    HW288752   3.974   1.978   2.398  0.4976  1.7752  1.7973
29392SOL     OW88753   4.637   3.302   1.188  0.0958  0.4419 -0.1304
29392SOL    HW188754   4.705   3.235   1.186 -0.6291 -0.3132 -0.0198
29392SOL    HW288755   4.683   3.384   1.173  0.9299 -0.1347 -0.7605
29393SOL     OW88756   6.230   2.707   3.963 -0.2896 -0.5038  0.3491
29393SOL    HW188757   6.189   2.783   3.922 -0.1760 -0.2520  0.7002
29393SOL    HW288758   6.280   2.666   3.893  0.2012  0.1336  0.3144
29394SOL     OW88759   8.901   5.056   4.018  0.2229 -0.1295 -0.0605
29394SOL    HW188760   8.935   5.020   3.936 -0.5475 -2.4298  0.5569
29394SOL    HW288761   8.853   5.135   3.991  2.0453  0.5748 -1.4743
29395SOL     OW88762   2.542   0.034   1.120  0.2532 -0.3969  0.2764
29395SOL    HW188763   2.497   0.092   1.059 -1.4207 -1.6482  0.2359
29395SOL    HW288764   2.536   0.079   1.205  1.0806  0.5502 -0.1455
29396SOL     OW88765   4.393   1.451   4.518  0.1902 -0.1664 -0.3788
29396SOL    HW188766   4.348   1.488   4.442 -0.5657 -0.9946 -0.3563
29396SOL    HW288767   4.324   1.436   4.582  0.8517  0.7199  0.5680
29397SOL     OW88768   9.886   1.165   8.168 -0.3399 -0.0694 -0.2827
29397SOL    HW188769   9.860   1.145   8.078 -1.7878 -1.0877  0.3217
29397SOL    HW288770   9.923   1.253   8.164 -0.6770  0.0215 -1.8105
29398SOL     OW88771   0.474   6.449   6.592 -0.1942  0.1619  0.3435
29398SOL    HW188772   0.473   6.375   6.531  1.5344  1.4904 -1.4761
29398SOL    HW288773   0.485   6.410   6.678 -0.4883 -1.7318 -0.4374
29399SOL     OW88774   9.344   4.180   7.280 -0.2563 -0.4514  0.9651
29399SOL    HW188775   9.369   4.120   7.209  0.5061 -0.2819  1.0866
29399SOL    HW288776   9.387   4.145   7.358 -0.8062 -0.4341  1.2876
29400SOL     OW88777   4.288   2.061   1.631  0.3193 -0.0891 -0.9095
29400SOL    HW188778   4.250   2.012   1.559 -0.4480 -0.6905 -0.1169
29400SOL    HW288779   4.293   1.998   1.703  0.3583  0.6952 -0.2073
29401SOL     OW88780   6.132   3.199   8.861  0.1903 -0.1380  0.1293
29401SOL    HW188781   6.086   3.187   8.777  0.9239  0.0377 -0.3071
29401SOL    HW288782   6.189   3.123   8.867 -0.0346 -0.2707  0.5902
29402SOL     OW88783   5.610   3.798   9.281  0.1154  0.2403 -0.0530
29402SOL    HW188784   5.589   3.803   9.374  2.2271  0.2026  0.4864
29402SOL    HW288785   5.702   3.772   9.279  0.6051  1.8652 -2.1205
29403SOL     OW88786   0.611   7.801   3.235  0.4662  0.6865  0.2267
29403SOL    HW188787   0.620   7.835   3.324 -1.4863  2.0717 -0.0322
29403SOL    HW288788   0.542   7.736   3.242  0.2946  0.8161 -0.2787
29404SOL     OW88789   9.239   1.052   7.045 -0.2466  0.0975  0.4422
29404SOL    HW188790   9.328   1.041   7.014 -0.1276  0.6952  0.5596
29404SOL    HW288791   9.234   1.000   7.125  0.0511  0.2140  0.5355
29405SOL     OW88792   1.652   1.733   6.070 -0.2344 -0.2636 -0.1871
29405SOL    HW188793   1.621   1.731   5.980  0.9232 -2.3421 -0.5792
29405SOL    HW288794   1.582   1.689   6.120 -0.7490  0.6496 -0.0665
29406SOL     OW88795   6.243   9.550   1.528  0.2331  0.5510 -0.2321
29406SOL    HW188796   6.194   9.491   1.471  0.8045  0.6069 -0.8057
29406SOL    HW288797   6.318   9.498   1.557  0.8917  1.0560 -0.9658
29407SOL     OW88798   4.901   1.331   8.002  0.1337 -0.1408 -0.1488
29407SOL    HW188799   4.854   1.365   7.926  1.6447 -1.0647 -1.5736
29407SOL    HW288800   4.852   1.363   8.077 -2.6160 -0.8338 -1.5001
29408SOL     OW88801   1.129   8.704   0.412 -0.2140  0.9669  0.4092
29408SOL    HW188802   1.081   8.707   0.494  0.4813 -2.3897  1.0865
29408SOL    HW288803   1.206   8.759   0.427  0.9145 -1.0805  2.8301
29409SOL     OW88804   8.306   8.347   9.077 -0.6856 -0.3547 -0.2430
29409SOL    HW188805   8.329   8.440   9.075 -0.1154 -0.3818  2.3096
29409SOL    HW288806   8.269   8.330   8.990  1.8153  1.5557 -1.8366
29410SOL     OW88807   7.399   3.703   6.024 -0.5845  0.2267  0.2311
29410SOL    HW188808   7.360   3.659   5.948 -0.2634 -0.6102  0.5450
29410SOL    HW288809   7.324   3.741   6.071 -0.7697  0.8926 -0.5817
29411SOL     OW88810   5.320   8.233   4.696 -0.6628  0.6650  0.2092
29411SOL    HW188811   5.247   8.238   4.758 -0.5796 -0.1771  0.3911
29411SOL    HW288812   5.386   8.180   4.741 -1.1849 -1.2482 -1.1405
29412SOL     OW88813   1.920   5.150   5.215 -0.0287 -0.5627  0.2863
29412SOL    HW188814   1.882   5.096   5.145  1.0694 -0.3567 -0.4896
29412SOL    HW288815   1.977   5.091   5.263  1.4718 -0.0519 -0.7977
29413SOL     OW88816   0.365   0.703   9.992  0.4932 -0.3193 -0.5831
29413SOL    HW188817   0.428   0.641  10.029  0.0873 -1.8052 -2.2141
29413SOL    HW288818   0.331   0.658   9.915 -2.1157  0.6961 -0.1041
29414SOL     OW88819   8.233   7.713   8.030 -0.2347 -0.2943 -0.1532
29414SOL    HW188820   8.280   7.732   8.111  0.6022 -0.6903 -0.5320
29414SOL    HW288821   8.173   7.642   8.053  0.7232 -1.1134 -0.1072
29415SOL     OW88822   9.771   3.883   3.731 -0.7688  0.2123 -0.2895
29415SOL    HW188823   9.847   3.824   3.732  0.8016  1.9965  2.4246
29415SOL    HW288824   9.709   3.843   3.792 -0.6862  0.1954 -0.2152
29416SOL     OW88825   9.933   9.808   7.844  0.1336 -0.4196  0.0388
29416SOL    HW188826  10.017   9.767   7.826  0.7272  0.2581  1.1897
29416SOL    HW288827   9.930   9.817   7.939 -1.2072 -0.3530  0.0174
29417SOL     OW88828   0.814   8.740   6.837 -0.3233 -0.0614 -0.1784
29417SOL    HW188829   0.740   8.741   6.897 -0.4271 -0.5101 -0.2908
29417SOL    HW288830   0.881   8.688   6.882 -0.5256 -0.6853 -0.5878
29418SOL     OW88831   9.337   7.798   1.878 -0.2555  0.2447 -0.0729
29418SOL    HW188832   9.325   7.865   1.810  0.6644  0.4309 -0.0703
29418SOL    HW288833   9.318   7.715   1.834 -2.8552  0.5582  0.2893
29419SOL     OW88834   6.525   5.400   6.591 -0.0639 -0.1238 -0.0744
29419SOL    HW188835   6.545   5.492   6.578 -0.3862  0.1060  0.9512
29419SOL    HW288836   6.460   5.399   6.661 -0.6124 -1.0877 -0.5653
29420SOL     OW88837   0.343   1.883   1.633 -0.2438  0.0089  0.2862
29420SOL    HW188838   0.365   1.790   1.623  0.0814 -0.0192  1.2311
29420SOL    HW288839   0.426   1.928   1.617  0.8955 -0.1295  4.5605
29421SOL     OW88840   9.459   4.149   8.013  0.2529  0.2893  0.2943
29421SOL    HW188841   9.439   4.195   8.095 -0.1802  1.4976 -0.4513
29421SOL    HW288842   9.373   4.129   7.976  0.3976  1.6393 -0.8515
29422SOL     OW88843   7.395   3.484   9.616 -0.0587 -0.1276 -0.3476
29422SOL    HW188844   7.360   3.415   9.559  0.7068 -0.9152  0.0996
29422SOL    HW288845   7.483   3.500   9.583  0.3271 -0.4621  0.4769
29423SOL     OW88846   3.071   6.499   0.068 -0.6758 -0.0650  0.0620
29423SOL    HW188847   3.069   6.403   0.061 -2.0142 -0.1707  1.3810
29423SOL    HW288848   2.980   6.525   0.060 -0.2823  1.1476 -0.6463
29424SOL     OW88849   0.137   1.278   1.140  0.1109 -0.0337 -0.1247
29424SOL    HW188850   0.144   1.372   1.158 -1.0637  0.5521 -2.3748
29424SOL    HW288851   0.221   1.256   1.099  0.0265  0.2642 -0.4680
29425SOL     OW88852   4.561   1.833   7.107  0.5587  0.1980  0.0099
29425SOL    HW188853   4.584   1.774   7.035  0.8945  0.2999  0.0296
29425SOL    HW288854   4.510   1.903   7.066 -0.5020 -0.5061  0.1128
29426SOL     OW88855   3.117   1.117   7.364  0.1496  0.1124  0.2541
29426SOL    HW188856   3.103   1.192   7.422  1.2199  0.3163  0.2818
29426SOL    HW288857   3.202   1.135   7.323 -1.0253  0.4929 -2.1831
29427SOL     OW88858   2.561   3.788   2.376  0.1276 -0.3295  0.1716
29427SOL    HW188859   2.620   3.821   2.444  2.3636 -1.2131 -1.2211
29427SOL    HW288860   2.477   3.830   2.395  1.5931  2.3997  1.2740
29428SOL     OW88861   7.947   1.426   9.670  0.1575  0.5212  0.2983
29428SOL    HW188862   8.031   1.389   9.645  0.8748  2.4020 -0.2065
29428SOL    HW288863   7.885   1.353   9.660  1.5632 -0.6529 -0.1683
29429SOL     OW88864   0.341   3.103   1.050  0.3899  0.0638 -0.3612
29429SOL    HW188865   0.306   3.190   1.069  1.1567  0.1674  0.6947
29429SOL    HW288866   0.295   3.045   1.111 -0.6404 -0.4112 -1.5483
29430SOL     OW88867   2.053   6.754   1.408  0.6614  0.4630  0.1639
29430SOL    HW188868   2.012   6.832   1.447  1.0255 -0.0001  1.5422
29430SOL    HW288869   2.133   6.787   1.368  1.8292  0.5771  2.4301
29431SOL     OW88870   8.424   9.233   4.048 -0.4029 -0.0200 -0.0187
29431SOL    HW188871   8.482   9.236   4.124 -1.3369 -1.2582  0.7883
29431SOL    HW288872   8.428   9.142   4.019 -1.7633 -0.0890 -0.0702
29432SOL     OW88873   3.002   6.360   5.230 -0.0238  0.0650  0.2370
29432SOL    HW188874   2.947   6.383   5.304 -1.0902  0.9908 -0.8062
29432SOL    HW288875   2.991   6.266   5.220 -2.0462  0.3171 -0.3918
29433SOL     OW88876   7.597   9.099   0.467  0.2492  0.0153  0.4402
29433SOL    HW188877   7.682   9.057   0.480 -0.6323 -1.5397  1.5140
29433SOL    HW288878   7.613   9.166   0.400  2.1587 -0.6750  0.1500
29434SOL     OW88879   5.277   9.083   6.495 -0.2307 -0.4147 -0.2361
29434SOL    HW188880   5.211   9.135   6.448 -0.4160 -2.7955 -2.8879
29434SOL    HW288881   5.230   9.006   6.526  0.3789  0.1016  2.1544
29435SOL     OW88882   1.632   2.523   9.494  0.6055 -0.9566  0.4336
29435SOL    HW188883   1.594   2.609   9.509  2.2237 -0.1791  0.2190
29435SOL    HW288884   1.626   2.479   9.580 -0.4303 -0.7464  0.4851
29436SOL     OW88885   5.916   7.830   3.124 -0.3398 -0.3992 -0.9392
29436SOL    HW188886   5.884   7.810   3.036  0.2670 -0.6957 -1.0947
29436SOL    HW288887   5.952   7.918   3.118 -0.7181 -0.2347 -0.8668
29437SOL     OW88888   9.729   5.052   6.227 -0.5542  0.1548 -0.3683
29437SOL    HW188889   9.645   5.029   6.186 -0.9566  0.0841  0.4574
29437SOL    HW288890   9.785   4.977   6.210 -0.6465  0.2140 -0.9554
29438SOL     OW88891   9.097   8.026   8.699 -0.5936  0.3713 -0.0271
29438SOL    HW188892   9.034   8.066   8.639  2.0141  0.2342 -3.1770
29438SOL    HW288893   9.069   7.934   8.705 -0.6544  0.2656 -1.5172
29439SOL     OW88894   8.900   7.013   8.664  0.2948  0.3504  0.3244
29439SOL    HW188895   8.930   6.985   8.578 -1.0913  1.9012 -0.7155
29439SOL    HW288896   8.972   7.068   8.698  1.5105 -1.4872  0.8888
29440SOL     OW88897   2.347   5.224   9.340 -0.2553  0.0756  0.1489
29440SOL    HW188898   2.360   5.288   9.410 -0.2516 -0.5246  0.7122
29440SOL    HW288899   2.334   5.141   9.386  0.0611 -0.3870 -0.5748
29441SOL     OW88900   7.223   5.332   2.183  0.0617  0.0099 -0.1309
29441SOL    HW188901   7.199   5.298   2.270 -1.4202  0.5516 -0.2964
29441SOL    HW288902   7.183   5.270   2.122  0.1321  0.2542 -0.4228
29442SOL     OW88903   4.993   2.524   7.276 -0.0731 -0.5713  0.2998
29442SOL    HW188904   5.032   2.515   7.363  0.0426 -1.3608  0.1766
29442SOL    HW288905   4.900   2.505   7.289 -0.2639  0.4476  0.4446
29443SOL     OW88906   0.095   0.658   3.128 -0.6597 -0.1531 -0.0498
29443SOL    HW188907   0.105   0.617   3.042 -1.0745  0.7435 -0.5327
29443SOL    HW288908   0.184   0.673   3.158 -0.5120  0.3559 -0.7274
29444SOL     OW88909   4.868   7.326   2.965 -0.4467  0.4022 -0.0547
29444SOL    HW188910   4.860   7.421   2.975 -0.0240  0.5237 -0.7821
29444SOL    HW288911   4.830   7.290   3.045 -1.2531  1.1634 -0.0768
29445SOL     OW88912   9.401   0.355   9.239 -0.5758 -0.0361  0.2758
29445SOL    HW188913   9.366   0.268   9.222  0.8492 -0.8407  1.2484
29445SOL    HW288914   9.378   0.406   9.161 -0.6941 -1.5165 -0.7010
29446SOL     OW88915   9.369   5.062   3.189 -0.1207  0.1311 -0.1641
29446SOL    HW188916   9.401   4.973   3.172 -1.0862  0.1644 -2.5674
29446SOL    HW288917   9.281   5.049   3.224  0.3591  0.1552  1.1169
29447SOL     OW88918   8.952   7.868   2.941  0.2643  0.3480  0.3603
29447SOL    HW188919   8.876   7.867   2.883  1.0700 -1.5557 -0.7586
29447SOL    HW288920   8.922   7.823   3.020  0.1176 -0.0858  0.0627
29448SOL     OW88921   6.856   8.716   9.983 -0.1039  0.3773  0.5212
29448SOL    HW188922   6.775   8.695   9.936 -0.1619 -0.6114  1.0432
29448SOL    HW288923   6.862   8.811   9.978 -1.1297  0.4382  0.1941
29449SOL     OW88924   2.544   6.141   4.180 -0.2395 -0.2144  0.1731
29449SOL    HW188925   2.585   6.071   4.230  1.8481  0.1475 -0.9182
29449SOL    HW288926   2.610   6.210   4.176 -0.5665  0.0696 -2.3696
29450SOL     OW88927   5.627   0.378   9.612  0.5883 -0.2674  0.8739
29450SOL    HW188928   5.651   0.307   9.672  0.9041  0.4686  1.6439
29450SOL    HW288929   5.543   0.410   9.645 -0.1672 -1.0778 -0.2105
29451SOL     OW88930   8.117   4.906   5.119 -0.2369 -0.4017  0.0567
29451SOL    HW188931   8.095   4.994   5.087 -1.6642 -0.5125  0.6610
29451SOL    HW288932   8.036   4.874   5.160  0.7081 -1.3683  1.2690
29452SOL     OW88933   5.985   6.483   1.602  0.7229  0.3084  0.5422
29452SOL    HW188934   6.019   6.395   1.618 -0.5779 -0.0384  1.5920
29452SOL    HW288935   6.046   6.521   1.538  1.4356 -1.2623  0.2346
29453SOL     OW88936   7.686   2.726   2.998  0.6874 -0.1986 -0.5543
29453SOL    HW188937   7.725   2.680   3.072  1.1589 -1.0964 -1.3470
29453SOL    HW288938   7.685   2.818   3.025 -1.0218 -0.7043  1.3991
29454SOL     OW88939   3.097   2.190   3.472  0.1449  0.3341  0.1173
29454SOL    HW188940   3.006   2.163   3.458  0.7938 -2.2441  0.4507
29454SOL    HW288941   3.136   2.187   3.385  0.4021 -0.6009  0.2576
29455SOL     OW88942   7.447   8.016   7.531  0.2440  0.0355  0.1569
29455SOL    HW188943   7.477   8.084   7.470  0.3794 -1.1454 -1.1408
29455SOL    HW288944   7.358   8.041   7.554  0.1788  0.4872 -0.5665
29456SOL     OW88945   5.478   1.590   6.528  0.2298  0.0858  0.3547
29456SOL    HW188946   5.422   1.624   6.458  2.4969  1.8779 -0.6891
29456SOL    HW288947   5.432   1.613   6.609 -1.7120 -0.7174 -0.4617
29457SOL     OW88948   3.439   1.585   5.352  0.1278 -0.2470 -0.2487
29457SOL    HW188949   3.533   1.569   5.345  0.0069 -0.9584 -0.3624
29457SOL    HW288950   3.400   1.534   5.280 -0.3295  0.1521 -0.2903
29458SOL     OW88951   7.318   4.265   6.883  0.0523 -0.3643 -0.3955
29458SOL    HW188952   7.303   4.347   6.930 -1.6956  0.0174 -1.5158
29458SOL    HW288953   7.400   4.278   6.836 -1.2051  1.5882 -2.1943
29459SOL     OW88954   6.891   6.314   1.555  0.2260  0.0641  0.0410
29459SOL    HW188955   6.821   6.371   1.588  0.1288 -0.2907  0.4619
29459SOL    HW288956   6.848   6.260   1.488  0.4256  0.7938 -0.6785
29460SOL     OW88957   5.407   7.703   3.371  1.1053  0.5042 -0.0731
29460SOL    HW188958   5.465   7.760   3.422  1.4423  0.7807 -0.7650
29460SOL    HW288959   5.320   7.742   3.381  0.4546 -1.3594  3.1790
29461SOL     OW88960   2.365   8.273   2.388 -0.2030  0.0371  0.1076
29461SOL    HW188961   2.283   8.268   2.340 -0.0210  1.6156 -0.4499
29461SOL    HW288962   2.341   8.313   2.472 -0.0438  0.3654  0.0006
29462SOL     OW88963   7.828   6.088   7.401 -0.3247  0.1598 -0.4345
29462SOL    HW188964   7.905   6.100   7.344  0.2093  1.3402  0.5037
29462SOL    HW288965   7.852   6.015   7.458  0.8845  1.6409  1.0495
29463SOL     OW88966   9.233   4.482   0.418 -0.1574  0.2699 -0.3565
29463SOL    HW188967   9.281   4.403   0.443  0.7773  0.0671 -2.6039
29463SOL    HW288968   9.273   4.552   0.470 -0.0957 -0.5113  0.6768
29464SOL     OW88969   3.055   9.547   9.141 -0.3234 -0.2074  0.5438
29464SOL    HW188970   3.142   9.575   9.111 -0.2639 -1.3974 -0.4785
29464SOL    HW288971   3.068   9.523   9.233  0.1691  0.6706  0.7146
29465SOL     OW88972   1.101   9.866   9.866 -0.1490  0.0956  0.2342
29465SOL    HW188973   1.170   9.860   9.800 -0.8906  1.3128 -0.6919
29465SOL    HW288974   1.145   9.904   9.942  0.1779  1.0442 -0.4087
29466SOL     OW88975   1.109   4.307   4.673  0.5649 -0.0671  0.7882
29466SOL    HW188976   1.133   4.386   4.721 -1.3924  0.9380  0.2352
29466SOL    HW288977   1.131   4.327   4.582 -1.7687  0.7101  0.3364
29467SOL     OW88978   2.796   8.038   8.866  0.0732 -0.0586 -0.0912
29467SOL    HW188979   2.764   8.128   8.871 -0.6348 -0.3174  0.1340
29467SOL    HW288980   2.854   8.029   8.942  0.3269  0.2721 -0.2426
29468SOL     OW88981   9.667   4.679   9.211  0.0616  0.1239  0.3189
29468SOL    HW188982   9.758   4.690   9.238 -0.5440  1.7779  1.8177
29468SOL    HW288983   9.662   4.587   9.185  1.5000 -0.7654  2.8486
29469SOL     OW88984   0.880   5.411   3.333  0.5500 -0.2549  0.5591
29469SOL    HW188985   0.911   5.430   3.421 -1.1590 -2.4735  1.7543
29469SOL    HW288986   0.791   5.445   3.330 -0.1225 -1.9102  0.4454
29470SOL     OW88987   0.624   4.687   0.428 -0.3916 -0.3283 -0.2561
29470SOL    HW188988   0.680   4.723   0.497 -1.3296 -0.5018  0.6252
29470SOL    HW288989   0.678   4.620   0.387  0.3857  0.1632 -0.0662
29471SOL     OW88990   4.031   5.957   6.323  0.0601  0.0219  0.3847
29471SOL    HW188991   4.091   6.030   6.338  0.6131 -0.3084 -0.1729
29471SOL    HW288992   3.946   5.999   6.310  0.2567  0.5254  0.6895
29472SOL     OW88993   5.538   5.401   4.323  0.7771  0.1733  0.0708
29472SOL    HW188994   5.541   5.489   4.361 -0.8261  0.7793 -1.0942
29472SOL    HW288995   5.584   5.408   4.240  1.3709 -0.3222  0.3464
29473SOL     OW88996   6.003   6.884   8.669  0.0557 -0.5137  0.1608
29473SOL    HW188997   5.974   6.931   8.591 -2.9129 -0.9282  0.8837
29473SOL    HW288998   5.924   6.876   8.723  1.3303 -2.8068  1.8782
29474SOL     OW88999   1.958   6.694   3.878 -0.5293 -0.2540 -0.2989
29474SOL    HW189000   2.018   6.762   3.910 -0.5123  0.6073 -2.0750
29474SOL    HW289001   1.982   6.616   3.929 -1.6069  1.3389  2.9617
29475SOL     OW89002   6.789   6.575   2.499 -0.0696  0.1436 -0.2282
29475SOL    HW189003   6.837   6.595   2.579 -0.2857  1.6757 -0.4471
29475SOL    HW289004   6.696   6.583   2.524 -0.1433  2.2991 -0.9591
29476SOL     OW89005   9.022   3.222   3.549  0.7367 -0.1218 -0.5514
29476SOL    HW189006   8.927   3.208   3.545  0.7028 -0.7388  1.2573
29476SOL    HW289007   9.041   3.279   3.475 -0.6744 -1.8211 -2.3261
29477SOL     OW89008   3.514   0.222   8.051 -0.4836  0.2755 -0.0346
29477SOL    HW189009   3.501   0.301   8.104 -0.8631 -0.6040  1.2337
29477SOL    HW289010   3.468   0.153   8.100  1.5454 -1.1594 -0.0407
29478SOL     OW89011   8.287   4.440   7.070  0.0093  0.3345  0.2727
29478SOL    HW189012   8.237   4.521   7.060 -0.0846  0.3551  0.8586
29478SOL    HW289013   8.227   4.370   7.045 -0.6554  0.2811  1.9065
29479SOL     OW89014   2.006   6.173   4.986 -0.2261 -0.1283 -0.4788
29479SOL    HW189015   2.006   6.077   4.990  1.4005 -0.1480 -0.4486
29479SOL    HW289016   2.007   6.193   4.893  2.2175 -0.2204 -0.5361
29480SOL     OW89017   9.867   0.062   7.697 -0.2967 -0.3998 -0.5700
29480SOL    HW189018   9.915   0.003   7.754 -0.4615 -0.1631 -0.1832
29480SOL    HW289019   9.903   0.149   7.715 -0.3913 -0.3151 -0.7787
29481SOL     OW89020   7.721   5.804   0.689 -0.3880 -0.2423  0.3632
29481SOL    HW189021   7.777   5.882   0.688 -0.1921 -0.3866  0.0519
29481SOL    HW289022   7.751   5.752   0.615 -1.7553  0.2455 -0.5524
29482SOL     OW89023   8.658   7.940   2.256 -0.4401 -0.4357  0.4710
29482SOL    HW189024   8.650   8.027   2.296 -1.0588  0.9795 -2.4673
29482SOL    HW289025   8.753   7.923   2.255 -0.0256  1.5582 -1.3981
29483SOL     OW89026   5.150   8.344   8.427  0.3604 -0.0298  0.2352
29483SOL    HW189027   5.156   8.250   8.409 -1.7506  0.1739 -2.0115
29483SOL    HW289028   5.180   8.385   8.346 -1.2332  1.1753  0.2203
29484SOL     OW89029   9.309   3.886   8.273  0.1423  0.0695 -0.3406
29484SOL    HW189030   9.369   3.880   8.348 -0.4118 -1.1551  0.0307
29484SOL    HW289031   9.342   3.822   8.211  0.2729  0.6933 -0.9286
29485SOL     OW89032   1.008   5.718   2.358  0.6938 -0.1860  0.2381
29485SOL    HW189033   1.012   5.664   2.437  1.9116  0.2537  0.5113
29485SOL    HW289034   1.085   5.691   2.307 -0.1367 -0.5481 -0.8673
29486SOL     OW89035   2.764   8.139   7.945  0.2327 -0.3335 -0.0513
29486SOL    HW189036   2.792   8.103   8.029 -3.0564 -2.4765  0.3211
29486SOL    HW289037   2.805   8.082   7.879  0.7315 -0.2961  0.2253
29487SOL     OW89038   5.401   6.398   6.473  0.1519  0.1569  0.0775
29487SOL    HW189039   5.354   6.319   6.447 -0.5507  0.6014 -0.0331
29487SOL    HW289040   5.400   6.396   6.568 -1.9606  1.2179  0.1221
29488SOL     OW89041   4.482   8.394   9.748 -0.4477  0.5667  0.0719
29488SOL    HW189042   4.529   8.476   9.762  0.8921 -0.3589  1.3009
29488SOL    HW289043   4.418   8.391   9.819  0.5470 -0.1343  0.9697
29489SOL     OW89044   2.972   1.513   4.315 -0.0563  0.0228  0.1468
29489SOL    HW189045   2.891   1.474   4.347 -0.3373  1.1081  0.8304
29489SOL    HW289046   2.987   1.472   4.230 -0.1229 -1.8038  0.9604
29490SOL     OW89047   7.140   2.180   4.132 -0.2423  0.6389 -0.0264
29490SOL    HW189048   7.193   2.135   4.198 -0.1893 -0.2581 -0.6522
29490SOL    HW289049   7.086   2.110   4.094  0.3643  0.9528 -1.5354
29491SOL     OW89050   7.362   9.087   7.838 -0.0544 -0.0265 -0.3086
29491SOL    HW189051   7.331   9.164   7.790 -2.0659 -0.5226  0.0731
29491SOL    HW289052   7.396   9.029   7.770  1.5619  1.1896 -0.5908
29492SOL     OW89053   8.149   7.584   2.758  0.7994 -0.6156  0.8711
29492SOL    HW189054   8.088   7.639   2.807  1.7270 -1.4411  3.0854
29492SOL    HW289055   8.141   7.498   2.800  0.7622 -1.7189 -1.2738
29493SOL     OW89056   9.500   8.838   9.428  0.0666 -0.8686 -0.0192
29493SOL    HW189057   9.446   8.907   9.466  0.8648 -0.6554  0.7486
29493SOL    HW289058   9.590   8.865   9.445  0.3959 -1.9679  0.0738
29494SOL     OW89059   8.529   4.291   4.999 -0.0019  0.6944 -0.1134
29494SOL    HW189060   8.480   4.313   4.920 -0.2153 -0.0932 -0.2142
29494SOL    HW289061   8.551   4.375   5.039  0.2692  1.1068 -1.1110
29495SOL     OW89062   5.404   2.960   1.645  0.1263  0.0550 -0.0925
29495SOL    HW189063   5.455   3.025   1.597 -0.7549  0.2507 -0.7960
29495SOL    HW289064   5.466   2.890   1.664  1.9668  2.3356  3.4286
29496SOL     OW89065   6.596   5.288   0.362 -0.2116 -0.6590  0.1086
29496SOL    HW189066   6.662   5.357   0.350 -0.8558  0.1323  1.0247
29496SOL    HW289067   6.619   5.222   0.296 -0.0811  0.8027 -1.3763
29497SOL     OW89068   7.659   2.668   5.039 -0.5291  0.7718  0.3017
29497SOL    HW189069   7.564   2.673   5.028 -0.6139 -1.1872 -0.0893
29497SOL    HW289070   7.680   2.576   5.026  1.3491  1.0486  1.1198
29498SOL     OW89071  10.008   1.905   4.268 -0.0176 -0.0121  0.4026
29498SOL    HW189072   9.915   1.916   4.287  0.0919 -0.0014  0.9361
29498SOL    HW289073  10.027   1.815   4.295 -0.0774 -0.3180 -0.5479
29499SOL     OW89074   7.832   4.835   4.414  0.2509  0.2363  0.0583
29499SOL    HW189075   7.917   4.841   4.369  0.2408  0.2885  0.0462
29499SOL    HW289076   7.795   4.923   4.405 -0.6366 -0.2561 -1.5828
29500SOL     OW89077   5.676   4.963   2.367  0.1787 -0.1591  0.3252
29500SOL    HW189078   5.619   4.957   2.444 -0.4739 -0.5361 -0.1754
29500SOL    HW289079   5.620   4.937   2.294  0.5277  1.0361 -0.4067
29501SOL     OW89080   1.725   9.732   5.499 -0.1886  0.2364 -0.4896
29501SOL    HW189081   1.718   9.827   5.491 -0.2924  0.5934  2.6831
29501SOL    HW289082   1.649   9.706   5.552 -1.8824 -2.1372 -3.6501
29502SOL     OW89083   3.712   2.030   0.906  0.0776 -0.0724  0.3580
29502SOL    HW189084   3.744   2.065   0.823  1.4797  0.4059  1.0554
29502SOL    HW289085   3.705   2.106   0.964  0.7146 -0.5960  1.1517
29503SOL     OW89086   3.626   2.309   2.377 -0.1420  0.4229  0.2299
29503SOL    HW189087   3.613   2.330   2.285  0.2472  0.9715  0.2940
29503SOL    HW289088   3.719   2.325   2.393 -0.1478  0.0761  0.6540
29504SOL     OW89089   2.917   9.315   8.408  0.6765 -0.7788 -0.3618
29504SOL    HW189090   2.862   9.380   8.364  0.5585 -0.7672 -0.1992
29504SOL    HW289091   2.954   9.263   8.336  0.1679 -1.0162 -0.4601
29505SOL     OW89092   7.211   4.896   7.161 -0.1433  0.1031  0.2014
29505SOL    HW189093   7.256   4.813   7.175  3.5322  1.9590  0.4460
29505SOL    HW289094   7.229   4.947   7.240 -0.1963  2.0134 -0.9573
29506SOL     OW89095   2.038   0.219   1.849  0.4359  0.3327 -0.1251
29506SOL    HW189096   2.082   0.228   1.933 -0.1577  1.0828  0.1177
29506SOL    HW289097   2.091   0.156   1.800  0.5741 -0.4106  0.9510
29507SOL     OW89098   6.383   2.713   7.099 -0.7590  0.3994 -0.5683
29507SOL    HW189099   6.387   2.650   7.171  0.8752  2.6300  1.4270
29507SOL    HW289100   6.405   2.661   7.021  2.8763 -1.1369  1.2726
29508SOL     OW89101   8.462   7.800   6.629 -0.6512 -0.1956  0.3001
29508SOL    HW189102   8.516   7.877   6.650 -0.6690  0.4343 -1.6853
29508SOL    HW289103   8.390   7.804   6.692  1.0131 -0.4605  2.3312
29509SOL     OW89104   1.455   3.044   6.605  0.3573 -0.4228  0.6644
29509SOL    HW189105   1.397   3.026   6.679  1.2894  0.1296  1.5550
29509SOL    HW289106   1.421   3.126   6.568 -0.4443 -0.9860  0.1235
29510SOL     OW89107   6.859   7.257   2.661 -0.0194  0.0668 -0.1464
29510SOL    HW189108   6.882   7.169   2.631  1.0261 -0.1681  1.2298
29510SOL    HW289109   6.942   7.305   2.660 -0.3451  0.6516  0.3286
29511SOL     OW89110   1.621   8.077   9.426 -0.4423  1.0923  0.4853
29511SOL    HW189111   1.704   8.042   9.457  0.9455  2.1205 -1.7608
29511SOL    HW289112   1.556   8.045   9.488  1.4184 -0.9500  1.5113
29512SOL     OW89113   8.219   5.009   8.795 -0.1530 -0.1548 -0.6857
29512SOL    HW189114   8.283   4.958   8.746  0.9940 -0.6876  1.2778
29512SOL    HW289115   8.196   4.954   8.870 -1.0565  1.0393 -0.0511
29513SOL     OW89116   6.320   4.033   2.871 -0.2868 -0.1703 -0.1360
29513SOL    HW189117   6.238   3.984   2.879 -1.0579  0.5086 -2.8392
29513SOL    HW289118   6.388   3.969   2.893 -1.4854 -0.7303  2.2195
29514SOL     OW89119   3.714   9.089   5.310  0.6085  0.3661  0.5138
29514SOL    HW189120   3.683   9.028   5.377  0.8917  0.9575  1.1961
29514SOL    HW289121   3.789   9.044   5.270  2.7210  1.4129  3.0212
29515SOL     OW89122   7.304   4.738   6.491  0.0185  0.1794  0.3333
29515SOL    HW189123   7.331   4.806   6.429  1.8355  0.8737  1.8018
29515SOL    HW289124   7.218   4.766   6.521  0.2960  1.2735  0.1409
29516SOL     OW89125   3.704   6.896   4.749 -0.6417 -0.4187  0.0716
29516SOL    HW189126   3.610   6.908   4.733 -0.6356 -0.3158  0.1083
29516SOL    HW289127   3.708   6.859   4.837 -0.6466 -0.3864  0.0855
29517SOL     OW89128   7.583   3.059   0.821  0.2547 -0.2763 -0.0927
29517SOL    HW189129   7.547   2.987   0.874  0.4606 -0.7702 -0.6106
29517SOL    HW289130   7.508   3.094   0.774 -0.4908  1.9944  2.5386
29518SOL     OW89131   8.558   6.075   1.187  0.4255  0.2965 -0.1789
29518SOL    HW189132   8.494   6.063   1.257 -1.3269  0.4734 -1.6700
29518SOL    HW289133   8.616   5.998   1.193 -0.5999 -0.4405  0.5501
29519SOL     OW89134   1.348   0.308   2.430  0.3684 -0.2857  0.0020
29519SOL    HW189135   1.270   0.276   2.384  0.5909 -0.1746 -0.4501
29519SOL    HW289136   1.323   0.395   2.460 -0.3315 -0.9463  1.4586
29520SOL     OW89137   6.422   4.576   1.270  0.4394  0.2265  0.0333
29520SOL    HW189138   6.410   4.591   1.364 -1.1752 -1.7028  0.1873
29520SOL    HW289139   6.473   4.495   1.265 -1.0901 -0.7193 -0.7395
29521SOL     OW89140   1.592   8.053   7.625  0.2908  0.3835  0.3487
29521SOL    HW189141   1.595   8.129   7.683  2.0551 -0.3213  1.2571
29521SOL    HW289142   1.622   7.980   7.679 -0.6188 -0.8325 -0.7161
29522SOL     OW89143   7.114   7.662   9.474  0.1981  0.5011 -0.0973
29522SOL    HW189144   7.060   7.711   9.411  0.1691  0.3630 -0.1812
29522SOL    HW289145   7.077   7.683   9.559  0.1841  0.6246 -0.1346
29523SOL     OW89146   5.263   0.838   1.907  0.0699 -0.0208  0.2963
29523SOL    HW189147   5.225   0.828   1.994 -2.7764 -0.6064 -0.9004
29523SOL    HW289148   5.294   0.928   1.904  0.8154 -0.1770  2.0902
29524SOL     OW89149   1.297   0.668   5.924 -0.4655 -0.1668 -0.0100
29524SOL    HW189150   1.240   0.685   5.849 -1.2938 -1.6138  0.2554
29524SOL    HW289151   1.349   0.592   5.897  0.4812  0.3893  0.2241
29525SOL     OW89152   1.633   8.564   3.080  0.1011 -0.1111 -0.9309
29525SOL    HW189153   1.611   8.515   3.160  1.5150  0.2047 -0.3223
29525SOL    HW289154   1.567   8.633   3.076 -0.3551 -0.4973 -0.3724
29526SOL     OW89155   6.117   9.804   2.538 -0.0904 -0.3144 -0.8522
29526SOL    HW189156   6.165   9.849   2.469  0.3985 -0.6839 -0.7569
29526SOL    HW289157   6.094   9.719   2.500  1.4975 -1.1384 -0.0761
29527SOL     OW89158   7.417   2.739   3.722 -0.1458  0.6999  0.1557
29527SOL    HW189159   7.369   2.690   3.787  0.0634  0.0038 -0.2073
29527SOL    HW289160   7.442   2.820   3.766  0.4958 -0.0094  1.1225
29528SOL     OW89161   4.041   4.995   2.998 -0.3099  0.4312  0.1328
29528SOL    HW189162   3.954   4.993   3.036  0.3995  3.1401  2.2720
29528SOL    HW289163   4.100   4.996   3.073  1.6411 -1.3297 -1.2373
29529SOL     OW89164   6.721   9.383   2.808 -0.2736 -0.0911 -0.2221
29529SOL    HW189165   6.678   9.302   2.781  1.8888 -0.5830 -2.6039
29529SOL    HW289166   6.685   9.450   2.750 -1.4211  0.5425  1.1616
29530SOL     OW89167   1.957   8.501   0.387 -0.0233  0.0713 -0.5748
29530SOL    HW189168   1.992   8.415   0.410 -1.5358 -0.2082  0.9350
29530SOL    HW289169   1.875   8.481   0.342  1.1980  0.7126 -3.2280
29531SOL     OW89170   3.455   4.240   8.305 -0.1486  0.4382 -0.3038
29531SOL    HW189171   3.426   4.220   8.216  0.7642  0.6185 -0.6553
29531SOL    HW289172   3.550   4.251   8.298 -0.0652  0.5160  0.6827
29532SOL     OW89173   2.209   2.274   2.378  0.3664  0.1012 -0.2662
29532SOL    HW189174   2.168   2.344   2.327  0.0122 -0.3309 -0.5915
29532SOL    HW289175   2.303   2.291   2.372  0.2614  0.8121  0.0537
29533SOL     OW89176   4.269   3.786   1.230 -0.4291 -0.1413 -0.0878
29533SOL    HW189177   4.356   3.752   1.253 -0.5697 -0.5256 -0.1270
29533SOL    HW289178   4.284   3.879   1.215  0.1000 -0.3145 -0.7042
29534SOL     OW89179   0.446   5.801   7.692 -0.3887 -0.1958 -0.1173
29534SOL    HW189180   0.410   5.745   7.761  1.2312  1.0921  1.8769
29534SOL    HW289181   0.369   5.830   7.643 -1.3540 -3.4640 -0.8029
29535SOL     OW89182   3.302   4.763   1.125 -0.6016 -0.2300  0.4104
29535SOL    HW189183   3.383   4.811   1.143 -0.9236  0.6309 -0.3820
29535SOL    HW289184   3.286   4.712   1.204  1.1388 -1.0190  0.3005
29536SOL     OW89185   4.874   7.432   3.462  0.9738  0.4992 -0.3371
29536SOL    HW189186   4.802   7.461   3.517  2.1322  0.3160  1.3463
29536SOL    HW289187   4.859   7.338   3.452  0.5832  0.5885 -0.6301
29537SOL     OW89188   7.847   7.557   7.456 -0.3530  0.0059 -0.3106
29537SOL    HW189189   7.921   7.591   7.505  0.1625 -1.0856 -0.2893
29537SOL    HW289190   7.810   7.633   7.412 -0.8272  1.0116  1.7200
29538SOL     OW89191   5.456   2.415   5.258  0.0665 -0.0272  0.3912
29538SOL    HW189192   5.433   2.400   5.350  1.2275 -0.3253  0.6394
29538SOL    HW289193   5.384   2.375   5.209  0.2718 -1.3663  1.1454
29539SOL     OW89194   8.259   2.368   3.924 -0.4003  0.4911  0.5021
29539SOL    HW189195   8.211   2.295   3.963  2.0637 -1.9304 -0.6574
29539SOL    HW289196   8.192   2.420   3.880 -2.2852 -0.9109  1.5760
29540SOL     OW89197   4.832   6.251   1.348  1.0271 -0.4698  0.1462
29540SOL    HW189198   4.876   6.326   1.308  1.6771  1.3465  3.8596
29540SOL    HW289199   4.739   6.265   1.330  1.3147 -0.1939 -1.2637
29541SOL     OW89200   3.802   3.859   7.780  0.2692 -0.0434 -0.4166
29541SOL    HW189201   3.862   3.920   7.822  1.1783 -0.9205 -0.3958
29541SOL    HW289202   3.809   3.879   7.687 -0.8034  1.0636 -0.2892
29542SOL     OW89203   5.149   1.484   4.859 -0.1990  0.3235  0.2316
29542SOL    HW189204   5.227   1.541   4.861  1.3473 -1.7087  0.7646
29542SOL    HW289205   5.175   1.410   4.804 -1.8565 -0.3168  0.2674
29543SOL     OW89206   9.850   5.051   2.427  0.3431 -0.5995  0.5256
29543SOL    HW189207   9.942   5.023   2.423  0.5269  0.0425  0.0761
29543SOL    HW289208   9.807   4.982   2.478  0.8300 -1.5728 -0.3276
29544SOL     OW89209   7.469   6.323   0.080 -0.5301  0.1037 -0.4974
29544SOL    HW189210   7.492   6.246   0.029 -0.2115  0.6404 -1.1779
29544SOL    HW289211   7.386   6.352   0.044 -0.6540  0.0835 -0.2357
29545SOL     OW89212   3.161   6.832   7.406  0.3589  0.0724  0.4214
29545SOL    HW189213   3.239   6.784   7.435 -0.0211 -1.1435 -0.4736
29545SOL    HW289214   3.123   6.776   7.338 -0.1437  1.6334 -0.6453
29546SOL     OW89215   7.963   9.937   9.783  0.0108 -0.0146  0.3028
29546SOL    HW189216   8.046   9.946   9.736  1.3322 -0.3474  2.4392
29546SOL    HW289217   7.986   9.948   9.875 -2.1120 -1.5030  1.0920
29547SOL     OW89218   3.271   6.844   3.664 -0.6902  0.2180 -0.3383
29547SOL    HW189219   3.235   6.812   3.581 -0.5133 -0.4582 -0.1668
29547SOL    HW289220   3.366   6.833   3.654 -0.6967 -0.3459  0.1322
29548SOL     OW89221   0.172   7.730   5.533 -0.0760  0.2603 -0.1793
29548SOL    HW189222   0.221   7.666   5.585 -0.6822 -1.2751 -1.4312
29548SOL    HW289223   0.202   7.716   5.443 -1.5440  0.4854 -0.7250
29549SOL     OW89224   0.885   8.765   4.115 -0.3200  0.3643 -0.6857
29549SOL    HW189225   0.952   8.830   4.095 -0.2200  0.3253 -0.4824
29549SOL    HW289226   0.810   8.817   4.146 -0.2390  0.3855 -0.5199
29550SOL     OW89227   7.981   6.115   6.607  0.5749 -0.4159 -0.1458
29550SOL    HW189228   8.055   6.143   6.552  0.4423 -0.2454 -0.2382
29550SOL    HW289229   7.910   6.174   6.583  0.8532  0.4481  1.0558
29551SOL     OW89230   0.902   6.847   2.467 -0.4063 -0.1261 -0.3359
29551SOL    HW189231   0.874   6.809   2.384 -1.1188  3.4933 -1.8989
29551SOL    HW289232   0.847   6.924   2.478  0.7897  0.4175  2.7235
29552SOL     OW89233   3.964   5.059   7.584 -0.1730  0.2481 -0.4975
29552SOL    HW189234   4.045   5.111   7.577  1.5639 -2.1660  0.3276
29552SOL    HW289235   3.990   4.971   7.558 -2.6868 -0.5529 -0.5640
29553SOL     OW89236   6.920   7.982   5.265 -0.5099 -0.1970 -0.4372
29553SOL    HW189237   6.939   8.073   5.241  0.7420 -0.5539 -0.8807
29553SOL    HW289238   6.963   7.930   5.197  1.0526 -1.1744  1.2212
29554SOL     OW89239   7.519   6.689   9.267 -0.3593 -0.3274 -0.7519
29554SOL    HW189240   7.534   6.720   9.178 -2.5556  0.6186 -0.8521
29554SOL    HW289241   7.575   6.745   9.322 -1.0008  0.9166 -1.3245
29555SOL     OW89242   9.448   1.253   6.511  0.4836  0.0155 -0.5462
29555SOL    HW189243   9.372   1.267   6.567  0.6401 -1.6491  0.1262
29555SOL    HW289244   9.512   1.318   6.541 -1.0195  2.3164 -1.9530
29556SOL     OW89245   7.078   9.712   6.607 -0.1145 -0.4232 -0.9676
29556SOL    HW189246   7.097   9.619   6.617  0.3218 -0.1886  0.5090
29556SOL    HW289247   7.142   9.742   6.543  0.7853 -0.8192 -0.2742
29557SOL     OW89248   6.312   2.357   4.236 -0.2414 -0.3012  0.2203
29557SOL    HW189249   6.369   2.280   4.239 -0.9692 -0.8507  0.6889
29557SOL    HW289250   6.245   2.335   4.172 -0.1833  0.1433  0.0059
29558SOL     OW89251   1.701   1.465   2.606 -0.2896 -0.4735 -0.0422
29558SOL    HW189252   1.776   1.433   2.558 -0.0350 -0.1584  0.1398
29558SOL    HW289253   1.661   1.387   2.645  0.1491 -0.6002  0.1549
29559SOL     OW89254   6.569   6.232   9.461 -0.8104  0.0643  0.2205
29559SOL    HW189255   6.661   6.224   9.437 -0.7558 -1.9540  0.8809
29559SOL    HW289256   6.563   6.190   9.547 -2.3632  0.0245  0.1270
29560SOL     OW89257   5.241   7.033   6.625  0.6035  0.0133  0.0794
29560SOL    HW189258   5.260   6.991   6.541  2.8990  0.8120  0.1352
29560SOL    HW289259   5.180   7.104   6.602  1.0777  0.1308 -0.8992
29561SOL     OW89260   4.296   5.276   4.555  0.5455 -0.7312 -0.5801
29561SOL    HW189261   4.338   5.242   4.634  1.2550 -0.4029 -0.8011
29561SOL    HW289262   4.231   5.338   4.588 -0.0685 -1.5609 -0.2159
29562SOL     OW89263   5.661   1.344   0.883 -0.2715 -0.0350  0.1497
29562SOL    HW189264   5.660   1.282   0.811 -0.6337  1.7508 -1.4598
29562SOL    HW289265   5.752   1.374   0.889  0.0605 -1.2098  1.4080
29563SOL     OW89266   6.001   8.657   2.741  0.5780 -0.0562  0.1977
29563SOL    HW189267   5.917   8.633   2.780  0.2862 -2.2290 -1.5800
29563SOL    HW289268   5.979   8.729   2.681 -0.1911 -1.0653 -0.7718
29564SOL     OW89269   0.430   2.270   6.598 -0.2759 -0.7022 -0.3847
29564SOL    HW189270   0.414   2.323   6.676 -0.2992 -0.5168 -0.5155
29564SOL    HW289271   0.468   2.331   6.535 -1.1709 -0.6190 -0.8638
29565SOL     OW89272   7.770   9.870   1.021  0.8610  0.7299  0.6178
29565SOL    HW189273   7.845   9.929   1.010  0.8625  0.7483  0.7353
29565SOL    HW289274   7.721   9.906   1.094  1.5123 -0.1016  1.4945
29566SOL     OW89275   8.940   1.403   7.251 -0.6238 -0.2269  0.1816
29566SOL    HW189276   8.961   1.363   7.336 -0.9071 -0.9042 -0.0635
29566SOL    HW289277   9.005   1.367   7.191  0.5295  1.3855  0.3818
29567SOL     OW89278   9.263   1.323   0.469  0.0985  0.6602  0.3373
29567SOL    HW189279   9.275   1.264   0.544  0.0511  0.2172 -0.0029
29567SOL    HW289280   9.239   1.407   0.509 -1.3188  0.0855  0.7795
29568SOL     OW89281   9.025   9.713   9.471 -0.0039 -0.4735 -0.1381
29568SOL    HW189282   9.062   9.783   9.525 -1.1484 -1.0836  1.5546
29568SOL    HW289283   8.954   9.678   9.525 -1.0148 -1.3439 -1.9606
29569SOL     OW89284   2.555   8.428   5.507  0.3000 -0.0177  0.0203
29569SOL    HW189285   2.559   8.433   5.411 -0.0392  0.5459  0.0315
29569SOL    HW289286   2.462   8.425   5.526  0.3732 -1.0590  0.3012
29570SOL     OW89287   3.418   2.641   7.575 -0.7372 -0.0024 -0.4386
29570SOL    HW189288   3.380   2.679   7.496 -0.6783 -1.2037 -1.0804
29570SOL    HW289289   3.503   2.607   7.546 -0.2322  0.5062  0.4094
29571SOL     OW89290   0.491   7.547   4.538  0.6430 -0.6337 -0.0371
29571SOL    HW189291   0.565   7.514   4.589  0.6851  0.2643  0.5053
29571SOL    HW289292   0.528   7.564   4.451  0.8430 -1.0791 -0.0418
29572SOL     OW89293   9.978   5.681   1.896 -0.6442 -0.1799 -0.0404
29572SOL    HW189294   9.889   5.646   1.897 -1.2543  1.3094 -0.1517
29572SOL    HW289295  10.014   5.650   1.813 -0.7917 -1.3775  0.3175
29573SOL     OW89296   7.382   4.939   0.938 -0.3104 -0.0556 -0.1000
29573SOL    HW189297   7.289   4.944   0.914 -0.1989 -0.4258 -0.6303
29573SOL    HW289298   7.429   4.961   0.858  0.0625  0.3727  0.2341
29574SOL     OW89299   2.100   4.251   7.877 -0.3389  0.3589  0.0597
29574SOL    HW189300   2.094   4.269   7.783  0.5862 -0.6853 -0.2263
29574SOL    HW289301   2.033   4.184   7.893  0.0102 -0.0085 -0.0097
29575SOL     OW89302   5.452   9.963   8.114  0.1103 -0.7184  0.3707
29575SOL    HW189303   5.448   9.938   8.022  1.4743  0.5774 -0.0825
29575SOL    HW289304   5.526   9.913   8.149 -1.3344 -2.4024  1.2251
29576SOL     OW89305   7.820   2.778   2.718  0.0524  0.6690  0.5676
29576SOL    HW189306   7.762   2.782   2.794 -1.5416  0.7326 -0.6243
29576SOL    HW289307   7.832   2.684   2.701 -0.1765  0.6627  0.4485
29577SOL     OW89308   3.664   6.939   5.792 -0.0116  0.3440  0.7335
29577SOL    HW189309   3.707   6.878   5.853 -1.4347 -0.1430  1.3116
29577SOL    HW289310   3.586   6.891   5.763  0.4177  0.7331 -1.1871
29578SOL     OW89311   8.623   9.531   6.800 -0.0718 -0.1560  0.0805
29578SOL    HW189312   8.691   9.582   6.756  0.8763  1.2074  2.9157
29578SOL    HW289313   8.669   9.457   6.838 -0.7034 -0.8171 -0.4210
29579SOL     OW89314   1.506   9.817   7.711  0.0553 -0.2406 -0.5731
29579SOL    HW189315   1.477   9.904   7.737 -1.3784 -0.2587 -1.9527
29579SOL    HW289316   1.447   9.757   7.758  1.2610 -0.5204  0.6502
29580SOL     OW89317   5.450   2.387   7.745 -0.3710  0.4039  0.5817
29580SOL    HW189318   5.499   2.311   7.713  0.0111  0.7459  0.3387
29580SOL    HW289319   5.503   2.420   7.818 -1.1898 -0.3171  1.5196
29581SOL     OW89320   7.400   3.690   7.052  0.5256 -0.6350  0.6770
29581SOL    HW189321   7.472   3.748   7.077  1.9304 -1.7444 -0.5969
29581SOL    HW289322   7.443   3.609   7.024 -1.2948 -1.7629  0.9828
29582SOL     OW89323   5.707   8.661   1.831  0.1658  0.4160  0.3476
29582SOL    HW189324   5.669   8.723   1.892  1.8959  1.8410  0.0513
29582SOL    HW289325   5.652   8.667   1.753 -0.3656  0.7148  0.7425
29583SOL     OW89326   5.775   3.671   5.314  0.2084  0.3653  0.0079
29583SOL    HW189327   5.725   3.717   5.381 -0.0945  1.2531 -0.8132
29583SOL    HW289328   5.745   3.580   5.319 -1.7444  0.9346 -0.6775
29584SOL     OW89329   4.868   8.371   7.973 -0.5923  0.9067 -0.1328
29584SOL    HW189330   4.897   8.448   7.925  0.2173  1.1687  0.7393
29584SOL    HW289331   4.812   8.323   7.911  0.2082  1.3588 -1.2377
29585SOL     OW89332   7.064   3.539   8.357 -0.0676 -0.1167  0.2503
29585SOL    HW189333   7.011   3.582   8.289  1.2161  1.4452  0.1762
29585SOL    HW289334   7.022   3.564   8.439 -0.8641 -0.9374  0.1098
29586SOL     OW89335   7.361   3.984   5.808 -0.8291 -0.2355 -0.0980
29586SOL    HW189336   7.441   3.972   5.859 -0.5158  0.9171 -0.2740
29586SOL    HW289337   7.387   4.042   5.736 -1.2438 -1.9041 -1.6441
29587SOL     OW89338   1.759   4.949   1.098 -0.4210 -0.4681  0.4048
29587SOL    HW189339   1.806   4.920   1.176  0.1569 -1.2581 -0.2068
29587SOL    HW289340   1.713   4.870   1.067 -2.9731  0.4797  1.5003
29588SOL     OW89341   2.950   6.139   9.089 -0.1357  0.7095  0.0185
29588SOL    HW189342   2.939   6.226   9.127 -3.2332  0.3871  0.1521
29588SOL    HW289343   2.919   6.079   9.157  0.5466 -0.3977 -0.6068
29589SOL     OW89344   2.432   5.069   4.411  0.7082  0.3210 -0.1704
29589SOL    HW189345   2.417   4.975   4.415 -0.2251  0.4853  0.6040
29589SOL    HW289346   2.358   5.103   4.359  0.0525  0.7971  1.0204
29590SOL     OW89347   6.236   3.250   8.106  0.2162 -0.2232 -0.2852
29590SOL    HW189348   6.253   3.344   8.118 -1.3021  0.0704 -0.2265
29590SOL    HW289349   6.151   3.247   8.063 -0.0504 -1.5971  0.2955
29591SOL     OW89350   6.280   8.753   1.633 -0.3184  0.1910 -0.1223
29591SOL    HW189351   6.324   8.744   1.718  1.7940  3.6677 -0.6450
29591SOL    HW289352   6.190   8.777   1.655  0.1610  0.9152  1.1600
29592SOL     OW89353   0.176   7.030   3.552 -0.1377 -0.5509  0.3755
29592SOL    HW189354   0.086   7.060   3.566  0.2778  0.3876  1.2675
29592SOL    HW289355   0.202   6.995   3.637  1.3736  2.1936  1.1696
29593SOL     OW89356   7.549   5.734   4.203 -0.0388 -0.3180  0.1672
29593SOL    HW189357   7.471   5.688   4.235  0.7440 -2.4775 -0.9122
29593SOL    HW289358   7.607   5.737   4.279 -1.1940  1.5395  1.0598
29594SOL     OW89359   9.080   0.208   3.086 -0.0823 -0.7678  0.3374
29594SOL    HW189360   9.053   0.276   3.148 -1.5732 -0.7893 -0.2283
29594SOL    HW289361   9.062   0.126   3.132 -0.3257 -0.7759  0.2330
29595SOL     OW89362   2.118   2.445   8.426  0.1026 -0.0866 -0.4034
29595SOL    HW189363   2.131   2.367   8.371 -0.0839 -0.6412  0.3225
29595SOL    HW289364   2.176   2.511   8.388 -0.7955 -0.1153 -1.9092
29596SOL     OW89365   9.854   5.154   8.572 -0.0872 -0.7026 -0.5898
29596SOL    HW189366   9.901   5.129   8.652  1.4305 -0.7023 -1.4480
29596SOL    HW289367   9.823   5.243   8.590 -0.3784 -0.9632  0.2554
29597SOL     OW89368   4.859   6.795   2.267  0.2318  0.4601  0.0717
29597SOL    HW189369   4.869   6.890   2.264  1.0579  0.3950  0.6306
29597SOL    HW289370   4.840   6.776   2.359  0.0487  0.0842 -0.0418
29598SOL     OW89371   7.126   0.216   2.060 -0.0147 -0.1055  0.0057
29598SOL    HW189372   7.082   0.169   1.989  0.8136  0.6277 -1.0219
29598SOL    HW289373   7.129   0.153   2.131  0.9322 -1.5874 -1.2782
29599SOL     OW89374   4.789   6.970   5.322 -0.2853 -0.2468  0.0462
29599SOL    HW189375   4.724   6.905   5.350  0.1200 -0.8231 -0.3190
29599SOL    HW289376   4.822   6.937   5.238  2.8527 -1.7785  1.6799
29600SOL     OW89377   1.694   0.624   7.047  0.3737 -0.1377  0.0878
29600SOL    HW189378   1.650   0.633   6.962 -1.5727  3.9350  1.2484
29600SOL    HW289379   1.641   0.560   7.094  0.1934 -0.8373 -1.0284
29601SOL     OW89380   7.514   8.328   5.196 -0.6633 -0.1379 -0.6411
29601SOL    HW189381   7.546   8.260   5.137 -0.4999 -0.8529  0.2556
29601SOL    HW289382   7.437   8.290   5.238 -0.8567  0.4129 -0.4839
29602SOL     OW89383   8.319   1.785   7.222 -0.3337  0.4442  0.7798
29602SOL    HW189384   8.273   1.758   7.301 -1.6999  2.5545  0.7588
29602SOL    HW289385   8.251   1.787   7.154  0.3386  1.0203  0.1081
29603SOL     OW89386   0.919   5.758   6.443 -0.6123 -0.1329  0.7996
29603SOL    HW189387   0.921   5.678   6.495  0.1824  0.2174  1.3264
29603SOL    HW289388   0.941   5.827   6.505 -0.4661  0.3952  0.1681
29604SOL     OW89389   1.569   8.444   0.402  0.3781 -0.1509 -0.4628
29604SOL    HW189390   1.627   8.483   0.337  0.9258 -1.5758 -0.8668
29604SOL    HW289391   1.502   8.400   0.351  1.3144 -2.0477 -0.1449
29605SOL     OW89392   7.735   0.831   7.909 -0.3886  0.2772  0.3717
29605SOL    HW189393   7.703   0.854   7.996 -2.6933  2.5684 -0.9175
29605SOL    HW289394   7.685   0.753   7.885  0.3366 -0.4312  1.0896
29606SOL     OW89395   4.470   7.914   1.561  0.0435  0.7692  0.4919
29606SOL    HW189396   4.537   7.981   1.576  0.7044  0.4306 -0.7386
29606SOL    HW289397   4.389   7.952   1.593  0.3660  2.2755 -0.3950
29607SOL     OW89398   9.256   3.111   1.385  0.0481  0.5218 -0.1988
29607SOL    HW189399   9.295   3.042   1.331 -0.0946  1.1553 -1.1544
29607SOL    HW289400   9.234   3.068   1.467  0.1701 -0.5136 -0.6883
29608SOL     OW89401   4.206   7.228   3.129 -0.2954 -0.7930 -0.0644
29608SOL    HW189402   4.191   7.163   3.060 -0.0536  0.4290 -1.3210
29608SOL    HW289403   4.298   7.217   3.153 -0.3751 -1.2102  0.0473
29609SOL     OW89404   7.861   7.323   3.997 -0.1054  0.0862 -0.3243
29609SOL    HW189405   7.819   7.296   3.915  0.7530 -0.2613 -0.6610
29609SOL    HW289406   7.937   7.265   4.005 -1.2453 -1.2561  1.7380
29610SOL     OW89407   4.699   7.439   2.217 -0.0020 -0.1102  0.5400
29610SOL    HW189408   4.659   7.523   2.236 -0.3387  0.3049 -1.7303
29610SOL    HW289409   4.697   7.432   2.122  1.3645 -2.0355  0.5844
29611SOL     OW89410   8.325   0.996   8.800  0.0853  0.3037  0.5193
29611SOL    HW189411   8.378   1.013   8.722  0.2163 -0.0773  0.5195
29611SOL    HW289412   8.387   0.957   8.862 -0.1609 -0.0050  0.5748
29612SOL     OW89413   6.038   0.247   2.305  0.2403 -0.1953  0.4500
29612SOL    HW189414   6.093   0.263   2.381  0.4260 -3.4882  1.1362
29612SOL    HW289415   6.097   0.252   2.230  0.6925 -0.0527  0.8169
29613SOL     OW89416   1.834   3.468   8.279 -0.0053 -0.0483 -0.1987
29613SOL    HW189417   1.784   3.391   8.252  0.3931 -0.6020  0.5883
29613SOL    HW289418   1.895   3.435   8.346  0.6107  0.8290 -0.3034
29614SOL     OW89419   0.944   8.885   5.029  0.0639  0.3229 -0.6665
29614SOL    HW189420   0.971   8.975   5.008  1.0148  0.2333  0.1111
29614SOL    HW289421   0.878   8.895   5.098 -0.5190  0.4565 -1.2336
29615SOL     OW89422   3.214   5.100   1.195  0.2612  0.1505 -0.1751
29615SOL    HW189423   3.199   5.160   1.122  0.6705 -2.2515 -2.3652
29615SOL    HW289424   3.127   5.063   1.213  0.3201  0.0700 -0.0604
29616SOL     OW89425   0.814   4.281   7.574  0.2275 -0.0446 -0.1564
29616SOL    HW189426   0.847   4.219   7.639 -0.0150  0.0016  0.0149
29616SOL    HW289427   0.722   4.256   7.563  0.8981 -1.8329 -2.5273
29617SOL     OW89428   1.611   0.038   2.527  0.0326  0.1627 -0.7040
29617SOL    HW189429   1.678   0.106   2.536  0.9873 -0.7189 -0.9301
29617SOL    HW289430   1.533   0.076   2.566  0.6413  1.2558 -0.5066
29618SOL     OW89431   0.832   0.205   1.071  0.1923  0.2847  0.3851
29618SOL    HW189432   0.754   0.149   1.071  0.9262 -0.7783  0.4767
29618SOL    HW289433   0.859   0.207   0.979 -0.1894  1.0196  0.2851
29619SOL     OW89434   3.223   4.157   9.037 -0.2335 -0.0138 -0.3297
29619SOL    HW189435   3.293   4.213   9.071  0.9059 -1.8523  0.4702
29619SOL    HW289436   3.170   4.216   8.983 -0.7496  2.5285  2.6334
29620SOL     OW89437   4.129   4.788   9.676 -0.4170 -0.6677  0.1206
29620SOL    HW189438   4.072   4.768   9.750 -1.3359 -2.2409 -0.9692
29620SOL    HW289439   4.074   4.837   9.615 -0.3649 -1.3735 -0.5155
29621SOL     OW89440   0.174   6.805   9.865 -0.4500 -0.4671 -1.0106
29621SOL    HW189441   0.256   6.854   9.869 -0.6439 -0.0979 -1.4502
29621SOL    HW289442   0.192   6.733   9.804 -0.5301 -0.2292 -1.3185
29622SOL     OW89443   3.473   7.475   0.641  0.1619  0.3039 -1.1224
29622SOL    HW189444   3.481   7.383   0.664  0.9530  0.4424 -0.8086
29622SOL    HW289445   3.411   7.510   0.704 -1.3605 -0.3376 -2.2222
29623SOL     OW89446   1.187   6.962   3.122 -0.8459 -0.9091 -0.1377
29623SOL    HW189447   1.243   7.022   3.072 -2.5843  2.6650  1.8125
29623SOL    HW289448   1.108   6.953   3.068 -1.2018 -0.1479  0.2474
29624SOL     OW89449   7.301   5.515   9.419  0.0117  0.0292 -0.1235
29624SOL    HW189450   7.220   5.560   9.393  0.1089 -0.4809 -1.3681
29624SOL    HW289451   7.369   5.555   9.366  0.3487 -0.5393 -0.1263
29625SOL     OW89452   5.863   4.870   8.339 -0.2437 -0.4997 -0.3056
29625SOL    HW189453   5.837   4.959   8.319 -0.1152 -0.3828  0.0478
29625SOL    HW289454   5.929   4.878   8.408  0.2127 -0.8281 -0.6891
29626SOL     OW89455   0.075   3.018   9.246  0.1951  0.3859 -0.5470
29626SOL    HW189456   0.164   3.054   9.246 -0.9813  3.7058 -0.8670
29626SOL    HW289457   0.044   3.029   9.156 -0.7773 -0.0787 -0.2856
29627SOL     OW89458   9.515   5.896   4.185  0.1555 -0.1430 -0.4160
29627SOL    HW189459   9.444   5.831   4.189  2.0372 -2.2574  0.3364
29627SOL    HW289460   9.507   5.945   4.267  0.8752 -1.8908  0.7584
29628SOL     OW89461   7.832   9.671   1.240 -0.4547 -0.1709  0.8907
29628SOL    HW189462   7.824   9.749   1.185  1.2922 -0.6895 -0.2092
29628SOL    HW289463   7.753   9.620   1.224 -0.8913  0.6513  0.4238
29629SOL     OW89464   5.053   3.599   9.890 -0.7460 -0.1924  0.1339
29629SOL    HW189465   5.134   3.559   9.858  0.4353  1.2265  1.2311
29629SOL    HW289466   5.042   3.677   9.836 -1.2384 -0.2331  0.1724
29630SOL     OW89467   5.533   5.967   3.623  0.4125  0.8995 -0.4578
29630SOL    HW189468   5.548   6.041   3.681 -0.6908 -0.8960  2.3614
29630SOL    HW289469   5.438   5.964   3.612  0.4224 -0.2173 -0.3518
29631SOL     OW89470   3.507   7.832   1.565 -0.9949  0.2231 -0.0173
29631SOL    HW189471   3.449   7.895   1.523 -0.1125  2.0270  1.3636
29631SOL    HW289472   3.591   7.878   1.575  0.0317 -1.5513  0.0420
29632SOL     OW89473   0.883   3.074   4.137 -0.3685  0.5224  0.2532
29632SOL    HW189474   0.871   3.166   4.113  0.2926  0.8842  1.2495
29632SOL    HW289475   0.976   3.057   4.122 -0.6565 -0.2490 -0.7621
29633SOL     OW89476  -0.013   7.185   8.911  0.1301 -0.0783 -0.1978
29633SOL    HW189477   0.082   7.181   8.926  0.2593  2.0311 -0.2323
29633SOL    HW289478  -0.034   7.278   8.916 -2.0008 -0.5367  0.0493
29634SOL     OW89479   5.539   3.844   1.991  0.1076  0.2941  0.0985
29634SOL    HW189480   5.609   3.798   2.037 -1.3993  0.5360  2.8229
29634SOL    HW289481   5.469   3.779   1.982 -0.2181  0.7041 -0.3916
29635SOL     OW89482   5.452   0.973   3.307  0.3667  0.4018  0.3559
29635SOL    HW189483   5.440   0.912   3.380  0.0431 -1.5924 -1.2798
29635SOL    HW289484   5.527   1.027   3.333  1.8005 -1.8205  1.1895
29636SOL     OW89485   8.840   4.833   7.970 -0.4792  0.4663 -0.4481
29636SOL    HW189486   8.780   4.758   7.973  0.3831 -0.2394 -0.3253
29636SOL    HW289487   8.881   4.827   7.884  1.3617 -0.6589  0.4493
29637SOL     OW89488   0.674   6.238   1.805  0.5343 -0.0372 -0.2790
29637SOL    HW189489   0.632   6.315   1.844 -1.1789 -0.4908 -1.1373
29637SOL    HW289490   0.653   6.166   1.864  0.9832 -0.1045 -0.1927
29638SOL     OW89491   7.302   6.527   6.296  0.3128  0.3571 -0.9732
29638SOL    HW189492   7.371   6.463   6.276 -0.1264 -0.0469 -1.2106
29638SOL    HW289493   7.249   6.530   6.217 -1.4804 -1.2760  0.1028
29639SOL     OW89494   6.104   7.453   1.050 -0.0249 -0.3449  0.7970
29639SOL    HW189495   6.073   7.463   0.959  0.8839  1.2509  0.6417
29639SOL    HW289496   6.190   7.494   1.051  0.9228 -2.2442  1.8988
29640SOL     OW89497   7.310   5.295   3.706  0.3489  0.3720 -0.0813
29640SOL    HW189498   7.230   5.310   3.656  0.7558  0.7919 -0.6189
29640SOL    HW289499   7.289   5.328   3.794 -1.2788 -2.7509  0.8696
29641SOL     OW89500   7.040   6.445   7.680  0.5533  0.9696 -0.1528
29641SOL    HW189501   7.013   6.534   7.706 -0.3809  1.6988 -3.1438
29641SOL    HW289502   6.983   6.425   7.605  0.7805 -2.1810  0.3958
29642SOL     OW89503   4.612   9.095   7.387 -0.3408  0.1503  0.2908
29642SOL    HW189504   4.695   9.131   7.418  0.5301 -0.8152 -0.8703
29642SOL    HW289505   4.634   9.048   7.307 -2.2898  1.3253 -1.0223
29643SOL     OW89506   4.975   5.762   9.613  0.1392  0.7125  0.2343
29643SOL    HW189507   4.941   5.694   9.672  0.6115 -1.2449 -1.6203
29643SOL    HW289508   5.068   5.769   9.636  0.8855 -1.6635 -1.5425
29644SOL     OW89509   7.735   1.125   5.012 -0.2292 -0.6250  0.1387
29644SOL    HW189510   7.698   1.163   5.092 -0.6137 -1.7463  0.5061
29644SOL    HW289511   7.668   1.064   4.981 -0.1087 -0.1821 -1.0774
29645SOL     OW89512   8.608   1.529   6.670  0.2363 -0.2979 -0.5490
29645SOL    HW189513   8.617   1.472   6.746  0.7531 -2.4481 -2.1204
29645SOL    HW289514   8.633   1.615   6.702  2.9065 -1.5671  1.1732
29646SOL     OW89515   2.182   1.587   0.784  0.2732 -0.0014 -0.0725
29646SOL    HW189516   2.173   1.492   0.793  0.3035  0.1231  1.7093
29646SOL    HW289517   2.253   1.598   0.721 -1.1749 -1.1104 -2.0147
29647SOL     OW89518   0.486   2.353   5.028  0.4689  0.3104 -0.1364
29647SOL    HW189519   0.549   2.325   4.962  0.1150 -1.6033  0.2624
29647SOL    HW289520   0.420   2.283   5.029 -0.0848  0.8007  1.4881
29648SOL     OW89521   6.740   4.690   8.556 -0.1691 -0.6094  0.2567
29648SOL    HW189522   6.775   4.763   8.607  2.0862 -1.4114 -0.0387
29648SOL    HW289523   6.711   4.731   8.474  0.6401  0.0418  0.2745
29649SOL     OW89524   8.551   5.332   6.809  1.1778 -0.0264  0.1413
29649SOL    HW189525   8.597   5.401   6.856  1.4481  0.5763 -0.9879
29649SOL    HW289526   8.461   5.337   6.841  1.0854  1.1689 -0.2587
29650SOL     OW89527   4.053   0.487   0.542  0.4173  0.1517 -0.9796
29650SOL    HW189528   4.102   0.496   0.460  0.4050 -2.1305 -1.3148
29650SOL    HW289529   4.120   0.467   0.608  0.6056  3.3969 -0.0449
29651SOL     OW89530   0.013   4.054   8.707 -0.1046  0.7652 -0.5798
29651SOL    HW189531   0.081   3.990   8.682  0.4095  0.4737  1.3783
29651SOL    HW289532  -0.069   4.005   8.701  0.0197  0.6432 -1.4181
29652SOL     OW89533   5.708   8.048   7.571  0.3089 -0.0510 -0.1612
29652SOL    HW189534   5.709   8.118   7.507  0.9920  0.2332  0.1488
29652SOL    HW289535   5.786   7.995   7.551  0.0272 -0.4862 -0.1361
29653SOL     OW89536   1.332   3.651   6.218 -0.0436 -1.0330  0.0579
29653SOL    HW189537   1.313   3.721   6.156  1.2914 -0.0405  0.7314
29653SOL    HW289538   1.427   3.649   6.225 -0.1305 -0.0515  3.1931
29654SOL     OW89539   0.549   6.506   2.892 -0.2341 -0.2533 -0.1486
29654SOL    HW189540   0.496   6.552   2.958 -0.7437 -1.5376  0.3663
29654SOL    HW289541   0.616   6.460   2.943 -0.2172 -0.7127 -0.5841
29655SOL     OW89542   2.453   9.334   6.256 -0.4539  0.8057  0.0324
29655SOL    HW189543   2.532   9.333   6.310 -0.9192  0.7881  0.7184
29655SOL    HW289544   2.392   9.277   6.302 -1.7531  2.7778  0.8660
29656SOL     OW89545   2.632   8.208   1.180  0.7194  0.1483  0.2876
29656SOL    HW189546   2.550   8.212   1.228  0.1408  1.5952 -0.7377
29656SOL    HW289547   2.658   8.299   1.170  0.7818 -0.0678 -2.1097
29657SOL     OW89548   7.860   5.923   9.133 -0.0374  0.8333  0.1867
29657SOL    HW189549   7.932   5.862   9.150  0.3881  1.2961  0.0944
29657SOL    HW289550   7.870   5.946   9.040  0.4678  1.8563  0.4692
29658SOL     OW89551   2.579   3.064   8.101  0.4656  0.5779  0.2956
29658SOL    HW189552   2.553   2.984   8.055  4.6642 -0.2197 -1.1366
29658SOL    HW289553   2.526   3.133   8.061 -2.2155 -1.2027  0.5266
29659SOL     OW89554   2.617   6.572   0.577 -0.1747 -0.0712 -0.1534
29659SOL    HW189555   2.536   6.533   0.544 -0.2638  0.2354 -0.3038
29659SOL    HW289556   2.677   6.569   0.502 -0.4260  0.7634 -0.4061
29660SOL     OW89557   2.510   9.036   3.043  0.0180 -0.1018 -0.2683
29660SOL    HW189558   2.536   9.090   3.118 -1.8165 -0.6323  0.8278
29660SOL    HW289559   2.423   9.003   3.067 -1.0360  0.4210 -3.0177
29661SOL     OW89560   6.923   5.560   7.020  0.1073 -0.2914 -0.3123
29661SOL    HW189561   6.909   5.491   6.955  0.8251  0.5852 -1.4257
29661SOL    HW289562   6.837   5.574   7.059  0.0295 -2.1178  0.2660
29662SOL     OW89563   8.528   7.172   2.684 -0.3760  0.0603  0.1241
29662SOL    HW189564   8.455   7.141   2.738 -0.8934 -0.2531 -0.7287
29662SOL    HW289565   8.486   7.228   2.618 -0.1120 -1.6369 -1.5634
29663SOL     OW89566   4.752   2.212   4.023  0.0061  0.1373 -0.4301
29663SOL    HW189567   4.683   2.203   4.089  0.3793 -0.1014 -0.0737
29663SOL    HW289568   4.788   2.299   4.037 -0.7496  0.5777 -1.1315
29664SOL     OW89569   2.702   6.669   6.316  0.2541  0.4184 -0.7364
29664SOL    HW189570   2.636   6.691   6.251  0.1232  1.1775 -0.3597
29664SOL    HW289571   2.781   6.653   6.266 -0.4721 -1.7151 -1.3029
29665SOL     OW89572   5.137   0.223   3.402 -0.3745  0.4405  0.3283
29665SOL    HW189573   5.109   0.133   3.383  0.5735  0.7642 -3.2810
29665SOL    HW289574   5.167   0.257   3.318  2.9903  2.8752  2.2731
29666SOL     OW89575   9.377   5.664   1.203 -0.0004  0.5965  0.2717
29666SOL    HW189576   9.300   5.658   1.146  1.7991 -0.4448 -2.2721
29666SOL    HW289577   9.403   5.755   1.198 -0.0035  0.5692 -0.4344
29667SOL     OW89578   9.438   5.875   7.875 -0.5375 -0.5558  0.3835
29667SOL    HW189579   9.397   5.843   7.956 -0.5497  0.8856  0.9870
29667SOL    HW289580   9.502   5.940   7.905 -0.0654 -0.4848 -0.7351
29668SOL     OW89581   4.268   1.653   6.016  0.0745  0.2687 -0.0821
29668SOL    HW189582   4.342   1.600   5.985 -0.9578 -0.4134 -1.4362
29668SOL    HW289583   4.260   1.723   5.951 -1.4499 -0.5667 -0.8219
29669SOL     OW89584   6.573   3.166   3.732 -0.4550  0.4816 -0.5010
29669SOL    HW189585   6.582   3.084   3.780  0.4876  0.5923 -0.4782
29669SOL    HW289586   6.489   3.157   3.686  0.5200 -1.3362 -2.0915
29670SOL     OW89587   2.065   7.318   6.586 -0.4162  0.0317  0.5323
29670SOL    HW189588   2.126   7.350   6.653  0.1786 -1.5970  0.8178
29670SOL    HW289589   2.039   7.231   6.617 -0.9862 -0.3051 -0.8125
29671SOL     OW89590   1.726   4.260   4.143 -0.1127 -0.4556  0.5805
29671SOL    HW189591   1.799   4.282   4.085  0.6531 -0.6190  1.4420
29671SOL    HW289592   1.700   4.344   4.181 -0.5610 -0.3597  0.0674
29672SOL     OW89593   8.435   4.037   1.411 -0.5446  0.1136 -0.8408
29672SOL    HW189594   8.368   4.071   1.353 -0.4121  0.3434 -0.8626
29672SOL    HW289595   8.409   4.068   1.498  0.3349  1.4986 -1.0394
29673SOL     OW89596   2.046   7.663   3.759 -0.0583  0.0696 -0.1254
29673SOL    HW189597   2.103   7.597   3.798 -0.4218 -0.6841 -0.8196
29673SOL    HW289598   2.083   7.677   3.671  1.5194  2.6868  0.8521
29674SOL     OW89599   9.951   1.234   0.321  0.4650  0.5362 -0.2280
29674SOL    HW189600   9.996   1.229   0.405  0.6550 -1.6895 -0.3841
29674SOL    HW289601   9.864   1.196   0.338  1.5558 -3.0222 -1.5538
29675SOL     OW89602   7.459   4.660   6.136  0.7861 -0.1414  0.0670
29675SOL    HW189603   7.414   4.594   6.188 -1.8893  1.3461 -0.1821
29675SOL    HW289604   7.491   4.724   6.200  0.8223 -0.2127  0.1197
29676SOL     OW89605   8.070   0.909   1.460  0.0442  0.4445  0.2076
29676SOL    HW189606   8.028   0.901   1.375  1.2166  2.6658 -0.6539
29676SOL    HW289607   8.164   0.907   1.441  0.4069  3.7987  0.9833
29677SOL     OW89608   0.930   6.524   5.291  0.5555 -0.5753  0.4016
29677SOL    HW189609   0.853   6.569   5.325  0.3752 -0.1969 -0.4645
29677SOL    HW289610   0.918   6.432   5.316  0.2113 -0.3867  0.9423
29678SOL     OW89611   3.912   2.889   4.584 -0.5640  0.6796  0.5416
29678SOL    HW189612   3.877   2.808   4.622  0.1751  0.0636 -0.0579
29678SOL    HW289613   3.840   2.924   4.531 -0.7443  0.1857  0.4552
29679SOL     OW89614   0.630   7.994   9.408  0.3378 -0.2948 -0.3602
29679SOL    HW189615   0.637   8.062   9.475 -0.4086  1.5072 -2.0314
29679SOL    HW289616   0.536   7.981   9.397  0.4648 -1.6563 -0.0681
29680SOL     OW89617  10.004   1.634   0.032 -0.1841  0.0714 -0.2810
29680SOL    HW189618   9.985   1.726   0.052 -1.1822 -0.0440 -0.6520
29680SOL    HW289619   9.927   1.586   0.064 -1.9871 -0.1350 -4.2880
29681SOL     OW89620   2.310   4.122   4.302  0.2997 -1.1617  0.0194
29681SOL    HW189621   2.311   4.110   4.397  0.3188 -1.3582 -0.0062
29681SOL    HW289622   2.373   4.058   4.269  3.2893  1.4571  0.1777
29682SOL     OW89623   3.060   6.631   5.548  0.6299 -0.3366  0.0750
29682SOL    HW189624   2.966   6.632   5.567  0.5436 -0.8622 -0.3007
29682SOL    HW289625   3.101   6.605   5.630  0.4413 -0.1835  0.2188
29683SOL     OW89626   4.937   6.997   3.199  0.1943 -0.2374 -0.3004
29683SOL    HW189627   4.999   6.925   3.186  0.2284 -0.3169  0.2520
29683SOL    HW289628   4.852   6.955   3.205 -0.0441 -0.0392 -2.0420
29684SOL     OW89629   8.236   9.392   9.619  0.4119  0.4102 -0.6018
29684SOL    HW189630   8.213   9.317   9.563  0.7975 -0.5161  0.4552
29684SOL    HW289631   8.217   9.469   9.564 -1.9350 -0.3699 -1.0196
29685SOL     OW89632   0.301   9.291   0.619  0.6673  0.0823  0.0488
29685SOL    HW189633   0.275   9.339   0.697 -0.4116  0.6783 -0.6483
29685SOL    HW289634   0.367   9.228   0.650 -0.3137 -0.2552  1.5733
29686SOL     OW89635   8.333   4.524   3.197 -0.2584  0.2304 -0.8435
29686SOL    HW189636   8.241   4.546   3.179 -0.5947 -2.2697 -2.6274
29686SOL    HW289637   8.329   4.466   3.273 -0.1498  0.1514 -0.8987
29687SOL     OW89638   1.204   1.523   3.859  0.4323 -0.4128 -0.0338
29687SOL    HW189639   1.191   1.605   3.908 -2.3761  0.4140 -1.9010
29687SOL    HW289640   1.291   1.532   3.821  0.3779  1.5205  0.1841
29688SOL     OW89641   4.397   0.212   6.057  0.1718  0.6305  1.5122
29688SOL    HW189642   4.329   0.243   6.116  1.1715  1.7404  2.1229
29688SOL    HW289643   4.443   0.292   6.029  0.7059 -0.0170  0.4627
29689SOL     OW89644   7.032   5.085   2.970  0.3291 -0.1079  0.3353
29689SOL    HW189645   6.990   5.035   2.900  0.3981  1.2418 -0.7248
29689SOL    HW289646   6.996   5.049   3.051 -0.7215 -0.8727 -0.4454
29690SOL     OW89647   4.082   0.244   3.465  0.5588 -0.8409  0.1512
29690SOL    HW189648   4.133   0.307   3.515 -1.5262  0.5499  0.6725
29690SOL    HW289649   4.048   0.295   3.391 -0.6690 -1.4976  0.2409
29691SOL     OW89650   0.736   5.871   1.642 -0.1249 -0.1928  0.0431
29691SOL    HW189651   0.789   5.799   1.676  0.4438  0.7675  1.2929
29691SOL    HW289652   0.702   5.915   1.720 -1.1768  0.3714 -0.7059
29692SOL     OW89653   0.284   9.868   9.279  0.1092  0.0148  0.0044
29692SOL    HW189654   0.274   9.864   9.374  0.0013 -2.0830 -0.0445
29692SOL    HW289655   0.199   9.843   9.244 -0.1156  1.6461 -0.6834
29693SOL     OW89656   4.667   6.716   5.674 -0.3710 -0.5352  0.1231
29693SOL    HW189657   4.601   6.659   5.716 -0.5114  0.8390  1.9031
29693SOL    HW289658   4.739   6.719   5.737 -0.5367  1.5268  0.2829
29694SOL     OW89659   5.614   0.712   9.919 -0.1057 -0.1931  0.4067
29694SOL    HW189660   5.565   0.793   9.906  0.5822 -0.0250 -1.5312
29694SOL    HW289661   5.607   0.666   9.835  2.2612 -0.5783  0.3440
29695SOL     OW89662   2.132   7.056   1.446  0.3307  0.4375 -0.1293
29695SOL    HW189663   2.057   7.111   1.467  0.7805  1.0750 -0.1704
29695SOL    HW289664   2.168   7.095   1.366  1.0693  0.5102  0.2349
29696SOL     OW89665   5.968   0.875   6.138  0.2462  0.2809  0.4926
29696SOL    HW189666   6.028   0.905   6.070 -1.1115  3.1156  0.4208
29696SOL    HW289667   5.919   0.804   6.096  1.1279  0.2732 -0.6011
29697SOL     OW89668   9.875   8.188   5.519  0.1834  0.3528 -0.6246
29697SOL    HW189669   9.930   8.111   5.534 -0.2365  0.3241  0.8774
29697SOL    HW289670   9.819   8.193   5.596  1.0039  2.8592 -0.1182
29698SOL     OW89671   4.060   5.025   4.504  0.2302  0.5611 -0.4984
29698SOL    HW189672   4.032   5.070   4.424  0.9293  0.9419 -0.5422
29698SOL    HW289673   4.145   4.987   4.482 -0.5665 -1.2586 -0.6208
29699SOL     OW89674   9.874   5.374   0.135  0.7013  0.0648 -0.3225
29699SOL    HW189675   9.914   5.310   0.194  0.7943  1.3294  1.0568
29699SOL    HW289676   9.853   5.324   0.056 -0.8553 -2.1114  1.3223
29700SOL     OW89677   1.080   9.260   5.498 -0.4248 -0.3063 -0.6081
29700SOL    HW189678   1.155   9.296   5.546 -1.2749 -0.3560  0.7922
29700SOL    HW289679   1.119   9.196   5.437  0.5541 -1.5892  1.2699
29701SOL     OW89680   5.876   7.879   0.242 -0.3307  0.1897  0.6182
29701SOL    HW189681   5.842   7.943   0.305 -1.9250 -0.5436  0.5542
29701SOL    HW289682   5.804   7.818   0.229 -0.4563  0.8438 -2.6979
29702SOL     OW89683   8.508   7.142   2.089 -0.0259 -0.0594  0.2101
29702SOL    HW189684   8.518   7.113   2.180  1.5864  1.6900  0.6689
29702SOL    HW289685   8.419   7.118   2.066 -0.0082 -1.8678  1.7477
29703SOL     OW89686   4.990   7.254   2.112 -0.6547  0.5281 -0.1777
29703SOL    HW189687   5.070   7.227   2.067 -0.1063 -2.5716  2.2962
29703SOL    HW289688   5.019   7.320   2.174 -0.2675  0.4569 -0.2782
29704SOL     OW89689   2.873   1.036   4.008 -0.4159  0.3457  0.1114
29704SOL    HW189690   2.815   1.069   3.940  0.0053  0.9597  0.0441
29704SOL    HW289691   2.959   1.034   3.967 -0.3549 -0.4055  0.2643
29705SOL     OW89692   8.367   0.510   0.135  0.5291  0.4630  0.0240
29705SOL    HW189693   8.461   0.522   0.140  0.8312 -1.6258  0.1441
29705SOL    HW289694   8.334   0.549   0.216  1.2524  1.3743 -0.1091
29706SOL     OW89695   3.356   7.026   8.563 -0.6799 -0.1245 -0.3220
29706SOL    HW189696   3.439   7.042   8.608 -1.5591 -0.7426  1.6626
29706SOL    HW289697   3.299   7.099   8.588 -0.6353  0.5597 -2.0608
29707SOL     OW89698   4.668   2.914   8.721  0.5047 -0.2546  0.1415
29707SOL    HW189699   4.583   2.884   8.753  0.1646  1.1118  0.6126
29707SOL    HW289700   4.649   2.996   8.674  1.4424 -0.4223 -0.5682
29708SOL     OW89701   6.006   4.721   7.124 -0.1832  0.7013 -0.3563
29708SOL    HW189702   5.958   4.803   7.131 -0.1283  0.7639 -0.7218
29708SOL    HW289703   5.963   4.663   7.187 -0.3300  0.9544 -0.2225
29709SOL     OW89704   2.984   3.622   8.082 -0.2875 -0.0026 -0.2469
29709SOL    HW189705   3.053   3.612   8.147  1.0493 -0.5442 -1.6889
29709SOL    HW289706   2.942   3.705   8.103 -0.7842 -0.7665  2.0761
29710SOL     OW89707   3.956   9.687   3.757 -0.1001 -0.0721  0.2633
29710SOL    HW189708   3.886   9.752   3.753  0.4885  0.5959  0.5564
29710SOL    HW289709   3.931   9.622   3.691  0.3999  1.5908 -1.7001
29711SOL     OW89710   8.727   2.969   1.999  0.1638 -0.1954 -0.0659
29711SOL    HW189711   8.788   2.998   2.067  0.5421  0.0148 -0.4905
29711SOL    HW289712   8.772   2.988   1.916 -0.9210  0.9566 -0.4186
29712SOL     OW89713   6.466   0.627   8.204 -0.7393  0.2848 -0.3857
29712SOL    HW189714   6.510   0.607   8.287 -1.1370  0.4873 -0.1209
29712SOL    HW289715   6.434   0.717   8.215  0.3797  0.8213 -1.2736
29713SOL     OW89716   6.951   3.295   8.362  0.0520 -0.0521  0.1320
29713SOL    HW189717   6.949   3.303   8.267  2.4662 -0.0514  0.0247
29713SOL    HW289718   7.002   3.371   8.391  1.6738 -1.4944  1.1792
29714SOL     OW89719   7.854   0.726   2.214  0.3360  0.2913  0.1971
29714SOL    HW189720   7.850   0.772   2.130 -0.0144  1.6390  0.9216
29714SOL    HW289721   7.920   0.773   2.265 -0.2678  0.2147  1.0789
29715SOL     OW89722   8.292   4.590   5.994 -0.5987  0.0345 -0.4716
29715SOL    HW189723   8.307   4.636   6.077  0.1938 -1.9802  0.5748
29715SOL    HW289724   8.377   4.591   5.950 -0.7459  0.1320 -0.7566
29716SOL     OW89725   1.644   2.000   9.915  0.2206  0.2093 -0.4631
29716SOL    HW189726   1.615   2.087   9.886  0.3527  1.1302  1.9541
29716SOL    HW289727   1.573   1.970   9.972  2.6435  1.4352  3.5800
29717SOL     OW89728   0.631   9.702   3.246 -0.2999 -0.2335 -0.0343
29717SOL    HW189729   0.546   9.730   3.213  0.3641  1.6451 -0.3074
29717SOL    HW289730   0.630   9.728   3.338  0.2521  0.5600 -0.2379
29718SOL     OW89731   0.875   6.482   8.741  0.0307 -0.0912  0.0754
29718SOL    HW189732   0.967   6.463   8.758 -0.2181 -0.5812  0.9893
29718SOL    HW289733   0.828   6.418   8.795 -0.8418  0.2233 -0.2966
29719SOL     OW89734   7.562   3.866   7.970 -0.0060 -0.1306 -0.1488
29719SOL    HW189735   7.606   3.792   7.930 -0.5684  0.2597 -1.5393
29719SOL    HW289736   7.630   3.934   7.976  0.5734 -0.8003  1.3514
29720SOL     OW89737   4.522   4.606   4.117 -0.0500  0.5121 -0.0390
29720SOL    HW189738   4.558   4.563   4.195 -2.3405 -0.2026  0.7101
29720SOL    HW289739   4.495   4.693   4.147  0.2537  0.7231 -0.3693
29721SOL     OW89740   7.390   5.203   9.803  0.2760  0.2008  0.0620
29721SOL    HW189741   7.381   5.264   9.730 -2.0711 -1.8510 -1.5371
29721SOL    HW289742   7.308   5.211   9.851  1.4651  0.9262  2.1109
29722SOL     OW89743   1.013   3.631   7.090 -0.1643 -0.1430  0.0145
29722SOL    HW189744   1.046   3.682   7.016 -0.1124 -0.7581 -0.3972
29722SOL    HW289745   1.066   3.660   7.165  1.2267 -0.9751 -0.5942
29723SOL     OW89746   7.159   7.323   1.100 -0.0844 -0.4469  0.0338
29723SOL    HW189747   7.172   7.333   1.005  0.4352 -1.8439 -0.0583
29723SOL    HW289748   7.246   7.336   1.138 -0.1977 -0.4081  0.2828
29724SOL     OW89749   2.925   0.382   9.375 -0.3558 -0.5268  0.2549
29724SOL    HW189750   2.958   0.364   9.463  1.0786 -0.9387 -0.3325
29724SOL    HW289751   2.947   0.304   9.325 -1.9692 -0.6690 -0.2729
29725SOL     OW89752   8.450   4.098   2.945  0.3061  0.0064 -0.5082
29725SOL    HW189753   8.373   4.101   3.001 -0.7948 -0.7640 -1.9178
29725SOL    HW289754   8.423   4.140   2.863  1.5304  0.1632 -0.8559
29726SOL     OW89755   1.777   1.374   7.829  0.1107  0.6983 -0.3114
29726SOL    HW189756   1.776   1.328   7.745  0.8265  0.0675  0.0138
29726SOL    HW289757   1.839   1.325   7.882 -1.2636  0.3334  1.0226
29727SOL     OW89758   1.483   2.752   2.971  0.1446 -0.3269  0.2557
29727SOL    HW189759   1.423   2.782   2.904 -0.8511 -1.0019  0.8167
29727SOL    HW289760   1.505   2.831   3.021  2.7380  0.6471 -2.1922
29728SOL     OW89761   8.377   8.563   3.407  0.3905 -1.1454 -0.2033
29728SOL    HW189762   8.287   8.588   3.424  1.2114  0.3825  2.3187
29728SOL    HW289763   8.403   8.512   3.484  1.5847 -1.8836 -1.0563
29729SOL     OW89764   8.022   8.179   8.572 -0.4324 -0.0326  0.3279
29729SOL    HW189765   7.952   8.225   8.618 -1.3832 -1.1866  0.0927
29729SOL    HW289766   7.976   8.129   8.504  0.7616  0.2153 -0.6944
29730SOL     OW89767   8.171   1.310   6.215 -0.3297  0.1681  0.5069
29730SOL    HW189768   8.113   1.352   6.151 -1.9629  0.5535  2.1465
29730SOL    HW289769   8.132   1.224   6.231  1.7776 -1.2091 -1.1896
29731SOL     OW89770   0.391   2.139   5.914  0.3874  1.3787 -0.8562
29731SOL    HW189771   0.380   2.197   5.838 -1.1165  0.0026 -1.7421
29731SOL    HW289772   0.402   2.052   5.876  2.3526  0.9846  0.4605
29732SOL     OW89773   7.501   8.307   6.130 -0.2437  0.0228  0.2764
29732SOL    HW189774   7.541   8.329   6.214  1.7002 -0.0809 -0.5673
29732SOL    HW289775   7.544   8.225   6.104 -1.2409 -0.2528 -0.5510
29733SOL     OW89776   2.531   7.486   5.468 -0.1755 -0.4130 -0.0978
29733SOL    HW189777   2.580   7.406   5.450 -0.6967 -0.6966 -0.2942
29733SOL    HW289778   2.449   7.474   5.420 -0.4615  0.0227  0.2811
29734SOL     OW89779   5.418   7.400   6.199 -0.2027 -0.0657 -0.2093
29734SOL    HW189780   5.394   7.308   6.209  0.3600 -0.1066  0.9414
29734SOL    HW289781   5.482   7.400   6.127 -0.8729 -0.4380 -0.8221
29735SOL     OW89782   2.882   2.403   6.918  0.1097 -0.5206  0.0290
29735SOL    HW189783   2.815   2.359   6.866 -0.4780  0.2271  0.1267
29735SOL    HW289784   2.965   2.379   6.877 -0.1604 -1.9283  0.2508
29736SOL     OW89785   6.173   8.896   0.639 -0.0540 -0.8561  0.1633
29736SOL    HW189786   6.148   8.901   0.732 -0.6429  0.4206 -0.0474
29736SOL    HW289787   6.262   8.929   0.637 -0.4222  0.1792  0.1473
29737SOL     OW89788   0.284   9.675   8.778  0.2971 -0.1195 -0.1906
29737SOL    HW189789   0.352   9.714   8.724  0.4753 -1.6229 -1.0915
29737SOL    HW289790   0.317   9.682   8.868  1.3401 -0.2843 -0.5601
29738SOL     OW89791   4.412   5.932   3.377  0.1340  0.2675  0.1629
29738SOL    HW189792   4.349   5.897   3.315  0.8918  2.4301 -1.9831
29738SOL    HW289793   4.359   5.984   3.438 -0.3136  0.8798 -0.7361
29739SOL     OW89794   6.507   8.742   2.503  0.8367  0.4610 -0.0070
29739SOL    HW189795   6.566   8.691   2.560 -0.7540 -2.1582 -0.5312
29739SOL    HW289796   6.421   8.702   2.517 -0.1590  1.8331 -1.9050
29740SOL     OW89797   4.271   3.378   6.613  0.3016  0.2659  0.6457
29740SOL    HW189798   4.325   3.441   6.566 -0.5929  0.2954 -0.3965
29740SOL    HW289799   4.227   3.431   6.680  0.1259  0.6198  0.2618
29741SOL     OW89800   3.535   3.220   4.272  0.4401  0.0940  0.1433
29741SOL    HW189801   3.490   3.139   4.251 -0.5577  0.5983  0.2675
29741SOL    HW289802   3.628   3.197   4.270  0.1666 -1.1144  0.4918
29742SOL     OW89803   1.748   7.022   6.714 -0.1987  0.5941  0.4542
29742SOL    HW189804   1.785   7.075   6.643  1.1248  0.0934  0.7361
29742SOL    HW289805   1.796   6.940   6.710 -1.9141 -0.4431  0.3225
29743SOL     OW89806   7.632   1.963   3.968 -0.3231 -0.3381 -0.0216
29743SOL    HW189807   7.554   1.997   4.013 -0.3323 -1.0419  0.5200
29743SOL    HW289808   7.607   1.875   3.941  0.1438 -0.4104 -0.2196
29744SOL     OW89809   5.967   5.334   8.367 -0.4924 -0.9388 -0.3485
29744SOL    HW189810   6.044   5.291   8.405  2.0525  1.6510 -2.1301
29744SOL    HW289811   5.947   5.405   8.428  1.2181  0.8772 -1.7541
29745SOL     OW89812   7.278   1.793   4.870  0.0373 -0.6090 -0.3727
29745SOL    HW189813   7.221   1.831   4.803 -0.3356  0.6321  0.6027
29745SOL    HW289814   7.244   1.704   4.883 -0.8849 -0.3214 -0.7199
29746SOL     OW89815   0.322   4.770   5.686  0.0770  0.0233  0.7293
29746SOL    HW189816   0.335   4.864   5.680 -0.6490  0.1797  1.4343
29746SOL    HW289817   0.408   4.734   5.706  0.1000  0.6816  1.8685
29747SOL     OW89818   1.039   3.146   8.845  0.2391  0.0996 -0.1257
29747SOL    HW189819   1.021   3.086   8.773  4.2556  1.7749 -2.8946
29747SOL    HW289820   1.091   3.094   8.907  1.5916  0.0422 -1.2836
29748SOL     OW89821   3.331   5.797   0.475  0.3400 -0.4106 -0.0004
29748SOL    HW189822   3.406   5.780   0.532 -0.6726 -1.4717  1.0474
29748SOL    HW289823   3.284   5.869   0.516  0.4709 -0.1118 -0.3636
29749SOL     OW89824   6.901   9.397   0.588  0.2049 -0.0832 -0.3066
29749SOL    HW189825   6.871   9.449   0.514  2.8306  0.5394 -1.0367
29749SOL    HW289826   6.929   9.314   0.550  1.3547  0.1510 -0.0092
29750SOL     OW89827   1.471   1.934   9.715  0.6010  0.0082  0.0604
29750SOL    HW189828   1.505   1.865   9.774  0.9447  0.9978  1.0584
29750SOL    HW289829   1.384   1.954   9.750  0.7904  0.5731  0.2165
29751SOL     OW89830   9.633   6.439   0.501 -0.8292 -0.0926 -0.0383
29751SOL    HW189831   9.553   6.457   0.453 -1.7972 -0.1462  1.4812
29751SOL    HW289832   9.611   6.458   0.592  1.7089  2.6138  0.1441
29752SOL     OW89833   7.697   8.896   4.029 -0.2969 -0.4857 -0.6253
29752SOL    HW189834   7.699   8.986   3.995 -1.3072 -0.2868 -0.1970
29752SOL    HW289835   7.717   8.842   3.952 -1.8969 -0.0011 -1.4417
29753SOL     OW89836   0.113   6.712   5.697  0.6138  0.3700 -0.0807
29753SOL    HW189837   0.144   6.668   5.776  0.6212 -0.5887 -0.6076
29753SOL    HW289838   0.160   6.669   5.625  0.0907  0.7537 -0.6639
29754SOL     OW89839   7.223   5.137   7.728  1.0082  0.3644  0.1245
29754SOL    HW189840   7.310   5.176   7.719  1.7573 -1.5060 -1.4020
29754SOL    HW289841   7.232   5.050   7.689 -1.2405 -0.3471  1.0583
29755SOL     OW89842   8.739   5.555   8.682 -0.1076 -0.2429  0.4394
29755SOL    HW189843   8.752   5.625   8.746  0.5487 -1.5622  1.8149
29755SOL    HW289844   8.787   5.584   8.604  0.3355  0.7382  1.0632
29756SOL     OW89845   6.182   5.739   4.310 -0.4200  0.0115 -0.0963
29756SOL    HW189846   6.102   5.727   4.362 -0.8083 -1.6337 -1.0260
29756SOL    HW289847   6.252   5.706   4.367 -0.7379 -0.9902 -0.2694
29757SOL     OW89848   7.812   5.912   5.349 -0.2994  0.4387  0.6142
29757SOL    HW189849   7.858   5.957   5.421  1.1183 -0.3967  0.2611
29757SOL    HW289850   7.761   5.844   5.393  0.1782  0.2454  0.8832
29758SOL     OW89851   8.371   4.374   6.293  0.5151  0.2234 -0.0715
29758SOL    HW189852   8.285   4.373   6.335  0.1318  1.3425 -0.7669
29758SOL    HW289853   8.367   4.305   6.226  0.3338 -0.0538  0.2263
29759SOL     OW89854   3.748   4.635   8.358  0.2623 -0.4320 -0.2704
29759SOL    HW189855   3.733   4.641   8.264  2.1357 -0.3636 -0.5952
29759SOL    HW289856   3.660   4.623   8.396 -0.8910  2.3793 -1.7588
29760SOL     OW89857   8.698   6.148   0.176  0.3994  0.0388  0.0518
29760SOL    HW189858   8.717   6.079   0.240 -0.8409 -0.2730  0.1170
29760SOL    HW289859   8.660   6.219   0.228  1.3286  0.6328 -0.0674
29761SOL     OW89860   7.876   5.382   0.117 -0.1839 -0.0545 -0.3967
29761SOL    HW189861   7.961   5.366   0.077  0.5619 -3.3050  2.1169
29761SOL    HW289862   7.822   5.307   0.091 -1.4951  0.6803  0.0838
29762SOL     OW89863   8.135   8.003   4.526  0.0214  0.6014 -0.3240
29762SOL    HW189864   8.193   8.073   4.495 -1.5057  1.7967 -0.6270
29762SOL    HW289865   8.194   7.939   4.566  1.9046  0.0731 -3.6023
29763SOL     OW89866   1.625   5.526   6.072 -0.0955  0.4226  0.1868
29763SOL    HW189867   1.612   5.431   6.076 -1.6833  0.6132  0.4168
29763SOL    HW289868   1.689   5.545   6.141  0.4103 -0.5057 -0.0198
29764SOL     OW89869   0.116   1.388   1.549  0.1769  0.3227  0.4245
29764SOL    HW189870   0.107   1.462   1.609 -0.6029  0.8150 -0.2797
29764SOL    HW289871   0.207   1.393   1.519  0.6864 -0.1318  1.7916
29765SOL     OW89872   7.067   4.378   3.733  0.0291 -0.0803 -0.0458
29765SOL    HW189873   7.158   4.377   3.761 -0.3910  0.2819  1.3864
29765SOL    HW289874   7.058   4.459   3.683  0.6091 -0.3965 -0.6922
29766SOL     OW89875   7.045   4.480   6.697 -0.4373  0.1867  0.1011
29766SOL    HW189876   6.978   4.492   6.630  0.6352  1.6197 -0.7971
29766SOL    HW289877   7.001   4.433   6.767 -1.8853 -0.4479 -1.1690
29767SOL     OW89878   9.340   1.182   5.757 -0.0472 -0.1962  0.0824
29767SOL    HW189879   9.415   1.125   5.775 -0.3384 -0.4818  0.4059
29767SOL    HW289880   9.283   1.130   5.700  0.1247  0.1195 -0.3772
29768SOL     OW89881   5.367   5.633   1.930 -0.0449  0.8070 -0.0769
29768SOL    HW189882   5.458   5.602   1.933 -0.2415  0.2185  0.0295
29768SOL    HW289883   5.372   5.725   1.956  0.6148  1.0139 -0.8883
29769SOL     OW89884   5.135   2.728   0.461  0.4361 -0.1369 -0.2073
29769SOL    HW189885   5.227   2.703   0.457  0.0157 -1.7525 -0.6321
29769SOL    HW289886   5.127   2.777   0.543  1.5703 -0.4466  0.1021
29770SOL     OW89887   7.590   7.826   9.978 -0.1934  0.3595  0.1880
29770SOL    HW189888   7.635   7.817   9.893 -1.2080 -0.4549 -0.2938
29770SOL    HW289889   7.609   7.744  10.023  0.9633  1.1016  1.0758
29771SOL     OW89890   6.410   4.909   5.766  0.3273 -0.0660  0.0835
29771SOL    HW189891   6.403   4.988   5.712 -0.9475  0.3565  0.8092
29771SOL    HW289892   6.432   4.840   5.704  3.5156  1.1427 -0.2949
29772SOL     OW89893   7.880   2.499   5.893  0.5612  0.4269 -0.5785
29772SOL    HW189894   7.873   2.405   5.878 -0.6669  0.0514  1.8309
29772SOL    HW289895   7.807   2.537   5.845 -0.7996 -0.2405  0.8921
29773SOL     OW89896   0.771   3.361   9.461  0.7896 -0.0297 -0.3406
29773SOL    HW189897   0.822   3.282   9.476 -0.3247 -0.7157 -0.1043
29773SOL    HW289898   0.736   3.350   9.372 -1.3648 -0.9793  0.5705
29774SOL     OW89899   2.464   4.662   7.401  0.3052 -0.4505  0.0596
29774SOL    HW189900   2.540   4.664   7.459  1.3644 -1.2648 -1.2414
29774SOL    HW289901   2.413   4.588   7.431 -0.1600  0.2924  1.1450
29775SOL     OW89902   5.640   7.240   2.455  0.1875  0.3571  0.1603
29775SOL    HW189903   5.551   7.209   2.474  0.2105 -0.2034 -0.5776
29775SOL    HW289904   5.698   7.180   2.502  0.1982  0.0778 -0.2050
29776SOL     OW89905   7.555   5.169   0.235 -0.4133 -0.6251 -0.0028
29776SOL    HW189906   7.616   5.190   0.164 -0.0725  1.2660  0.7971
29776SOL    HW289907   7.603   5.108   0.291 -0.0894 -0.8809 -0.5529
29777SOL     OW89908   0.195   6.054   4.348 -0.3701 -0.1249 -0.0033
29777SOL    HW189909   0.132   6.040   4.277 -0.9057  0.7768  0.2767
29777SOL    HW289910   0.273   6.088   4.304  0.0715 -1.5797 -0.3942
29778SOL     OW89911   5.621   9.845   9.552 -0.7834  0.2024 -0.5759
29778SOL    HW189912   5.554   9.881   9.610 -0.1449  0.0902  0.2445
29778SOL    HW289913   5.650   9.920   9.500  1.1165  1.1769  1.6834
29779SOL     OW89914   0.352   3.836   4.159  0.0454 -0.4509 -0.7593
29779SOL    HW189915   0.412   3.907   4.138  1.6025 -1.6265 -0.4140
29779SOL    HW289916   0.371   3.813   4.249 -0.3604 -1.3864 -0.8955
29780SOL     OW89917   1.548   3.336   7.421  0.2032  0.6769 -0.0827
29780SOL    HW189918   1.533   3.265   7.359 -0.3846  2.2487 -1.8235
29780SOL    HW289919   1.466   3.343   7.470 -1.0232  2.2662 -2.2186
29781SOL     OW89920   8.257   9.755   1.971  0.2451 -0.7325 -0.1393
29781SOL    HW189921   8.256   9.659   1.974 -0.1760 -0.7095  0.4957
29781SOL    HW289922   8.166   9.781   1.986  0.6858 -0.1842  1.8533
29782SOL     OW89923   8.787   5.033   7.334  0.2967  0.9805 -0.0478
29782SOL    HW189924   8.738   5.102   7.379  0.4814 -0.2443  2.1664
29782SOL    HW289925   8.758   4.952   7.375  0.0267 -0.3406 -2.6278
29783SOL     OW89926   1.085   1.176   8.054  0.1361 -0.0459  0.1101
29783SOL    HW189927   1.024   1.183   7.981  0.3372 -1.0275 -0.1630
29783SOL    HW289928   1.110   1.084   8.056  3.1971  0.6361 -1.0691
29784SOL     OW89929   1.714   3.249   4.788 -0.3042  0.3597 -0.4217
29784SOL    HW189930   1.724   3.239   4.694  0.4405  0.9730 -0.4154
29784SOL    HW289931   1.675   3.336   4.799  0.5130  0.7007 -0.1310
29785SOL     OW89932   5.525   9.176   2.241  0.0895  0.1804  0.3695
29785SOL    HW189933   5.568   9.091   2.238 -2.5879 -1.2978 -0.9522
29785SOL    HW289934   5.549   9.218   2.158 -1.1614 -0.7924 -0.5318
29786SOL     OW89935   8.382   1.478   6.517  0.1478 -0.2207  0.5714
29786SOL    HW189936   8.470   1.500   6.547  0.0046 -1.0036  1.6529
29786SOL    HW289937   8.388   1.385   6.495 -0.5729 -0.4486  1.3203
29787SOL     OW89938   0.650   3.501   8.604 -0.3048  0.3245  0.1296
29787SOL    HW189939   0.744   3.520   8.603 -0.1716 -0.3705 -0.7779
29787SOL    HW289940   0.624   3.499   8.512 -0.2987 -3.7997  0.0447
29788SOL     OW89941   7.860   6.280   9.004 -0.0742 -1.0034 -0.2411
29788SOL    HW189942   7.900   6.337   8.938 -0.8684  0.5847  0.5935
29788SOL    HW289943   7.865   6.193   8.966 -1.2102 -0.0611 -2.7894
29789SOL     OW89944   0.835   7.436   6.455  0.4413 -0.4583 -0.3432
29789SOL    HW189945   0.858   7.379   6.382  0.5791 -0.4065 -0.3405
29789SOL    HW289946   0.774   7.499   6.418  1.0738  0.0196 -0.5908
29790SOL     OW89947   2.965   6.141   3.696  0.4835 -0.4220  0.1182
29790SOL    HW189948   2.984   6.063   3.644  2.8180  0.3221 -0.2241
29790SOL    HW289949   2.947   6.107   3.784 -1.3855 -1.5136 -0.6209
29791SOL     OW89950   4.990   5.575   8.695 -0.4924  0.1547  0.7137
29791SOL    HW189951   5.063   5.523   8.664 -0.1441 -0.2322  2.0915
29791SOL    HW289952   4.920   5.559   8.632 -0.5639 -2.3816  1.3303
29792SOL     OW89953   0.551   4.372   1.680 -0.9821 -0.3274 -0.5281
29792SOL    HW189954   0.488   4.305   1.708 -3.1597  0.9928 -1.9394
29792SOL    HW289955   0.547   4.369   1.584  0.9558  0.0210 -0.6603
29793SOL     OW89956   5.014   1.633   8.026 -0.2101  0.0384 -0.4858
29793SOL    HW189957   4.971   1.577   7.961 -0.6296 -1.6629  1.1467
29793SOL    HW289958   4.952   1.704   8.041 -0.0042  0.5822 -2.0642
29794SOL     OW89959   0.808   3.521   9.040 -0.5683  0.2831 -0.0633
29794SOL    HW189960   0.715   3.527   9.061 -0.4600  0.2182  0.4362
29794SOL    HW289961   0.813   3.451   8.974 -0.7612 -0.4276  0.6547
29795SOL     OW89962   9.104   1.096   3.639 -0.6070  0.7063  0.4765
29795SOL    HW189963   9.157   1.017   3.626 -0.4223  0.4927  2.2310
29795SOL    HW289964   9.014   1.064   3.635 -0.5858  0.7636 -0.7516
29796SOL     OW89965   8.223   4.324   9.530  0.1974 -0.0359  0.6390
29796SOL    HW189966   8.205   4.261   9.600  0.4087 -0.0055  0.7221
29796SOL    HW289967   8.145   4.380   9.527 -0.1569 -0.5376  0.3074
29797SOL     OW89968   2.937   9.331   9.026  0.4316 -0.2302 -0.3397
29797SOL    HW189969   2.979   9.407   9.065 -1.1480  1.2631 -1.3914
29797SOL    HW289970   2.984   9.316   8.944 -0.4615  0.9001 -1.0946
29798SOL     OW89971   9.948   0.627   9.902  0.3176  0.1090 -0.0721
29798SOL    HW189972   9.999   0.572   9.962 -0.1279 -0.0204  0.1878
29798SOL    HW289973   9.990   0.713   9.908  1.8330 -0.4766 -1.4496
29799SOL     OW89974   8.910   0.255   0.406  0.1878  0.1160  0.0191
29799SOL    HW189975   8.919   0.298   0.490  0.5539  0.9672 -0.4458
29799SOL    HW289976   8.999   0.252   0.370 -0.1103  0.7413 -0.8083
29800SOL     OW89977   9.553   9.787   3.253 -0.1013  0.3038 -0.1772
29800SOL    HW189978   9.596   9.730   3.317 -0.9003 -0.4916 -0.3436
29800SOL    HW289979   9.625   9.823   3.201  0.3632 -1.0890 -0.5185
29801SOL     OW89980   0.987   4.862   8.945  0.7262 -0.0143 -0.1569
29801SOL    HW189981   1.060   4.808   8.976  0.7696 -0.4523 -1.0053
29801SOL    HW289982   0.909   4.816   8.975  0.7573  1.2298  2.0860
29802SOL     OW89983   6.768   5.474   1.082  0.0708 -0.3263 -0.2047
29802SOL    HW189984   6.773   5.541   1.150  0.3468  1.1969 -1.6675
29802SOL    HW289985   6.719   5.403   1.123 -1.0369  1.1209  1.1347
29803SOL     OW89986   8.601   2.714   0.411 -0.0269  0.6277  0.6961
29803SOL    HW189987   8.667   2.655   0.375  0.5299  1.9232 -0.5415
29803SOL    HW289988   8.518   2.668   0.399  0.3937  0.0682 -0.1886
29804SOL     OW89989   3.713   1.062   3.885 -0.0398 -0.2057 -0.1623
29804SOL    HW189990   3.664   1.068   3.803  0.0358 -0.8470 -0.2558
29804SOL    HW289991   3.800   1.034   3.860  0.5253  1.3167 -0.0348
29805SOL     OW89992   4.255   2.228   1.285  0.0545 -0.5883  0.3820
29805SOL    HW189993   4.246   2.148   1.234  0.9122 -0.1170 -0.5634
29805SOL    HW289994   4.350   2.240   1.294  0.1076  1.7847 -1.9992
29806SOL     OW89995   3.342   0.157   6.784 -0.1008  0.2937 -0.0757
29806SOL    HW189996   3.355   0.102   6.707  1.3471  1.9925 -1.1195
29806SOL    HW289997   3.256   0.198   6.770 -0.4516 -0.4238 -0.0856
29807SOL     OW89998   7.549   8.949   0.079  0.0272 -0.1540  0.0670
29807SOL    HW189999   7.597   8.879   0.122  0.2311  0.5150  0.9616
29807SOL    HW290000   7.488   8.981   0.146  0.9724  1.4962  0.1891
29808SOL     OW90001   4.946   9.946   1.416  0.0691  0.1263 -0.3244
29808SOL    HW190002   4.868   9.969   1.466 -0.1778  0.5286 -0.8916
29808SOL    HW290003   4.950   9.851   1.421  0.9757  0.2150  1.8635
29809SOL     OW90004   3.877   7.116   4.318  0.0628  0.5400  0.5388
29809SOL    HW190005   3.905   7.101   4.409 -1.3033 -1.3040  0.7228
29809SOL    HW290006   3.888   7.030   4.276 -1.6327  0.7274 -0.3608
29810SOL     OW90007   7.927   5.861   1.041  0.8583 -0.8741  0.0998
29810SOL    HW190008   7.983   5.921   0.992  0.0975 -0.4342 -0.2631
29810SOL    HW290009   7.951   5.874   1.132  1.8914 -1.2753 -0.1049
29811SOL     OW90010   7.308   7.971   0.298 -0.8474 -0.0097  0.2578
29811SOL    HW190011   7.319   7.969   0.393  0.6672  2.0375  0.1820
29811SOL    HW290012   7.391   8.007   0.265 -0.7779 -1.9459 -1.9728
29812SOL     OW90013   5.280   7.822   0.156  0.7638 -0.4008  0.2842
29812SOL    HW190014   5.292   7.802   0.063 -0.4318 -0.0984  0.0445
29812SOL    HW290015   5.220   7.754   0.188  0.8566 -0.2736  0.7389
29813SOL     OW90016   5.275   1.762   0.305  0.3716  0.2316  0.0319
29813SOL    HW190017   5.228   1.760   0.221  0.0772  0.8604  0.1726
29813SOL    HW290018   5.253   1.680   0.347  1.0242 -0.3761 -0.7799
29814SOL     OW90019   8.571   6.146   6.425 -0.2638  0.0063  0.0272
29814SOL    HW190020   8.565   6.073   6.487 -0.2058 -0.0958 -0.0869
29814SOL    HW290021   8.661   6.143   6.393  0.8445  2.1231  2.4688
29815SOL     OW90022   7.942   6.148   1.198  0.0003  0.0850 -0.1690
29815SOL    HW190023   7.874   6.116   1.258 -0.2810  0.5460 -0.2330
29815SOL    HW290024   7.895   6.165   1.116  0.0265  1.1680  0.0231
29816SOL     OW90025   6.535   2.159   4.268 -0.0867  0.1272  0.3461
29816SOL    HW190026   6.566   2.090   4.209 -1.2185 -0.0131 -0.1141
29816SOL    HW290027   6.612   2.184   4.318  0.7928 -0.0923 -0.8556
29817SOL     OW90028   5.565   9.052   6.162 -0.4185 -0.4566  0.0569
29817SOL    HW190029   5.561   8.957   6.174 -1.6432 -0.3214  0.9618
29817SOL    HW290030   5.658   9.073   6.164 -0.0321 -1.8161 -1.8201
29818SOL     OW90031   8.513   3.829   9.502  0.0766 -0.1353  0.2183
29818SOL    HW190032   8.580   3.896   9.515 -1.0995  1.0457  0.3890
29818SOL    HW290033   8.546   3.776   9.430  1.0134  0.6492  0.0447
29819SOL     OW90034   6.120   3.770   7.530  0.1951 -0.8640  0.3780
29819SOL    HW190035   6.038   3.784   7.576  0.1195  0.8310 -0.2126
29819SOL    HW290036   6.151   3.858   7.508  2.5867 -1.4018  1.2868
29820SOL     OW90037   8.470   1.519   2.802 -0.4604  0.3335  0.2406
29820SOL    HW190038   8.463   1.425   2.785 -1.4574  0.4454 -0.0178
29820SOL    HW290039   8.383   1.545   2.831 -0.4617  1.3637 -0.6317
29821SOL     OW90040   4.348   6.938   3.971  0.8735  0.0216  0.0168
29821SOL    HW190041   4.329   6.851   3.936  1.1656  1.1150 -3.2913
29821SOL    HW290042   4.399   6.922   4.050  0.2548 -2.7699 -0.0357
29822SOL     OW90043   4.781   6.534   8.721  0.3850 -0.0963  0.3559
29822SOL    HW190044   4.754   6.469   8.786  0.1287 -0.6656 -0.3122
29822SOL    HW290045   4.840   6.592   8.769 -0.6625  0.1509  1.3825
29823SOL     OW90046   9.452   6.798   4.536  0.2777  0.1975  0.4454
29823SOL    HW190047   9.535   6.817   4.579  0.4383 -0.1661  0.2959
29823SOL    HW290048   9.411   6.884   4.524  0.3684  0.3288  1.0437
29824SOL     OW90049   2.492   5.551   6.045  0.2219  0.3592  0.0802
29824SOL    HW190050   2.440   5.563   6.124 -0.4400 -1.4220 -0.0209
29824SOL    HW290051   2.535   5.466   6.058  1.2888  0.7476 -0.8265
29825SOL     OW90052   4.152   7.614   4.507  0.1772  0.1963 -0.1364
29825SOL    HW190053   4.158   7.636   4.600 -2.0335  0.6070 -0.0375
29825SOL    HW290054   4.079   7.667   4.475  0.9258  0.0875 -2.1262
29826SOL     OW90055  -0.015   6.851   7.753 -0.1466  0.2528 -0.1555
29826SOL    HW190056   0.051   6.875   7.818 -0.5448 -0.6160  0.5880
29826SOL    HW290057  -0.010   6.920   7.687  0.0607  1.3111  0.9437
29827SOL     OW90058   1.561   9.231   3.000  0.0658 -0.0789  0.1678
29827SOL    HW190059   1.605   9.181   2.931  0.2272  0.6223 -0.2481
29827SOL    HW290060   1.627   9.294   3.029  0.2000 -0.7723  1.3957
29828SOL     OW90061   9.781   6.172   7.263 -0.1405  0.0162  0.2612
29828SOL    HW190062   9.797   6.110   7.191 -1.9491 -0.5875  0.3240
29828SOL    HW290063   9.745   6.117   7.333 -0.4821  0.9437  0.8220
29829SOL     OW90064   3.144   6.027   7.972 -0.1425  0.2197  0.0352
29829SOL    HW190065   3.132   5.939   8.008 -2.3756 -0.4452 -2.0190
29829SOL    HW290066   3.057   6.067   7.978  0.6591  2.0374  0.2228
29830SOL     OW90067   0.573   3.764   9.647 -0.7336  0.3001  0.2358
29830SOL    HW190068   0.552   3.738   9.736 -0.8533 -0.1161  0.0899
29830SOL    HW290069   0.634   3.837   9.656  0.2849 -0.5826  0.6593
29831SOL     OW90070   5.238   8.365   1.209 -0.5969  0.4749  0.2917
29831SOL    HW190071   5.188   8.301   1.159 -2.3349  1.7715  0.2768
29831SOL    HW290072   5.225   8.339   1.300 -0.7041  0.4053  0.2565
29832SOL     OW90073   0.244   8.689   6.444 -0.0477 -0.1404  0.1509
29832SOL    HW190074   0.149   8.680   6.441 -0.0572  0.1833 -0.6561
29832SOL    HW290075   0.262   8.775   6.406  0.4658  0.5232  1.8205
29833SOL     OW90076   4.771   8.423   0.872 -0.0329 -0.4737  0.1246
29833SOL    HW190077   4.800   8.409   0.782  1.7386 -0.1553  0.6067
29833SOL    HW290078   4.809   8.350   0.921 -1.1767 -0.7714  0.6003
29834SOL     OW90079   6.310   6.285   8.285 -0.0984  0.1072 -0.0375
29834SOL    HW190080   6.280   6.303   8.196 -0.0010 -2.7053 -0.7223
29834SOL    HW290081   6.247   6.223   8.320 -0.2944  1.3512  2.0291
29835SOL     OW90082   9.302   2.730   8.540  0.2460  0.1664 -0.0574
29835SOL    HW190083   9.224   2.783   8.559  1.0769  1.0193  1.1284
29835SOL    HW290084   9.275   2.671   8.470 -0.5767  2.4837 -1.7897
29836SOL     OW90085   5.486   3.500   3.814 -0.1411 -0.0157 -0.0769
29836SOL    HW190086   5.398   3.461   3.818 -0.8192  1.5036  0.7193
29836SOL    HW290087   5.480   3.578   3.870  2.5194 -1.3474  2.2738
29837SOL     OW90088   7.126   5.181   6.938 -0.6129  1.1314 -0.3183
29837SOL    HW190089   7.057   5.151   6.996 -1.3825 -0.3041 -1.8790
29837SOL    HW290090   7.111   5.275   6.927 -1.8976  0.9631 -0.0888
29838SOL     OW90091   7.865   5.133   5.104  0.2036  0.0572 -0.0948
29838SOL    HW190092   7.806   5.204   5.077  0.7607  0.4345 -0.3444
29838SOL    HW290093   7.902   5.100   5.023 -0.4660 -0.9076 -0.0256
29839SOL     OW90094   6.577   2.366   0.881  0.0630  0.1289 -0.2842
29839SOL    HW190095   6.488   2.332   0.884  0.7334 -1.7435  0.0250
29839SOL    HW290096   6.598   2.388   0.972  0.5056 -1.1509 -0.0585
29840SOL     OW90097   2.883   6.376   0.707 -0.6374  0.1117  0.0149
29840SOL    HW190098   2.826   6.432   0.655  0.3456 -0.2636 -1.5176
29840SOL    HW290099   2.853   6.389   0.797 -1.9950  1.2333 -0.5584
29841SOL     OW90100   3.426   8.827   1.119 -0.2474  0.2380  0.4620
29841SOL    HW190101   3.402   8.806   1.029 -0.4538 -0.8700  0.7627
29841SOL    HW290102   3.428   8.742   1.164  0.1240  0.7461  1.4348
29842SOL     OW90103   7.859   5.455   1.435  0.0607  0.4905  0.3658
29842SOL    HW190104   7.929   5.437   1.499 -0.4972  0.6831  1.0499
29842SOL    HW290105   7.905   5.485   1.357  0.7622  0.3230  0.7035
29843SOL     OW90106   0.606   0.971   0.199  0.2814  0.2607  0.9074
29843SOL    HW190107   0.670   1.033   0.234  0.1289  1.4113 -0.7454
29843SOL    HW290108   0.523   0.995   0.240 -0.4997  3.4570 -2.0585
29844SOL     OW90109   0.367   0.691   5.708 -0.7051 -0.4166 -0.0599
29844SOL    HW190110   0.376   0.679   5.614  0.9448  1.3401 -0.1883
29844SOL    HW290111   0.423   0.623   5.746  2.1274  1.4439 -0.5462
29845SOL     OW90112   0.599   4.925   7.888  0.6880  0.5666 -0.0961
29845SOL    HW190113   0.682   4.877   7.890 -0.1979 -1.0325 -0.3038
29845SOL    HW290114   0.594   4.969   7.973  0.5525 -1.4658  1.0122
29846SOL     OW90115   1.326   5.931   7.705 -0.4218 -0.1285 -0.0656
29846SOL    HW190116   1.285   5.934   7.792  1.4523  1.4656  0.8309
29846SOL    HW290117   1.351   5.839   7.694 -0.4292 -0.3002  1.2082
29847SOL     OW90118   9.694   2.700   6.942 -0.5652  0.0129  0.3156
29847SOL    HW190119   9.690   2.766   7.011  0.6027  1.1339 -0.6252
29847SOL    HW290120   9.658   2.744   6.865  1.6971  0.1956 -0.7460
29848SOL     OW90121   1.229   6.808   0.844 -0.0799  0.1127 -0.2519
29848SOL    HW190122   1.227   6.778   0.935 -1.2514 -0.8628 -0.5711
29848SOL    HW290123   1.189   6.895   0.846  1.2684  0.7332  0.3668
29849SOL     OW90124   1.202   3.705   1.757 -0.1786  0.0502  0.0715
29849SOL    HW190125   1.277   3.647   1.746  2.3960  2.8352  1.4446
29849SOL    HW290126   1.183   3.703   1.851 -1.7311 -0.4270 -0.2242
29850SOL     OW90127   0.441   1.060   6.218  0.7360  0.1069  0.0177
29850SOL    HW190128   0.375   1.050   6.149  0.4619  0.0178  0.2902
29850SOL    HW290129   0.435   0.979   6.268  2.2442 -0.6680 -0.9694
29851SOL     OW90130   5.889   7.589   6.132  0.5614  0.2428 -0.0665
29851SOL    HW190131   5.939   7.582   6.050  1.5467  0.9421  0.4627
29851SOL    HW290132   5.916   7.513   6.183 -0.4496 -0.4853 -0.5820
29852SOL     OW90133   7.207   5.704   4.169  0.3059  0.3894 -0.1324
29852SOL    HW190134   7.156   5.698   4.250  1.2888  0.3190  0.4959
29852SOL    HW290135   7.208   5.797   4.148 -2.8877  0.1193 -2.0160
29853SOL     OW90136   6.196   2.325   4.544 -0.1528 -0.4352  0.0481
29853SOL    HW190137   6.142   2.332   4.623  0.2069 -2.1532  0.4844
29853SOL    HW290138   6.134   2.300   4.475 -0.2522 -0.2720  0.0781
29854SOL     OW90139   8.584   2.231   7.946  0.3857 -0.7457  0.3354
29854SOL    HW190140   8.633   2.160   7.988  0.9173 -0.6487 -0.1022
29854SOL    HW290141   8.643   2.307   7.953  0.7721 -0.8862 -1.1486
29855SOL     OW90142   1.789   4.046   9.477  0.2322 -0.0752  1.0851
29855SOL    HW190143   1.774   4.141   9.480 -2.9613 -0.4403  0.6917
29855SOL    HW290144   1.819   4.029   9.388 -1.4307  0.4048  0.3836
29856SOL     OW90145   5.243   2.498   1.225 -0.2759 -0.1287 -0.4281
29856SOL    HW190146   5.160   2.538   1.250  0.7647  2.7525 -1.1328
29856SOL    HW290147   5.222   2.444   1.149 -1.7089 -0.6867  0.3183
29857SOL     OW90148   4.057   2.027   1.887  0.0780  0.0061  0.5313
29857SOL    HW190149   4.107   2.108   1.874  0.8522 -0.3930  0.9890
29857SOL    HW290150   3.989   2.031   1.819 -1.8429  2.5101  2.3836
29858SOL     OW90151   4.806   2.973   6.916  0.3834  0.5492  0.1084
29858SOL    HW190152   4.845   2.921   6.986  0.6014  0.3977 -0.1271
29858SOL    HW290153   4.719   2.996   6.949 -0.0021 -0.5748 -0.0796
29859SOL     OW90154   5.957   7.304   0.173 -0.1981  0.3295 -0.0688
29859SOL    HW190155   5.922   7.274   0.089 -0.8044 -1.6678  0.8224
29859SOL    HW290156   6.050   7.317   0.156  0.1175 -2.1149 -0.6146
29860SOL     OW90157   4.390   2.173   3.631 -0.1135  0.0689 -0.4107
29860SOL    HW190158   4.419   2.100   3.576  0.2476  0.3305 -0.5728
29860SOL    HW290159   4.445   2.168   3.708 -0.2670  0.0147 -0.3035
29861SOL     OW90160   0.332   2.871   9.170 -0.5679 -0.1790  0.2802
29861SOL    HW190161   0.356   2.850   9.260 -1.1731 -0.1506  0.4471
29861SOL    HW290162   0.239   2.849   9.163 -0.7393  0.6061 -0.0922
29862SOL     OW90163   4.519   1.587   4.067 -0.4270  0.0152 -0.1038
29862SOL    HW190164   4.442   1.561   4.118 -0.9013 -1.4181 -1.4644
29862SOL    HW290165   4.524   1.522   3.997  3.0394 -0.9426  0.8734
29863SOL     OW90166   4.238   5.493   3.241 -0.0123 -0.3099  0.2606
29863SOL    HW190167   4.267   5.543   3.317  0.8741  0.1169 -0.3447
29863SOL    HW290168   4.166   5.439   3.274  0.3937 -0.1740  1.4119
29864SOL     OW90169   3.288   0.969   4.299  0.3595 -0.1103  0.5871
29864SOL    HW190170   3.339   0.914   4.239 -0.3713  0.4080 -0.5210
29864SOL    HW290171   3.334   0.959   4.383  1.7195 -0.4241 -0.1503
29865SOL     OW90172   6.483   8.784   9.387 -0.0487  0.3795  0.2177
29865SOL    HW190173   6.402   8.750   9.349  0.3570  1.0547 -1.3202
29865SOL    HW290174   6.454   8.835   9.463 -0.9106 -0.7379  0.6662
29866SOL     OW90175   8.055   7.551   6.496  0.2525  0.1614  0.2535
29866SOL    HW190176   8.022   7.476   6.447 -0.3539 -0.5546  1.6819
29866SOL    HW290177   8.150   7.538   6.499  0.3306  0.4050 -0.9947
29867SOL     OW90178   5.076   1.496   5.136 -0.5694  0.1225 -0.4092
29867SOL    HW190179   5.053   1.499   5.043  0.4629 -2.5193 -0.8577
29867SOL    HW290180   5.086   1.402   5.154  0.1917  0.6294  2.1410
29868SOL     OW90181   9.892   9.078   6.812  0.2390  0.1437 -0.2519
29868SOL    HW190182   9.891   9.128   6.730 -0.6585  0.6579  0.0535
29868SOL    HW290183   9.892   8.987   6.784  0.0707  0.3143 -0.8266
29869SOL     OW90184   1.198   7.480   4.050  0.0884 -0.3835  0.0534
29869SOL    HW190185   1.171   7.509   4.137 -2.0016 -2.2169  0.0831
29869SOL    HW290186   1.128   7.508   3.992  1.1721  0.2874 -0.9881
29870SOL     OW90187   7.933   9.196   4.546  0.2596 -0.1507  0.2706
29870SOL    HW190188   7.841   9.225   4.543  0.2039 -0.3242 -2.1788
29870SOL    HW290189   7.973   9.240   4.471  2.1120 -0.4058  1.0672
29871SOL     OW90190   2.365   8.945   0.202  0.5614 -0.3256  0.4388
29871SOL    HW190191   2.427   8.872   0.211  3.2746  1.6507 -0.8472
29871SOL    HW290192   2.337   8.965   0.291  0.2053 -2.4769  0.8692
29872SOL     OW90193   6.042   2.797   2.500  0.0709 -0.5134  0.1417
29872SOL    HW190194   6.017   2.705   2.490  4.3403 -1.7868 -0.7890
29872SOL    HW290195   6.056   2.809   2.593 -0.9516 -0.5837  0.3220
29873SOL     OW90196   9.776   3.609   0.472  0.1752 -0.2781  0.1755
29873SOL    HW190197   9.787   3.683   0.412  0.1690 -0.5021 -0.0992
29873SOL    HW290198   9.859   3.562   0.468  0.6636  0.4383  1.3308
29874SOL     OW90199   0.193   7.667   9.110  0.2274  0.1300 -0.0925
29874SOL    HW190200   0.132   7.694   9.041  0.5669 -1.5469 -1.1113
29874SOL    HW290201   0.280   7.685   9.074  0.3791  1.1924  0.7742
29875SOL     OW90202   0.818   5.920   1.390 -0.5659 -0.4650  0.7162
29875SOL    HW190203   0.791   5.917   1.482  1.3805  0.1029  1.3575
29875SOL    HW290204   0.913   5.934   1.393 -0.7506  1.9858 -1.3722
29876SOL     OW90205   9.428   3.533   7.165  0.2605 -0.7091 -0.1027
29876SOL    HW190206   9.473   3.575   7.238  0.5029 -2.2945  0.7134
29876SOL    HW290207   9.453   3.584   7.088  0.6922  0.4767  0.7986
29877SOL     OW90208   6.044   2.145   8.637 -0.6010  0.3678  0.1279
29877SOL    HW190209   6.135   2.170   8.651 -0.1874 -1.1476  0.3120
29877SOL    HW290210   5.993   2.216   8.677  0.4724  1.3190 -0.1341
29878SOL     OW90211   1.867   8.529   2.927  0.2552  0.4734 -0.0939
29878SOL    HW190212   1.801   8.538   2.996 -0.5992 -1.2183 -0.6262
29878SOL    HW290213   1.895   8.619   2.908 -1.4016  1.1855  0.6418
29879SOL     OW90214   1.526   5.655   7.982  0.2948  0.7590  0.3587
29879SOL    HW190215   1.565   5.622   8.063  0.6796  1.7145  0.5854
29879SOL    HW290216   1.545   5.749   7.984 -0.5691  0.9563 -0.3578
29880SOL     OW90217   0.820   3.930   6.528  0.1592 -0.1368 -0.0611
29880SOL    HW190218   0.886   3.893   6.469 -1.3086 -0.3571 -1.6654
29880SOL    HW290219   0.775   3.854   6.565  0.1869  0.0188  0.2968
29881SOL     OW90220   4.281   1.688   3.150  0.5754  0.5979  0.7893
29881SOL    HW190221   4.267   1.781   3.129  0.0932  0.5644  0.9509
29881SOL    HW290222   4.216   1.669   3.217  0.7350  0.1642  0.8207
29882SOL     OW90223   9.532   5.384   6.661  0.2850  0.3865 -0.2501
29882SOL    HW190224   9.610   5.393   6.606  1.8651 -0.1913  1.7809
29882SOL    HW290225   9.501   5.474   6.672  0.7773  0.6508 -0.9149
29883SOL     OW90226   2.285   6.954   9.789 -0.2346  0.4335  0.0474
29883SOL    HW190227   2.318   6.892   9.724 -0.1740 -1.0448  1.4280
29883SOL    HW290228   2.213   6.908   9.832  1.4783  0.1971  2.9145
29884SOL     OW90229   2.813   7.823   9.348  0.1837 -0.4377  0.4064
29884SOL    HW190230   2.778   7.908   9.321 -1.0331 -1.1638 -0.4052
29884SOL    HW290231   2.878   7.844   9.416 -0.2402  1.1131  0.3673
29885SOL     OW90232   9.321   8.954   0.679 -0.1633 -0.1613 -0.5538
29885SOL    HW190233   9.409   8.938   0.714  0.5206 -1.7796 -2.8097
29885SOL    HW290234   9.274   8.873   0.696 -1.4205  0.8321  0.9960
29886SOL     OW90235   7.075   8.955   2.045 -0.6851  0.0748  0.5506
29886SOL    HW190236   7.083   9.044   2.081 -0.6352  0.6680 -0.8640
29886SOL    HW290237   7.165   8.924   2.035 -0.6138  0.6124 -0.6806
29887SOL     OW90238   7.153   6.293   9.275 -0.0457  0.5755 -0.0133
29887SOL    HW190239   7.179   6.235   9.203  1.0421  0.0678  0.7676
29887SOL    HW290240   7.184   6.380   9.249  2.6347 -0.0252  0.9306
29888SOL     OW90241   8.916   3.702   7.004  0.2486  0.2364 -0.2904
29888SOL    HW190242   8.861   3.676   7.078  0.7578 -2.5077 -0.7655
29888SOL    HW290243   8.887   3.790   6.982 -0.1091  1.0373  2.9676
29889SOL     OW90244   3.849   0.564   6.242 -0.3637  0.3270  0.3596
29889SOL    HW190245   3.806   0.599   6.320  0.1349 -0.0821  0.8205
29889SOL    HW290246   3.868   0.641   6.189 -0.0366  0.6800  0.9802
29890SOL     OW90247   4.742   0.108   4.386 -0.5532  0.6341  0.1795
29890SOL    HW190248   4.812   0.094   4.323  0.0012 -2.1145  1.2735
29890SOL    HW290249   4.663   0.120   4.333  0.1793  0.2471 -1.0277
29891SOL     OW90250   5.481   4.255   3.095  0.6960  0.4164 -0.6728
29891SOL    HW190251   5.562   4.242   3.145 -1.3984 -1.5150  2.5608
29891SOL    HW290252   5.477   4.180   3.036  1.2903  0.5455 -0.8798
29892SOL     OW90253   9.276   0.928   6.698  0.0912 -0.3041  0.1409
29892SOL    HW190254   9.357   0.960   6.659 -0.0717 -0.3937 -0.2678
29892SOL    HW290255   9.228   0.888   6.626  0.4914 -1.8857  0.7168
29893SOL     OW90256   6.944   9.106   0.479 -0.3945 -0.1010  0.0701
29893SOL    HW190257   6.928   9.053   0.557 -1.0531 -1.6067 -1.0457
29893SOL    HW290258   6.881   9.074   0.415  0.2626  0.9702 -1.1607
29894SOL     OW90259   3.527   6.714   2.618 -0.5614  0.0978 -0.2375
29894SOL    HW190260   3.544   6.651   2.548 -1.8656 -0.4494 -0.0926
29894SOL    HW290261   3.512   6.660   2.695  1.6116  0.7117  0.6891
29895SOL     OW90262   6.884   6.774   5.945  0.0655  0.7362 -0.6301
29895SOL    HW190263   6.848   6.831   5.876 -0.0568 -0.4380 -1.5668
29895SOL    HW290264   6.877   6.826   6.025 -1.1831  1.5755 -1.2536
29896SOL     OW90265   5.620   9.579   4.137 -0.2957 -0.3570 -0.0546
29896SOL    HW190266   5.684   9.645   4.165  0.7814 -1.2200 -0.4476
29896SOL    HW290267   5.606   9.597   4.044 -0.1430 -0.5743 -0.1188
29897SOL     OW90268   0.722   4.064   3.035  0.4523 -0.8170  0.6818
29897SOL    HW190269   0.746   3.995   2.973 -1.5336 -0.7434 -0.2740
29897SOL    HW290270   0.646   4.029   3.082 -1.6678  1.1945 -0.9653
29898SOL     OW90271   2.131   0.891   8.103  0.6244  0.2215  0.2762
29898SOL    HW190272   2.154   0.984   8.107 -1.1421  0.6960  0.1319
29898SOL    HW290273   2.063   0.880   8.169  1.4728 -1.2041  0.9486
29899SOL     OW90274   3.145   0.848   7.364  0.2545  0.8811  0.0022
29899SOL    HW190275   3.118   0.939   7.351 -0.0542  0.9086  0.7643
29899SOL    HW290276   3.226   0.854   7.415  2.5652  0.8480 -3.3265
29900SOL     OW90277   3.151   7.667   4.596 -0.2081  0.1025 -0.1788
29900SOL    HW190278   3.058   7.687   4.597 -0.7174 -1.5922 -2.8676
29900SOL    HW290279   3.156   7.576   4.626  0.6965  0.4190  0.6850
29901SOL     OW90280   8.052   5.998   9.782 -0.8390  0.0288  0.4759
29901SOL    HW190281   8.093   6.081   9.805 -1.6202  0.1424  1.5243
29901SOL    HW290282   8.125   5.943   9.754 -0.2697  0.9460  0.1060
29902SOL     OW90283   1.413   5.851   5.802  0.0351  0.1881  0.4568
29902SOL    HW190284   1.427   5.921   5.866  0.5637  0.1410  0.3979
29902SOL    HW290285   1.430   5.891   5.717  1.6321 -0.3139  0.5027
29903SOL     OW90286   0.632   3.441   9.656  0.0403  0.2510 -0.8211
29903SOL    HW190287   0.695   3.498   9.699  1.1590 -3.7885  3.9224
29903SOL    HW290288   0.674   3.416   9.574  4.1483 -0.9336  1.3446
29904SOL     OW90289   2.734   2.364   8.727 -0.4806  0.2302 -0.0910
29904SOL    HW190290   2.718   2.457   8.743 -0.4545  0.2554 -0.2140
29904SOL    HW290291   2.661   2.319   8.769  0.3984  0.2035  1.5287
29905SOL     OW90292   8.313   2.713   2.186  0.1577 -0.1829 -0.3020
29905SOL    HW190293   8.227   2.753   2.172 -0.3412 -0.9586  0.4657
29905SOL    HW290294   8.372   2.787   2.199 -0.6732  0.3243  0.6780
29906SOL     OW90295   8.834   9.123   6.153  0.4684 -0.2110 -0.6637
29906SOL    HW190296   8.838   9.027   6.162  0.9024 -0.2505 -1.2212
29906SOL    HW290297   8.795   9.137   6.067 -0.4009  0.1293 -0.2325
29907SOL     OW90298   4.732   9.388   6.517 -0.3058  0.0185 -0.0812
29907SOL    HW190299   4.672   9.418   6.450 -1.9489  0.1187  1.3716
29907SOL    HW290300   4.686   9.402   6.600  2.2778  1.5177  1.2628
29908SOL     OW90301   9.457   0.139   2.312  0.2107 -0.1102  0.3723
29908SOL    HW190302   9.454   0.045   2.328  0.1027 -0.4559 -1.4798
29908SOL    HW290303   9.455   0.178   2.399 -0.5608 -1.7927  1.1570
29909SOL     OW90304   2.254   1.855   2.797 -0.2507 -0.0015 -0.1344
29909SOL    HW190305   2.191   1.816   2.858 -0.6864 -0.0731 -0.6233
29909SOL    HW290306   2.231   1.817   2.712  0.9186 -0.6050 -0.2093
29910SOL     OW90307   0.712   9.713   2.983 -0.2078  0.1666 -0.4029
29910SOL    HW190308   0.720   9.725   3.077  0.2808  0.8721 -0.5272
29910SOL    HW290309   0.778   9.771   2.945 -1.3667  0.9938 -1.2401
29911SOL     OW90310   7.112   1.658   2.678 -0.3205  0.2940  0.0718
29911SOL    HW190311   7.088   1.748   2.655 -0.2844  0.1841 -0.4059
29911SOL    HW290312   7.127   1.661   2.773  0.3354  0.9404 -0.0377
29912SOL     OW90313   4.695   0.215   9.053  0.2737  0.0050 -0.0862
29912SOL    HW190314   4.703   0.234   8.959  2.3505  0.1114  0.0799
29912SOL    HW290315   4.606   0.243   9.075  0.3309  1.5967 -1.6556
29913SOL     OW90316   3.268   3.643   4.558 -1.0393 -0.3999 -0.0045
29913SOL    HW190317   3.258   3.685   4.473 -0.1937 -0.4060 -0.1204
29913SOL    HW290318   3.305   3.711   4.614  1.1298 -1.1627 -0.4054
29914SOL     OW90319   4.445   1.320   7.157 -0.1009 -0.1796 -0.0238
29914SOL    HW190320   4.537   1.346   7.165 -0.5351  1.0779  1.3913
29914SOL    HW290321   4.439   1.238   7.207  0.1436  0.0082  0.3160
29915SOL     OW90322   4.216   0.485   6.037  0.3434 -0.0110 -0.2464
29915SOL    HW190323   4.167   0.443   5.966 -0.1845 -1.5746  0.9816
29915SOL    HW290324   4.152   0.495   6.108  0.9405  1.2167  0.1609
29916SOL     OW90325   9.714   8.073   9.431  0.1493 -0.5835  0.0141
29916SOL    HW190326   9.788   8.119   9.392  0.1824  1.0561  1.8772
29916SOL    HW290327   9.675   8.136   9.493 -0.8507 -2.4685  1.4318
29917SOL     OW90328   9.516   5.505   5.636  0.1388  0.7436 -0.1573
29917SOL    HW190329   9.422   5.498   5.655  0.2229  0.1875  0.0551
29917SOL    HW290330   9.558   5.454   5.705  0.5570  0.3461 -0.7109
29918SOL     OW90331   2.084   9.311   1.151  0.2217  0.1114 -0.4816
29918SOL    HW190332   2.046   9.302   1.063 -0.1482 -1.2760 -0.2001
29918SOL    HW290333   2.178   9.302   1.137  0.1883  0.1853 -0.7642
29919SOL     OW90334   5.341   8.841   3.854  0.1017 -0.3999 -0.4866
29919SOL    HW190335   5.374   8.905   3.792 -0.6349  1.4507  0.9450
29919SOL    HW290336   5.413   8.828   3.916 -0.3247  0.4284  0.2170
29920SOL     OW90337   1.631   4.244   0.556  0.4776 -0.1585  0.3034
29920SOL    HW190338   1.596   4.157   0.539  1.8540 -0.8771  1.0561
29920SOL    HW290339   1.587   4.300   0.491 -1.9572 -0.9965  1.1095
29921SOL     OW90340   9.922   1.139   4.173 -0.2633 -0.3426 -0.0176
29921SOL    HW190341   9.888   1.105   4.091 -0.9649 -0.7422  0.4207
29921SOL    HW290342   9.864   1.212   4.195 -0.5632 -0.7321  0.5050
29922SOL     OW90343   6.039   1.675   4.761  0.1110  1.1936 -0.1151
29922SOL    HW190344   6.012   1.723   4.683 -1.0648  0.5742 -0.1025
29922SOL    HW290345   6.026   1.738   4.833 -2.3078  0.6376  0.0235
29923SOL     OW90346   2.671   4.666   8.861  0.1780  0.0596  0.1612
29923SOL    HW190347   2.639   4.592   8.810  1.0088  1.7339 -2.9970
29923SOL    HW290348   2.599   4.688   8.920 -1.1956 -1.3961 -0.9245
29924SOL     OW90349   1.303   0.715   8.029 -0.1681  0.1688 -0.1157
29924SOL    HW190350   1.298   0.767   7.948 -0.9517  1.2284  0.5936
29924SOL    HW290351   1.304   0.624   7.998 -0.9122  0.5389 -1.3137
29925SOL     OW90352   2.217   5.470   8.659  0.0050  0.0539  0.5268
29925SOL    HW190353   2.253   5.510   8.738  1.3872 -0.1483  0.0119
29925SOL    HW290354   2.219   5.539   8.594 -1.3403  0.2861  0.6939
29926SOL     OW90355   6.628   2.155   5.042 -0.3987  0.6031 -0.0908
29926SOL    HW190356   6.557   2.193   4.990 -0.1131  1.8843  0.4309
29926SOL    HW290357   6.610   2.061   5.040 -2.2069  0.8943  0.1453
29927SOL     OW90358   7.831   0.449   6.077 -0.0645 -0.1796 -0.1390
29927SOL    HW190359   7.756   0.464   6.135 -0.2380  0.8348 -0.6048
29927SOL    HW290360   7.792   0.436   5.991  0.1792 -1.9085 -0.0230
29928SOL     OW90361   0.059   3.444   2.775  0.2810  0.0849  0.3793
29928SOL    HW190362   0.000   3.471   2.704  1.3599 -1.2537 -1.1233
29928SOL    HW290363   0.082   3.525   2.820  0.8602  1.2741 -1.8837
29929SOL     OW90364   9.139   1.717   7.465  0.1364 -0.3059  0.4161
29929SOL    HW190365   9.147   1.621   7.467  2.2150 -0.1719  1.0401
29929SOL    HW290366   9.229   1.748   7.459 -0.5736  1.5915 -3.2032
29930SOL     OW90367   4.147   5.242   0.101 -0.0962 -0.2335  0.3170
29930SOL    HW190368   4.136   5.163   0.049  2.1231  0.2191 -0.9822
29930SOL    HW290369   4.115   5.313   0.045 -0.6319 -0.0509  0.8462
29931SOL     OW90370   3.029   6.351   1.604  0.3278 -0.4588 -0.5089
29931SOL    HW190371   3.091   6.281   1.623  0.1289 -0.3062  0.8209
29931SOL    HW290372   3.025   6.402   1.685 -1.4005 -0.3670 -0.6237
29932SOL     OW90373   6.869   9.335   9.090 -0.8243  0.3421  0.6165
29932SOL    HW190374   6.800   9.399   9.108 -0.6644  0.6771  0.0279
29932SOL    HW290375   6.848   9.262   9.148 -1.7191  0.4109  0.3982
29933SOL     OW90376   3.556   2.928   3.374 -0.2003 -0.1376  0.4678
29933SOL    HW190377   3.526   2.929   3.465 -0.4400 -2.0850  0.4523
29933SOL    HW290378   3.487   2.973   3.325 -0.4864  0.1599  1.1382
29934SOL     OW90379   3.825   5.848   9.516 -0.2480 -0.0595  0.5126
29934SOL    HW190380   3.866   5.825   9.432  1.2843  2.8384  0.3617
29934SOL    HW290381   3.896   5.845   9.580 -1.2164 -1.3110  1.5872
29935SOL     OW90382   3.355   8.221   6.659  0.3212  0.1802  0.1934
29935SOL    HW190383   3.287   8.223   6.591  1.0471  0.7432 -0.5294
29935SOL    HW290384   3.416   8.290   6.633  0.9750 -0.0718  1.0437
29936SOL     OW90385   3.709   3.995   9.884 -0.6955 -0.1697 -0.1354
29936SOL    HW190386   3.652   4.058   9.839  0.4903 -0.2564 -1.8523
29936SOL    HW290387   3.780   4.048   9.920  0.4548 -0.4875 -1.8235
29937SOL     OW90388   2.441   8.194   7.157  0.1684 -0.0789 -0.1900
29937SOL    HW190389   2.530   8.192   7.122 -0.2323 -0.3139 -1.2241
29937SOL    HW290390   2.384   8.194   7.080 -0.7709 -1.8224  0.4387
29938SOL     OW90391   0.454   8.133   5.886 -0.4542  0.3019 -0.5260
29938SOL    HW190392   0.401   8.066   5.929 -0.1560 -0.3496 -1.1353
29938SOL    HW290393   0.463   8.102   5.796 -0.3515  1.1999 -0.8365
29939SOL     OW90394   6.429   2.400   2.848 -0.2754  0.5502  0.1309
29939SOL    HW190395   6.472   2.392   2.763 -1.1794 -0.9038 -0.2141
29939SOL    HW290396   6.398   2.312   2.868  0.0333  0.8354  2.0492
29940SOL     OW90397   5.822   0.602   6.717  0.5401 -0.7152 -0.1488
29940SOL    HW190398   5.792   0.532   6.775  0.3403  0.5353  1.3377
29940SOL    HW290399   5.742   0.642   6.684  0.6258 -0.4567 -0.0502
29941SOL     OW90400   4.222   7.811   9.786  0.1875 -0.1308 -0.3125
29941SOL    HW190401   4.126   7.809   9.784  0.1603  0.2790  0.2474
29941SOL    HW290402   4.243   7.817   9.879  0.7244  1.1199 -0.5026
29942SOL     OW90403   3.837   7.477   3.931  0.0682 -0.3069  0.0596
29942SOL    HW190404   3.890   7.555   3.949 -0.0762 -0.4593  1.2087
29942SOL    HW290405   3.823   7.437   4.017 -0.7383 -1.0349 -0.3969
29943SOL     OW90406   0.986   5.627   2.637  0.6326 -0.1025 -0.5549
29943SOL    HW190407   1.025   5.712   2.659  1.1473 -0.5311  0.2490
29943SOL    HW290408   1.031   5.565   2.695 -1.3934 -0.6002  0.5835
29944SOL     OW90409   9.957   2.823   9.919 -0.2947  0.0370 -0.2775
29944SOL    HW190410   9.970   2.750   9.979 -2.3378 -0.8444 -0.7974
29944SOL    HW290411   9.927   2.781   9.838 -0.0062  1.3585 -1.0909
29945SOL     OW90412   8.653   9.323   5.517  0.1491  0.3484  0.1710
29945SOL    HW190413   8.722   9.322   5.583  1.4369 -0.2698 -1.1378
29945SOL    HW290414   8.664   9.240   5.470  1.0279  1.9188 -2.5747
29946SOL     OW90415   8.267   7.065   6.919  0.0100 -0.5361 -0.3849
29946SOL    HW190416   8.228   7.152   6.925  0.3569 -0.2593 -1.8171
29946SOL    HW290417   8.193   7.005   6.929  0.0386 -0.1893  2.8124
29947SOL     OW90418   5.398   8.260   5.369 -0.0555  0.3042 -0.1848
29947SOL    HW190419   5.348   8.191   5.413 -0.3746  0.3990 -0.3979
29947SOL    HW290420   5.413   8.325   5.437 -0.1900  0.2593 -0.1124
29948SOL     OW90421   7.277   9.165   6.970 -0.4239  0.1458  0.5964
29948SOL    HW190422   7.312   9.089   7.016 -1.8168  0.2499  1.8819
29948SOL    HW290423   7.221   9.209   7.034 -0.5580  1.6227 -0.4789
29949SOL     OW90424   0.838   5.930   7.141  0.3781 -0.4967 -0.2201
29949SOL    HW190425   0.810   5.866   7.075  2.1520 -0.0248 -1.5021
29949SOL    HW290426   0.760   5.982   7.158 -0.3233 -1.1310 -1.3641
29950SOL     OW90427   7.296   2.455   0.973 -0.3167 -0.3005 -0.3420
29950SOL    HW190428   7.249   2.498   0.901 -2.2681  0.5173  1.3430
29950SOL    HW290429   7.237   2.385   1.001  0.4281 -0.6108  0.4787
29951SOL     OW90430   5.471   3.708   4.631  0.6075  0.4971  0.2003
29951SOL    HW190431   5.391   3.661   4.656 -0.1490  1.7317  0.1781
29951SOL    HW290432   5.475   3.698   4.536 -0.2440  1.5140  0.0441
29952SOL     OW90433   4.826   9.796   9.411  0.6917  0.2782  0.0371
29952SOL    HW190434   4.747   9.837   9.448  2.2596  2.5185  1.2168
29952SOL    HW290435   4.842   9.845   9.330  1.1846  0.2626  0.1242
29953SOL     OW90436   6.869   0.617   2.928 -0.7840 -0.1021 -0.1872
29953SOL    HW190437   6.940   0.676   2.952  1.0046 -1.5565 -1.6044
29953SOL    HW290438   6.860   0.558   3.004 -1.4192  0.8938  0.5331
29954SOL     OW90439   7.763   0.487   1.873 -0.5159 -0.1520 -0.5577
29954SOL    HW190440   7.716   0.529   1.801 -3.5566 -1.0170  0.7764
29954SOL    HW290441   7.725   0.524   1.952  1.7723 -0.2353  0.6580
29955SOL     OW90442   5.434   0.529   0.910  0.0035  0.2949 -0.3308
29955SOL    HW190443   5.527   0.550   0.902  0.2078 -0.2716  0.4336
29955SOL    HW290444   5.432   0.439   0.944 -0.7491  1.5265  3.3161
29956SOL     OW90445   1.012   7.199   2.837  0.6088 -0.0682  0.2653
29956SOL    HW190446   1.094   7.247   2.826  1.3402 -1.3493 -0.1064
29956SOL    HW290447   0.962   7.220   2.758  0.7137  0.4406  0.3288
29957SOL     OW90448   4.331   0.496   4.781 -0.7459  0.5563  0.4652
29957SOL    HW190449   4.339   0.476   4.688  0.0612  2.2979  0.1053
29957SOL    HW290450   4.384   0.429   4.825 -0.1169  0.4414 -0.4397
29958SOL     OW90451   2.626   1.507   8.763 -0.3510  0.0260  0.1024
29958SOL    HW190452   2.712   1.549   8.766 -0.0103 -0.4850 -1.3897
29958SOL    HW290453   2.567   1.577   8.734 -0.1578  0.0045 -0.3515
29959SOL     OW90454   2.830   9.489   4.439  0.0325 -0.3627 -0.3536
29959SOL    HW190455   2.836   9.488   4.343 -2.7033 -0.4398 -0.6254
29959SOL    HW290456   2.791   9.574   4.459 -2.0717 -1.4218  0.3703
29960SOL     OW90457   1.104   3.506   1.200 -0.5493 -0.4343 -0.2360
29960SOL    HW190458   1.138   3.501   1.290 -0.2146 -1.6776 -0.4133
29960SOL    HW290459   1.147   3.433   1.155 -0.9131  0.0281 -1.3444
29961SOL     OW90460   0.543   9.271   3.840 -0.0296 -0.3613 -0.1370
29961SOL    HW190461   0.486   9.322   3.897 -0.3236 -0.0316 -0.7104
29961SOL    HW290462   0.489   9.195   3.814  0.3616 -0.9007  0.6120
29962SOL     OW90463   3.710   8.268   6.469  0.3062  0.0422  0.1075
29962SOL    HW190464   3.701   8.175   6.448  1.4619 -0.0096 -0.2207
29962SOL    HW290465   3.738   8.270   6.560  0.3478  0.0592  0.0949
29963SOL     OW90466   3.319   2.570   8.870 -0.1017  0.2838 -0.6325
29963SOL    HW190467   3.387   2.514   8.907 -0.3592  1.0024  1.0203
29963SOL    HW290468   3.365   2.631   8.813  0.4121 -0.3267 -0.8794
29964SOL     OW90469   0.563   6.960   5.422 -0.6396 -0.0409 -0.1005
29964SOL    HW190470   0.534   6.869   5.432 -0.7868 -0.2777 -2.3233
29964SOL    HW290471   0.530   6.987   5.337  1.4539  1.3175 -0.5585
29965SOL     OW90472   7.080   5.645   9.461 -0.3810 -0.2585 -0.0595
29965SOL    HW190473   6.990   5.617   9.478 -1.2703  2.1588 -0.4605
29965SOL    HW290474   7.101   5.704   9.532  1.0808 -1.0892  0.2428
29966SOL     OW90475   5.171   3.872   7.414  0.7410 -0.6207  0.3038
29966SOL    HW190476   5.247   3.818   7.433  1.5812  0.0352 -1.0490
29966SOL    HW290477   5.202   3.962   7.421 -0.3099 -0.2955  1.2240
29967SOL     OW90478   7.305   6.459   1.269  0.4892 -0.6131  0.4251
29967SOL    HW190479   7.331   6.550   1.258  1.4310 -0.8533  0.5237
29967SOL    HW290480   7.234   6.461   1.332 -0.4856  0.1787 -0.6467
29968SOL     OW90481   2.429   9.716   2.730 -0.1432 -0.6071 -0.6056
29968SOL    HW190482   2.384   9.699   2.647 -0.0050 -0.1504 -0.7778
29968SOL    HW290483   2.512   9.668   2.722  1.0501  1.5026 -1.8274
29969SOL     OW90484   3.159   1.354   6.036  0.8527 -0.7427  1.1188
29969SOL    HW190485   3.231   1.313   6.085  3.7283  0.7632 -1.5045
29969SOL    HW290486   3.158   1.445   6.066  0.4033 -0.6085  0.7123
29970SOL     OW90487   9.318   7.708   4.251 -0.4080  0.0941 -0.3489
29970SOL    HW190488   9.336   7.658   4.171 -2.2124  0.0826 -0.7807
29970SOL    HW290489   9.339   7.647   4.322  1.2396  0.1145 -0.7711
29971SOL     OW90490   0.186   4.835   0.768  0.1767  0.5315  0.5734
29971SOL    HW190491   0.240   4.758   0.754 -0.6264 -0.1063  0.8656
29971SOL    HW290492   0.238   4.891   0.826  1.9346  1.5101 -1.8274
29972SOL     OW90493   7.495   7.807   4.814  0.0523  0.4674  0.0176
29972SOL    HW190494   7.400   7.799   4.803  0.1943 -0.0205 -0.9494
29972SOL    HW290495   7.510   7.787   4.907 -0.9627  2.3662  0.6579
29973SOL     OW90496   3.834   5.593   0.912  0.6700 -0.1840 -0.1590
29973SOL    HW190497   3.858   5.666   0.969  0.2327 -0.0832 -0.1053
29973SOL    HW290498   3.862   5.515   0.961  3.2443 -0.0063 -1.1853
29974SOL     OW90499   4.990   7.599   6.777  0.6279  0.4773  0.3208
29974SOL    HW190500   4.921   7.587   6.713  0.2168  0.7330  0.7085
29974SOL    HW290501   4.956   7.558   6.857  1.7886 -1.2743 -0.0405
29975SOL     OW90502   1.107   0.134   2.098  0.4611 -0.4567  0.3859
29975SOL    HW190503   1.055   0.083   2.160 -0.5179  0.4034  0.2927
29975SOL    HW290504   1.104   0.084   2.017 -0.1930 -0.4318  0.3928
29976SOL     OW90505   9.922   1.534   6.889  0.1612  0.3345  0.3047
29976SOL    HW190506   9.990   1.586   6.932  0.9996  0.9720 -1.6946
29976SOL    HW290507   9.951   1.527   6.798 -0.4559 -2.7673  0.2367
29977SOL     OW90508   7.668   3.762   2.371 -0.0176  0.0651 -0.5444
29977SOL    HW190509   7.592   3.812   2.400  0.6873  0.4461  0.7253
29977SOL    HW290510   7.653   3.747   2.277 -1.0359  1.2084 -0.5840
29978SOL     OW90511   2.866   5.882   5.697 -0.1574 -0.1173 -0.0825
29978SOL    HW190512   2.879   5.971   5.732  0.6213  0.0433 -0.7599
29978SOL    HW290513   2.785   5.887   5.647  2.1752  1.5679 -4.2042
29979SOL     OW90514   3.485   8.404   5.175 -0.5876 -0.1276  0.2042
29979SOL    HW190515   3.555   8.364   5.226 -0.9199 -3.0844 -1.4604
29979SOL    HW290516   3.405   8.375   5.218 -0.8224 -0.5110 -0.4823
29980SOL     OW90517   5.693   8.724   8.430 -0.1096 -0.5049  0.5668
29980SOL    HW190518   5.599   8.740   8.434 -0.1132 -0.7424  1.9612
29980SOL    HW290519   5.700   8.629   8.416 -0.1077 -0.8179  2.4475
29981SOL     OW90520   3.162   7.775   7.048  0.2924 -0.5745  0.5511
29981SOL    HW190521   3.157   7.717   7.123 -1.6485 -1.0525  0.1176
29981SOL    HW290522   3.234   7.741   6.995  0.3280 -1.4956  1.1763
29982SOL     OW90523   4.943   9.195   8.636  0.3988 -0.3970 -0.3980
29982SOL    HW190524   4.970   9.136   8.566  3.5752  2.7902 -2.1899
29982SOL    HW290525   5.018   9.199   8.694 -0.2808  0.8115  0.4389
29983SOL     OW90526   1.772   3.227   4.524  0.1161 -0.1053 -0.2405
29983SOL    HW190527   1.712   3.252   4.455 -1.1656 -1.5456  0.2888
29983SOL    HW290528   1.821   3.153   4.488  1.6022  1.0449 -0.6612
29984SOL     OW90529   6.081   0.190   3.730 -0.1331 -0.2066  0.0478
29984SOL    HW190530   6.163   0.230   3.703 -0.5780  0.4437 -0.3760
29984SOL    HW290531   6.029   0.186   3.650 -0.4102 -0.8819  0.2533
29985SOL     OW90532   7.185   1.123   2.049 -0.4211  0.7539  0.0896
29985SOL    HW190533   7.134   1.144   1.971 -1.6683 -0.3719  0.5602
29985SOL    HW290534   7.165   1.031   2.067  2.8142 -0.1816 -0.4585
29986SOL     OW90535   5.193   6.043   3.261  0.3262 -0.0217 -0.5472
29986SOL    HW190536   5.113   6.092   3.283  1.5778  1.3756  1.1877
29986SOL    HW290537   5.219   6.077   3.176 -1.2011 -0.9140 -1.4093
29987SOL     OW90538   7.859   2.166   7.303  0.5403 -0.1669  0.3061
29987SOL    HW190539   7.806   2.107   7.249  1.4920  0.4773 -1.3850
29987SOL    HW290540   7.923   2.203   7.243  0.1777  2.3816  1.3855
29988SOL     OW90541   9.623   3.562   0.885  0.2872 -0.9858  0.0975
29988SOL    HW190542   9.716   3.546   0.865  0.4154  0.6406 -0.8309
29988SOL    HW290543   9.624   3.643   0.936 -0.6531 -0.5890 -0.4901
29989SOL     OW90544   5.525   3.986   4.737 -0.3897 -0.6261 -0.1207
29989SOL    HW190545   5.471   4.023   4.668  2.4348  0.2244 -2.0669
29989SOL    HW290546   5.541   3.895   4.710 -2.2295 -1.4932  1.4298
29990SOL     OW90547   9.345   6.638   8.151 -0.5190  0.0234 -0.3408
29990SOL    HW190548   9.339   6.570   8.083 -3.6201  1.5107 -1.7848
29990SOL    HW290549   9.436   6.667   8.148  0.3163 -2.4425 -1.3104
29991SOL     OW90550   7.177   1.668   3.084  0.0978 -0.3299 -0.1665
29991SOL    HW190551   7.131   1.592   3.049  1.1768 -1.2202  0.2880
29991SOL    HW290552   7.210   1.639   3.169  3.0422 -0.3913 -1.2085
29992SOL     OW90553   0.242   1.236   6.375 -0.3202  0.7360  0.3311
29992SOL    HW190554   0.245   1.327   6.346  0.8305  0.7610  0.4630
29992SOL    HW290555   0.282   1.186   6.304 -0.0978  0.4511  0.6479
29993SOL     OW90556   9.625   8.679   5.090  0.1483  0.2808  0.6644
29993SOL    HW190557   9.544   8.722   5.118 -0.7460  0.1918 -1.5814
29993SOL    HW290558   9.601   8.630   5.012  2.7532  1.8751 -1.2977
29994SOL     OW90559   0.407   4.520   9.471  1.0326 -0.2692  0.4687
29994SOL    HW190560   0.398   4.598   9.526  2.7050 -0.4283  1.0347
29994SOL    HW290561   0.441   4.554   9.388  2.3013 -0.4246  0.9055
29995SOL     OW90562   9.459   2.142   4.556  0.0519 -0.7662 -0.0107
29995SOL    HW190563   9.538   2.121   4.507 -0.4694 -0.6615 -0.9043
29995SOL    HW290564   9.409   2.060   4.560 -0.5222 -0.4663 -0.8053
29996SOL     OW90565   7.201   6.093   9.047  0.2638 -0.3612 -0.1599
29996SOL    HW190566   7.265   6.026   9.023 -0.4287 -1.0612 -0.0593
29996SOL    HW290567   7.143   6.050   9.109 -0.2354  0.3169 -0.1461
29997SOL     OW90568   4.521   5.146   9.165 -0.0922  0.4896 -0.7443
29997SOL    HW190569   4.536   5.194   9.084 -1.8511  0.2226 -1.2880
29997SOL    HW290570   4.583   5.073   9.161  0.9215  1.3443 -1.0748
29998SOL     OW90571   5.302   0.737   7.227  0.0895  0.4344 -0.4323
29998SOL    HW190572   5.229   0.761   7.285 -1.0227 -2.0414 -0.6698
29998SOL    HW290573   5.260   0.716   7.144  1.5034  2.2701 -1.6927
29999SOL     OW90574   2.480   6.076   5.357 -0.1441  0.4630  0.0107
29999SOL    HW190575   2.452   5.993   5.319  0.6728 -1.0619  2.5087
29999SOL    HW290576   2.506   6.054   5.446  1.2884  3.2011  0.3740
30000SOL     OW90577   6.649   8.566   0.411 -0.0025  0.1245 -0.1485
30000SOL    HW190578   6.612   8.535   0.493 -0.8486 -1.0777 -0.9561
30000SOL    HW290579   6.575   8.566   0.350  0.5897  1.0822 -0.8955
30001SOL     OW90580   8.015   7.239   7.599 -0.2246 -0.2664 -0.4664
30001SOL    HW190581   8.074   7.311   7.619  0.1785 -0.7584  0.1577
30001SOL    HW290582   7.935   7.281   7.568 -0.0999  0.4594  0.1635
30002SOL     OW90583   7.893   9.917   3.882 -0.2420  0.0419  0.2780
30002SOL    HW190584   7.803   9.948   3.891 -0.0460  1.7272 -2.3586
30002SOL    HW290585   7.917   9.941   3.792  2.6536 -0.8709  0.7194
30003SOL     OW90586   4.532   3.623   8.156  0.3598 -0.6456  0.3215
30003SOL    HW190587   4.485   3.609   8.074 -1.7979  0.6589  1.2380
30003SOL    HW290588   4.543   3.535   8.193 -0.4350 -1.0767 -0.4274
30004SOL     OW90589   3.124   2.615   9.216  0.0525  0.2119  0.4181
30004SOL    HW190590   3.136   2.636   9.308 -0.2172 -1.2480  0.8178
30004SOL    HW290591   3.170   2.532   9.204  0.5047  0.6199 -0.8909
30005SOL     OW90592   8.239   6.207   4.677 -0.3877  0.3364 -0.0731
30005SOL    HW190593   8.253   6.256   4.596  1.8152  0.9196  0.5882
30005SOL    HW290594   8.282   6.260   4.745  0.3971 -1.5585  0.9804
30006SOL     OW90595   0.525   2.919   5.837 -0.0225  0.5662  0.9946
30006SOL    HW190596   0.572   3.000   5.857 -0.3450  0.6893  1.2653
30006SOL    HW290597   0.476   2.900   5.917  0.3065 -0.0783  1.0450
30007SOL     OW90598   6.707   8.243   3.387 -0.3408 -0.0399 -0.0927
30007SOL    HW190599   6.644   8.237   3.459  0.0685  0.4457  0.3155
30007SOL    HW290600   6.752   8.159   3.386  0.0789  0.1733  0.6230
30008SOL     OW90601   3.260   0.969   1.294 -0.0955  0.2079 -0.5168
30008SOL    HW190602   3.217   1.054   1.309  0.5974  0.7037 -1.2908
30008SOL    HW290603   3.352   0.986   1.313  0.0652 -0.3472 -0.8144
30009SOL     OW90604   0.288   6.345   2.219 -0.2129  0.5414 -0.6076
30009SOL    HW190605   0.379   6.341   2.190 -0.6562  0.4794 -2.0512
30009SOL    HW290606   0.248   6.266   2.182 -0.7953  0.4242  0.2509
30010SOL     OW90607   1.869   2.910   1.697 -0.1696 -0.0006 -0.0364
30010SOL    HW190608   1.788   2.866   1.722 -1.6360  1.0950 -2.5192
30010SOL    HW290609   1.849   3.003   1.705  0.5095  0.2997 -1.6111
30011SOL     OW90610   6.028   3.384   5.123 -0.2381  0.0675 -0.1689
30011SOL    HW190611   5.996   3.340   5.201 -0.8689  1.6299  0.4874
30011SOL    HW290612   5.949   3.417   5.079  0.2282  0.9939 -0.3470
30012SOL     OW90613   9.910   1.364   6.598 -0.3581 -0.7323 -0.5158
30012SOL    HW190614   9.934   1.437   6.541 -1.5695  1.0130  1.0901
30012SOL    HW290615   9.993   1.339   6.640 -0.0386  0.1500 -0.5978
30013SOL     OW90616   9.219   2.680   2.869 -0.0168 -0.2369 -0.2886
30013SOL    HW190617   9.154   2.619   2.834  1.6704 -2.5117  0.3588
30013SOL    HW290618   9.200   2.685   2.962 -0.8989  1.2802 -0.5070
30014SOL     OW90619   0.285   5.545   5.760  0.1320  0.5817 -0.6919
30014SOL    HW190620   0.309   5.583   5.676 -0.8797 -1.0452 -1.7659
30014SOL    HW290621   0.195   5.515   5.748  0.7070 -1.6959  0.2195
30015SOL     OW90622   4.374   1.982   8.479 -0.1127 -0.0570 -0.1106
30015SOL    HW190623   4.430   2.057   8.459  0.1939 -0.6081 -1.4767
30015SOL    HW290624   4.287   2.019   8.493  0.1795  0.6159 -0.0552
30016SOL     OW90625   6.739   7.941   1.877  0.3921 -0.2060 -0.3683
30016SOL    HW190626   6.809   7.940   1.812 -0.2276 -1.6818 -1.0476
30016SOL    HW290627   6.660   7.961   1.827 -0.0026 -0.7689  0.0167
30017SOL     OW90628   1.431   9.756   6.781  0.1050 -0.2677 -0.1407
30017SOL    HW190629   1.378   9.744   6.702  0.1804 -1.2736 -0.0568
30017SOL    HW290630   1.405   9.842   6.815  1.1057  0.8524 -2.0226
30018SOL     OW90631   0.325   0.312   5.222  0.0698  0.9384  0.0008
30018SOL    HW190632   0.305   0.405   5.238  1.3102  1.0488  1.0601
30018SOL    HW290633   0.279   0.265   5.291  1.8436  1.0432  1.3100
30019SOL     OW90634   4.976   7.436   5.259  0.2346 -0.7248  0.4869
30019SOL    HW190635   4.928   7.391   5.329  0.0340  1.7008  2.0400
30019SOL    HW290636   4.912   7.498   5.222  0.8166 -0.8287 -0.7353
30020SOL     OW90637   8.081   7.467   3.057  0.2031  0.3185  0.4955
30020SOL    HW190638   8.085   7.424   3.142 -2.0130 -1.1551 -0.0710
30020SOL    HW290639   8.140   7.415   3.001  0.8334  0.6447  0.8474
30021SOL     OW90640   0.019   8.966   3.539  0.5753 -0.8269 -0.3335
30021SOL    HW190641  -0.025   9.032   3.592 -0.1607  0.7147 -2.6850
30021SOL    HW290642   0.009   8.884   3.588 -0.6377  0.3518  1.5132
30022SOL     OW90643   7.038   7.375   2.062  0.5033 -0.3928 -0.4919
30022SOL    HW190644   7.012   7.348   1.974 -1.4476  0.5622 -0.2629
30022SOL    HW290645   7.111   7.435   2.048  0.6325 -0.7414 -1.4037
30023SOL     OW90646   1.710   1.585   8.157  0.5200  0.3433 -0.0660
30023SOL    HW190647   1.698   1.616   8.068  1.9918  1.4663  0.0960
30023SOL    HW290648   1.760   1.504   8.148  0.6078  0.4207 -0.2648
30024SOL     OW90649   5.042   3.038   0.945 -0.0246 -0.7868 -0.1386
30024SOL    HW190650   5.130   3.026   0.982 -0.0978  0.0765  0.3449
30024SOL    HW290651   4.986   2.980   0.996  0.1982 -1.0400 -0.1803
30025SOL     OW90652   1.606   1.318   9.294  0.1710  0.5030  0.3175
30025SOL    HW190653   1.552   1.300   9.217 -0.0580  0.2848  0.5258
30025SOL    HW290654   1.578   1.405   9.324  0.8934  0.9897 -0.3695
30026SOL     OW90655   2.145   5.990   9.090  0.0028 -0.2593  0.5504
30026SOL    HW190656   2.208   5.998   9.161 -0.9939 -1.6828  1.6491
30026SOL    HW290657   2.060   6.006   9.131 -0.4259  1.3805 -0.8477
30027SOL     OW90658   0.388   0.922   2.626  0.8233  0.0951  0.4739
30027SOL    HW190659   0.361   0.993   2.569  1.6357  0.4435  0.5161
30027SOL    HW290660   0.315   0.912   2.688 -0.2292 -0.5177 -0.7999
30028SOL     OW90661   7.360   7.050   5.248 -0.0089  0.2767  0.2050
30028SOL    HW190662   7.390   7.074   5.335  1.2758  0.8510 -0.3704
30028SOL    HW290663   7.342   6.956   5.253 -0.2110  0.3595  1.1416
30029SOL     OW90664   7.261   0.061   8.640 -0.0509  0.3420 -0.3811
30029SOL    HW190665   7.171   0.035   8.621 -0.2688 -0.2656  1.3523
30029SOL    HW290666   7.252   0.133   8.703  0.6785  0.9163 -0.9077
30030SOL     OW90667   7.779   6.133   4.922  0.5719  0.7906 -0.0172
30030SOL    HW190668   7.823   6.155   5.004 -0.2008 -0.5963  0.8178
30030SOL    HW290669   7.849   6.121   4.859  1.1499  2.5842  0.2280
30031SOL     OW90670   7.170   9.777   3.345 -0.2591 -0.3250 -0.3184
30031SOL    HW190671   7.090   9.725   3.358  0.9277 -1.8824  1.2106
30031SOL    HW290672   7.233   9.715   3.308  0.3458  0.8159 -1.2561
30032SOL     OW90673   1.255   4.220   2.902  0.7972  0.2865  0.1387
30032SOL    HW190674   1.324   4.229   2.836  1.7468  2.4088  1.3202
30032SOL    HW290675   1.198   4.295   2.887 -1.2232 -1.3372 -0.6905
30033SOL     OW90676   4.150   4.538   1.975  0.1893  0.5241  0.4273
30033SOL    HW190677   4.119   4.580   2.055  0.7853  0.7855  0.5252
30033SOL    HW290678   4.084   4.472   1.956 -0.2891  0.8932  0.7762
30034SOL     OW90679   3.590   9.198   1.916  0.1205  0.3095 -0.3884
30034SOL    HW190680   3.625   9.111   1.894 -1.2436  0.0878 -1.8128
30034SOL    HW290681   3.524   9.215   1.849 -1.8778  1.0882  1.6702
30035SOL     OW90682   8.538   2.684   7.927 -0.1723  0.2110  0.2969
30035SOL    HW190683   8.467   2.743   7.953 -1.3457 -0.5807 -0.9924
30035SOL    HW290684   8.614   2.718   7.973 -1.0702  1.9656  0.5997
30036SOL     OW90685   4.224   2.314   1.897 -0.0867 -0.4313 -0.0192
30036SOL    HW190686   4.213   2.378   1.967  2.5220  2.0835 -1.6896
30036SOL    HW290687   4.143   2.319   1.846 -0.3315  0.8383  0.4661
30037SOL     OW90688   0.563   5.520   1.799 -0.4703 -0.0837  0.3234
30037SOL    HW190689   0.565   5.439   1.747 -0.0474 -0.3875  0.8064
30037SOL    HW290690   0.627   5.506   1.868 -0.1588  0.8025  0.2278
30038SOL     OW90691   6.891   9.488   3.741 -0.8585 -0.0077  0.3876
30038SOL    HW190692   6.939   9.416   3.699  1.9034  1.8160  0.1811
30038SOL    HW290693   6.816   9.503   3.684  0.9486  0.1647 -2.1109
30039SOL     OW90694   5.529   3.703   2.331 -0.8078 -0.0660 -0.0798
30039SOL    HW190695   5.554   3.795   2.332 -1.9852  0.4022 -3.0522
30039SOL    HW290696   5.473   3.692   2.407 -1.8153  2.0703 -0.4538
30040SOL     OW90697   9.684   4.217   5.298  0.1283  0.0167 -0.4141
30040SOL    HW190698   9.716   4.262   5.220 -1.7666 -0.4719 -1.5308
30040SOL    HW290699   9.759   4.216   5.357  1.9290 -0.4277 -2.5689
30041SOL     OW90700   0.162   4.033   3.418 -0.2253 -0.2226  0.3830
30041SOL    HW190701   0.143   4.126   3.425 -0.5619 -0.2522 -0.1026
30041SOL    HW290702   0.239   4.020   3.474  0.4208  0.5184 -0.3036
30042SOL     OW90703   8.686   0.633   4.095 -0.3312 -0.2569  0.3792
30042SOL    HW190704   8.684   0.549   4.142  0.2631  0.5519  1.9014
30042SOL    HW290705   8.752   0.621   4.026  1.1114 -0.4684  1.7507
30043SOL     OW90706   0.902   9.590   7.322 -0.2859  0.7029 -0.1039
30043SOL    HW190707   0.886   9.676   7.282  1.2007  0.9571 -0.1850
30043SOL    HW290708   0.846   9.530   7.272  0.8387  1.1563 -2.0030
30044SOL     OW90709   5.726   0.276   2.487 -0.1037  0.2911  0.6167
30044SOL    HW190710   5.748   0.267   2.395  1.9065 -1.3640  1.1793
30044SOL    HW290711   5.644   0.228   2.498 -0.6573  0.9791 -0.3666
30045SOL     OW90712   5.966   3.992   6.858 -0.1922  0.0067 -0.2988
30045SOL    HW190713   5.903   3.921   6.851  0.3364 -0.9771  3.0421
30045SOL    HW290714   5.924   4.056   6.915  1.9042 -0.9896  2.6040
30046SOL     OW90715   8.395   9.342   2.998 -0.6673  0.1826  0.1616
30046SOL    HW190716   8.430   9.430   2.987  1.0053 -0.6467 -1.8928
30046SOL    HW290717   8.319   9.339   2.939  0.9056 -0.5001 -1.9414
30047SOL     OW90718   8.227   4.675   3.644 -0.3906  0.1125 -0.2294
30047SOL    HW190719   8.309   4.626   3.654 -0.4645 -0.1695 -0.9567
30047SOL    HW290720   8.191   4.679   3.733  0.2409 -0.0537  0.0461
30048SOL     OW90721   9.358   0.896   2.001 -0.5050  0.2429  0.2583
30048SOL    HW190722   9.430   0.957   2.014  0.1298 -0.0559 -1.6360
30048SOL    HW290723   9.282   0.951   1.983 -0.6351  0.5275  1.5248
30049SOL     OW90724   9.373   9.806   7.483 -0.1626 -0.6131 -0.2127
30049SOL    HW190725   9.443   9.759   7.530 -0.5542  0.5622  1.6135
30049SOL    HW290726   9.293   9.780   7.527 -0.7176 -0.5848 -1.1760
30050SOL     OW90727   9.643   6.544   1.663  0.3558 -0.0228 -0.4829
30050SOL    HW190728   9.670   6.494   1.740 -2.5218 -0.6409  0.2618
30050SOL    HW290729   9.633   6.634   1.695  2.3514  0.4384 -1.0204
30051SOL     OW90730   7.604   7.443   0.557  0.1627 -0.0211  0.3999
30051SOL    HW190731   7.651   7.360   0.551 -0.5024 -0.4215  0.6124
30051SOL    HW290732   7.664   7.507   0.520  0.4040 -0.7156 -0.4514
30052SOL     OW90733   9.449   9.791   2.610  0.3888  0.2181 -0.2100
30052SOL    HW190734   9.413   9.841   2.684 -1.1080 -0.5597 -0.3731
30052SOL    HW290735   9.475   9.707   2.649  0.0856  0.0051 -0.4609
30053SOL     OW90736   2.911   5.413   1.757  0.6467  0.2992 -0.3656
30053SOL    HW190737   2.953   5.370   1.682  0.0880 -0.8038 -0.0826
30053SOL    HW290738   2.882   5.340   1.813 -2.1684  0.9245 -0.8470
30054SOL     OW90739   9.574   6.735   7.545 -0.2232 -0.0337  0.4511
30054SOL    HW190740   9.490   6.724   7.590 -0.6574  1.2629  0.0067
30054SOL    HW290741   9.639   6.733   7.616 -0.7952  0.7827  1.0258
30055SOL     OW90742   6.956   8.263   8.881 -0.1273  0.6136  0.4060
30055SOL    HW190743   6.970   8.329   8.813  0.0050  0.6604  0.4771
30055SOL    HW290744   7.018   8.193   8.860 -1.3663 -0.2152 -0.5854
30056SOL     OW90745   9.125   0.657   6.129  0.5743  0.3934 -0.0630
30056SOL    HW190746   9.053   0.714   6.156 -0.2204  0.2937 -1.7953
30056SOL    HW290747   9.186   0.716   6.084 -0.4902 -0.1086 -2.3049
30057SOL     OW90748   9.038   9.679   3.341  0.1409 -0.9237  0.0154
30057SOL    HW190749   9.114   9.666   3.284  0.9252 -0.4000  0.9186
30057SOL    HW290750   9.052   9.765   3.380 -1.4329 -0.3729 -0.5487
30058SOL     OW90751   5.508   6.867   7.286  0.2911  0.4021 -0.6392
30058SOL    HW190752   5.460   6.849   7.367 -0.4783  0.9895 -0.9588
30058SOL    HW290753   5.524   6.961   7.288  1.2535  0.2509 -0.6452
30059SOL     OW90754   9.178   7.429   6.180  0.4432  0.1909 -0.6767
30059SOL    HW190755   9.245   7.421   6.249 -0.6874  1.0391  0.5691
30059SOL    HW290756   9.215   7.492   6.118  0.1206  2.0546  0.9232
30060SOL     OW90757   3.836   8.490   8.127  0.0265  0.0976  0.5468
30060SOL    HW190758   3.886   8.408   8.123 -0.7706 -0.4678 -4.3858
30060SOL    HW290759   3.748   8.465   8.100 -0.9880  2.2415  1.6600
30061SOL     OW90760   5.761   4.640   6.382  0.0168  0.6572  0.0211
30061SOL    HW190761   5.806   4.584   6.445  0.5927  0.3040 -0.6872
30061SOL    HW290762   5.700   4.582   6.338  0.5598  0.5918 -0.6613
30062SOL     OW90763   7.437   4.831   6.739 -0.2741  0.2894 -0.3815
30062SOL    HW190764   7.353   4.848   6.696 -0.6182  1.3789  0.6927
30062SOL    HW290765   7.425   4.860   6.829  1.0601 -0.1419 -0.0359
30063SOL     OW90766   9.023   9.921   3.504 -0.6511  0.1279  0.1688
30063SOL    HW190767   9.060  10.001   3.467 -0.1489  0.1922  0.8005
30063SOL    HW290768   8.930   9.926   3.483 -0.8245  1.4094  1.1436
30064SOL     OW90769   9.427   3.093   7.713  1.0447  0.4774  0.5114
30064SOL    HW190770   9.415   3.158   7.783  3.5961  0.1376  1.3701
30064SOL    HW290771   9.399   3.011   7.752 -1.0519  0.8234 -0.1732
30065SOL     OW90772   8.604   7.598   2.032 -0.0348  0.6010 -0.2380
30065SOL    HW190773   8.511   7.621   2.031  0.1727  1.7558  1.4868
30065SOL    HW290774   8.647   7.672   1.990  0.0711 -0.4499 -2.0898
30066SOL     OW90775   6.810   9.812   9.440  0.3206 -0.0652 -0.1800
30066SOL    HW190776   6.817   9.906   9.425  0.3671 -0.0690 -0.1805
30066SOL    HW290777   6.718   9.792   9.420  0.1592  0.0842  0.3681
30067SOL     OW90778   4.731   3.763   9.261  0.2053  0.0256  0.6330
30067SOL    HW190779   4.729   3.858   9.251  0.1637 -0.0336  0.0262
30067SOL    HW290780   4.645   3.741   9.297 -0.3621  0.0803 -0.6215
30068SOL     OW90781   8.521   7.711   0.689  0.1425 -0.3331  0.1151
30068SOL    HW190782   8.456   7.727   0.621  0.2644  0.2132  0.1229
30068SOL    HW290783   8.602   7.749   0.654  0.5896 -1.4662 -0.1234
30069SOL     OW90784   5.356   2.422   2.637 -0.1602 -0.1754  0.2117
30069SOL    HW190785   5.369   2.329   2.658 -0.8671 -0.7827 -1.7915
30069SOL    HW290786   5.261   2.434   2.637 -0.2455 -0.2298 -2.2696
30070SOL     OW90787   6.667   8.510   8.646  0.0390  0.6591 -0.1986
30070SOL    HW190788   6.643   8.597   8.677  1.7383  1.1209 -0.0701
30070SOL    HW290789   6.753   8.522   8.606  1.0673 -1.2578  1.2651
30071SOL     OW90790   4.159   0.939   7.930 -0.3393  0.0157 -0.1672
30071SOL    HW190791   4.254   0.953   7.932  0.2721 -3.2896  0.5100
30071SOL    HW290792   4.144   0.893   7.847 -1.3602  0.5499 -0.2837
30072SOL     OW90793   2.589   4.970   7.464 -0.0345 -0.3933  0.2719
30072SOL    HW190794   2.629   5.057   7.458 -1.9186  0.4436 -1.2321
30072SOL    HW290795   2.663   4.909   7.465  1.3100  1.1914  0.9856
30073SOL     OW90796   1.624   1.225   9.877 -0.3730 -0.2973 -0.5947
30073SOL    HW190797   1.639   1.140   9.837  2.3589  0.4106 -1.3039
30073SOL    HW290798   1.587   1.205   9.963 -1.3533 -2.0839 -1.3846
30074SOL     OW90799   1.219   1.656   9.330 -0.3633  0.6319 -0.0439
30074SOL    HW190800   1.295   1.657   9.272 -1.0720 -2.1788 -1.1917
30074SOL    HW290801   1.155   1.601   9.285 -1.7421  0.0059  2.4765
30075SOL     OW90802   5.161   2.900   0.703 -0.3815  0.3764 -0.0859
30075SOL    HW190803   5.214   2.871   0.777  0.0341  0.9295 -0.1588
30075SOL    HW290804   5.083   2.937   0.742 -1.6188 -2.0963 -0.0215
30076SOL     OW90805   1.516   5.866   6.370 -0.3821 -0.3763  0.2647
30076SOL    HW190806   1.450   5.839   6.434  1.0406  0.0262  1.9928
30076SOL    HW290807   1.505   5.961   6.363  0.9605 -0.0498  1.8019
30077SOL     OW90808   7.373   7.317   2.948 -0.0181 -0.1528  0.1094
30077SOL    HW190809   7.459   7.348   2.918  0.1727 -1.1732 -0.4773
30077SOL    HW290810   7.330   7.395   2.983  1.9145  0.0398  2.3005
30078SOL     OW90811   8.105   9.891   8.630 -0.0540 -0.0472 -0.1368
30078SOL    HW190812   8.160   9.829   8.582 -0.6229 -1.1488  0.5833
30078SOL    HW290813   8.092   9.963   8.569  0.1213 -0.9083 -1.2372
30079SOL     OW90814   4.331   6.488   0.725 -0.1673 -0.2010 -0.1120
30079SOL    HW190815   4.407   6.429   0.728 -0.5689 -0.7074  0.4069
30079SOL    HW290816   4.263   6.436   0.682 -1.0143 -0.7214  1.7568
30080SOL     OW90817   5.962   6.179   5.498  0.1862 -0.0004  0.1837
30080SOL    HW190818   6.022   6.141   5.435  0.7512  0.4660  0.4346
30080SOL    HW290819   5.996   6.154   5.584 -0.6917 -0.8034  0.3141
30081SOL     OW90820   2.673   7.340   1.560 -0.0156 -0.0244 -0.2454
30081SOL    HW190821   2.606   7.276   1.537  0.4225 -0.6065  0.0587
30081SOL    HW290822   2.734   7.292   1.615  0.3406  0.6528 -0.0324
30082SOL     OW90823   2.654   1.664   8.505 -0.7013  0.1250  0.5986
30082SOL    HW190824   2.595   1.649   8.579  1.1212  1.4608  2.4379
30082SOL    HW290825   2.713   1.733   8.535  0.7130  0.0677 -1.7931
30083SOL     OW90826   6.016   8.836   1.661 -0.4634  0.5769  0.7628
30083SOL    HW190827   5.984   8.758   1.706 -0.0764 -0.4384 -0.6541
30083SOL    HW290828   6.001   8.907   1.723 -1.7005 -0.4694  1.7248
30084SOL     OW90829   5.660   8.273   4.640 -0.0254 -0.2495  0.4577
30084SOL    HW190830   5.732   8.225   4.680  0.6573  0.3603 -0.0106
30084SOL    HW290831   5.610   8.308   4.713  0.1830 -0.6277  0.7827
30085SOL     OW90832   7.249   8.481   1.982  0.5379  0.0476  0.0018
30085SOL    HW190833   7.239   8.524   1.897  0.1199  1.7254  0.8472
30085SOL    HW290834   7.163   8.441   1.999  0.9657 -1.3017 -0.8436
30086SOL     OW90835   4.754   6.571   6.168 -0.1434  0.1801 -0.3449
30086SOL    HW190836   4.698   6.595   6.242 -0.5507  0.6844 -0.8111
30086SOL    HW290837   4.693   6.547   6.099  0.2444 -0.7508 -0.3760
30087SOL     OW90838   5.014   8.002   7.451 -0.2555 -0.6966  0.2158
30087SOL    HW190839   4.927   8.040   7.438 -0.4827 -1.0322  0.6964
30087SOL    HW290840   5.012   7.919   7.403 -0.0114 -0.4478 -0.2265
30088SOL     OW90841   7.391   6.328   5.026  0.5837  0.1549  0.4550
30088SOL    HW190842   7.340   6.382   4.964 -0.0038  0.3349  1.0770
30088SOL    HW290843   7.446   6.273   4.971  0.6284  0.8529 -0.2151
30089SOL     OW90844   1.984   8.549   6.835 -0.2745 -0.3649  0.6822
30089SOL    HW190845   1.960   8.495   6.911  1.7508 -0.4162  1.3442
30089SOL    HW290846   2.014   8.631   6.872 -0.6939  0.1990 -0.1855
30090SOL     OW90847   4.025   4.385   7.586  0.7828 -0.0980  0.1659
30090SOL    HW190848   4.018   4.474   7.552 -0.0497  0.1001  0.8138
30090SOL    HW290849   4.078   4.395   7.666 -0.3757  0.0280  0.9346
30091SOL     OW90850   8.500   5.671   3.901  0.1497  0.2003 -0.3326
30091SOL    HW190851   8.467   5.734   3.836 -1.2681  0.8433  0.9569
30091SOL    HW290852   8.530   5.597   3.848 -0.2405  1.0103 -1.7706
30092SOL     OW90853   5.851   0.527   8.638  0.6661  0.4305 -0.2243
30092SOL    HW190854   5.891   0.459   8.585  0.4207  1.9048 -2.4236
30092SOL    HW290855   5.757   0.512   8.631  0.6461  0.2180  0.4050
30093SOL     OW90856   2.610   6.134   7.366  0.3417  0.0703  0.0587
30093SOL    HW190857   2.536   6.104   7.420  1.3740 -0.3859  1.2645
30093SOL    HW290858   2.661   6.191   7.424  0.0269  1.8447 -1.2918
30094SOL     OW90859   0.748   4.950   6.116  0.0993  0.1637 -0.0869
30094SOL    HW190860   0.734   5.042   6.095  0.6315  0.0671 -0.9186
30094SOL    HW290861   0.660   4.913   6.127 -0.2594  0.1484 -2.5180
30095SOL     OW90862   7.916   0.483   4.471 -0.8474 -0.2689  0.6969
30095SOL    HW190863   7.958   0.511   4.390 -1.0971  0.0272  0.6643
30095SOL    HW290864   7.890   0.392   4.455  0.0986 -0.5695  0.8538
30096SOL     OW90865   3.328   9.148   6.286 -0.6468 -0.2648 -0.3020
30096SOL    HW190866   3.321   9.077   6.350  0.6038 -0.8064 -0.7366
30096SOL    HW290867   3.401   9.201   6.317 -2.2493  1.5058  0.6229
30097SOL     OW90868   2.386   4.291   4.848  0.4929 -0.0258  0.2189
30097SOL    HW190869   2.409   4.357   4.783 -0.3568  1.1161  1.0576
30097SOL    HW290870   2.300   4.259   4.820  0.0827  0.5370  0.8233
30098SOL     OW90871   5.170   8.489   9.202 -0.3497  0.0154  0.0282
30098SOL    HW190872   5.101   8.553   9.184  0.9348  1.0458 -1.5632
30098SOL    HW290873   5.137   8.406   9.168 -1.0641  0.3603 -0.1214
30099SOL     OW90874   2.194   2.190   2.626  1.1864 -0.0006  0.0009
30099SOL    HW190875   2.169   2.098   2.616 -0.3337  0.2733  0.9100
30099SOL    HW290876   2.200   2.223   2.536 -0.4932 -0.4552 -0.3180
30100SOL     OW90877   9.058   2.621   2.498 -0.7048  0.2303  0.0861
30100SOL    HW190878   9.039   2.568   2.421  1.2605 -2.9674  1.5794
30100SOL    HW290879   9.145   2.658   2.481 -0.9823  0.8940  0.0981
30101SOL     OW90880   7.802   7.845   7.018  0.0417  0.5122  0.0167
30101SOL    HW190881   7.883   7.873   7.061 -0.4110  0.5490  0.8699
30101SOL    HW290882   7.755   7.926   7.001 -0.9296  0.3796  1.8040
30102SOL     OW90883   9.831   5.351   2.041 -0.6536 -0.3135  0.2631
30102SOL    HW190884   9.824   5.438   2.002 -1.2470  0.0890  1.2377
30102SOL    HW290885   9.750   5.306   2.015 -0.5511 -0.4248  0.1307
30103SOL     OW90886   0.884   7.116   9.829  0.0817  0.3257 -0.1101
30103SOL    HW190887   0.925   7.201   9.814 -1.2300  0.9613 -0.1991
30103SOL    HW290888   0.946   7.070   9.887  0.7187  1.4013  0.0955
30104SOL     OW90889   8.876   1.967   2.560  0.3404 -0.2498 -0.2627
30104SOL    HW190890   8.923   2.016   2.627 -0.7415  0.2694  0.1423
30104SOL    HW290891   8.944   1.921   2.511  1.2844  0.7323  0.0957
30105SOL     OW90892   5.544   6.380   7.479  0.4827  0.2786  0.1065
30105SOL    HW190893   5.600   6.344   7.548 -0.5681 -1.3659  0.1708
30105SOL    HW290894   5.486   6.441   7.525 -0.8346 -1.4883  0.9408
30106SOL     OW90895   1.883   0.855   6.004 -0.0713  0.1942  0.4821
30106SOL    HW190896   1.942   0.883   6.075  0.9753  0.7767 -0.5823
30106SOL    HW290897   1.795   0.865   6.041  0.4067  1.6042  1.3236
30107SOL     OW90898   1.381   5.734   0.038 -0.5212  0.5436 -0.1288
30107SOL    HW190899   1.384   5.659   0.097  0.8198  0.4396 -0.2980
30107SOL    HW290900   1.320   5.708  -0.031 -0.5596 -0.1411  0.1575
30108SOL     OW90901   9.019   7.303   9.177 -0.7023 -0.1220 -0.3460
30108SOL    HW190902   9.049   7.218   9.208  0.2999  1.0056  2.0482
30108SOL    HW290903   9.073   7.321   9.100 -1.0588 -1.6806 -0.9981
30109SOL     OW90904   8.348   2.774   6.939 -0.4505  0.5289  0.2840
30109SOL    HW190905   8.256   2.751   6.945 -0.2048 -0.0820  3.6177
30109SOL    HW290906   8.384   2.714   6.873 -2.1537 -0.1943 -0.0181
30110SOL     OW90907   6.217   0.160   1.706  0.2592 -0.0372 -0.0330
30110SOL    HW190908   6.138   0.116   1.673  0.3967 -0.3907  0.1014
30110SOL    HW290909   6.271   0.089   1.740 -0.0863  0.3546  1.4126
30111SOL     OW90910   9.662   9.108   6.438 -0.3152  0.7042 -0.1364
30111SOL    HW190911   9.614   9.101   6.355  3.1614  1.6928 -2.4316
30111SOL    HW290912   9.667   9.202   6.455 -1.3680  0.5103  1.5581
30112SOL     OW90913   1.913   7.769   6.691 -0.6148 -0.3356 -0.0567
30112SOL    HW190914   1.819   7.786   6.687 -0.9419 -2.0996 -1.0734
30112SOL    HW290915   1.921   7.674   6.684  1.2828 -0.1706 -0.9708
30113SOL     OW90916   8.848   1.456   8.973 -0.0742  0.2459 -0.0304
30113SOL    HW190917   8.781   1.508   9.018 -0.1740  0.0967 -0.0070
30113SOL    HW290918   8.822   1.457   8.881 -0.2229  0.0143  0.0092
30114SOL     OW90919   8.743   1.803  -0.002 -0.3083 -0.0819  0.2863
30114SOL    HW190920   8.757   1.745   0.073 -1.3114  0.6082  1.0279
30114SOL    HW290921   8.686   1.753  -0.061 -0.3990 -0.2141  0.4859
30115SOL     OW90922   6.920   3.132   1.164 -0.6121  0.0485 -0.2585
30115SOL    HW190923   6.879   3.202   1.215 -1.1039 -0.5391  0.1660
30115SOL    HW290924   6.986   3.095   1.222  0.1392  0.6180 -0.7381
30116SOL     OW90925   8.694   3.602   6.316  0.5132 -0.5663 -0.7870
30116SOL    HW190926   8.672   3.648   6.397 -2.7508 -1.8126 -0.8203
30116SOL    HW290927   8.789   3.610   6.310  0.8868 -0.0618  2.9500
30117SOL     OW90928   6.195   9.315   3.053  0.6328 -0.1471  1.0589
30117SOL    HW190929   6.241   9.310   2.969 -1.6222  0.6497 -0.3224
30117SOL    HW290930   6.142   9.235   3.056 -0.9385  0.8453  0.6461
30118SOL     OW90931   6.708   5.917   0.978  0.1553 -0.2132 -0.2637
30118SOL    HW190932   6.642   5.862   1.019 -0.8705  1.4228  0.3359
30118SOL    HW290933   6.790   5.893   1.022 -0.7282  0.7229  2.0110
30119SOL     OW90934   6.451   5.861   8.376  0.0762 -0.3292 -0.2173
30119SOL    HW190935   6.463   5.956   8.381 -0.3379 -0.1008 -2.6542
30119SOL    HW290936   6.422   5.845   8.287  1.7636 -2.9269 -0.3985
30120SOL     OW90937   0.210   9.149   9.645 -0.3608  0.0821 -0.1996
30120SOL    HW190938   0.163   9.225   9.613 -0.8152  0.0518  0.3684
30120SOL    HW290939   0.151   9.109   9.708  0.5332  0.1957  0.7457
30121SOL     OW90940   8.151   6.357   8.157  0.0310  0.3228  0.9873
30121SOL    HW190941   8.078   6.418   8.171  0.2831  0.5814  1.2208
30121SOL    HW290942   8.122   6.275   8.196  0.6876  1.0125  3.0984
30122SOL     OW90943   6.416   8.136   3.868 -0.2651  0.3637 -0.2693
30122SOL    HW190944   6.483   8.091   3.919  1.3314  0.8766 -1.8154
30122SOL    HW290945   6.383   8.204   3.926 -2.0102 -2.0529  1.7513
30123SOL     OW90946   6.771   1.308   0.679 -0.0257  0.2450  0.0784
30123SOL    HW190947   6.840   1.299   0.614  0.6036  2.0101  0.4278
30123SOL    HW290948   6.760   1.220   0.715  2.1318 -0.0739  0.0850
30124SOL     OW90949   5.849   6.572   2.052  0.4756  0.3040  0.5296
30124SOL    HW190950   5.812   6.635   1.991 -3.6595  1.2641  3.5519
30124SOL    HW290951   5.835   6.487   2.011 -2.0873  0.9248 -0.0328
30125SOL     OW90952   9.177   0.293   8.858  0.5346  0.1415  0.4398
30125SOL    HW190953   9.188   0.373   8.805  1.2033 -0.6806 -0.7150
30125SOL    HW290954   9.090   0.302   8.897  0.0759  0.8568 -0.6840
30126SOL     OW90955   1.673   3.380   1.923 -0.4048 -0.2381 -0.2026
30126SOL    HW190956   1.732   3.423   1.862 -0.5089 -0.2934 -0.3418
30126SOL    HW290957   1.668   3.440   1.998 -0.5132 -0.0278 -0.3749
30127SOL     OW90958   9.631   5.285   8.177  0.7415  0.1528  0.3682
30127SOL    HW190959   9.673   5.367   8.203  1.1847 -0.3867  1.4069
30127SOL    HW290960   9.543   5.289   8.216  0.6650  0.2510  0.1861
30128SOL     OW90961   3.477   8.952   3.300 -0.1494 -0.0025  0.3557
30128SOL    HW190962   3.525   9.031   3.324 -1.8302  1.7106 -1.6004
30128SOL    HW290963   3.405   8.947   3.362  0.6807 -0.8204  1.3089
30129SOL     OW90964   1.642   6.219   6.729 -0.2834  0.2903  0.2622
30129SOL    HW190965   1.587   6.144   6.706 -0.6670  0.8254 -0.6458
30129SOL    HW290966   1.715   6.215   6.667  0.6619 -0.3541  1.3907
30130SOL     OW90967   3.539   3.825   3.960 -0.4546 -0.2661  0.1687
30130SOL    HW190968   3.493   3.909   3.959 -0.5984 -0.3490 -1.2406
30130SOL    HW290969   3.507   3.779   3.883  1.3064 -0.7063 -0.3401
30131SOL     OW90970   2.511   1.112   8.453 -0.1015 -0.1458  0.0149
30131SOL    HW190971   2.555   1.066   8.381 -0.2029 -0.8490  0.3941
30131SOL    HW290972   2.498   1.201   8.420  1.3027 -0.0022 -0.2354
30132SOL     OW90973   9.422   7.579   4.038 -0.0807  0.0130  0.1329
30132SOL    HW190974   9.425   7.624   3.953 -2.6591  2.0021  0.9826
30132SOL    HW290975   9.381   7.495   4.019  0.3523 -0.0142 -0.7427
30133SOL     OW90976   9.168   4.969   2.258  0.3900  0.2616 -0.4596
30133SOL    HW190977   9.097   4.957   2.320  0.1308 -1.0303 -0.9911
30133SOL    HW290978   9.241   5.003   2.311 -0.0165 -0.2314  0.4233
30134SOL     OW90979   8.302   5.711   9.061  0.4680  0.5771 -0.1879
30134SOL    HW190980   8.211   5.703   9.088  0.2382  2.2536 -0.3744
30134SOL    HW290981   8.299   5.708   8.966  0.4055  2.1760 -0.2567
30135SOL     OW90982   9.231   6.050   5.623 -0.2891  0.0926  0.3738
30135SOL    HW190983   9.295   6.090   5.681 -0.4932  0.7069  0.1773
30135SOL    HW290984   9.281   5.985   5.573 -0.5622 -2.3700  3.0176
30136SOL     OW90985   7.687   6.506   1.240 -0.1003  0.7468 -0.0669
30136SOL    HW190986   7.619   6.523   1.175 -1.0554 -0.4320  0.5935
30136SOL    HW290987   7.659   6.426   1.284  2.0098 -0.0832 -0.1352
30137SOL     OW90988   0.265   4.000   9.338  0.2129  0.0908 -0.0493
30137SOL    HW190989   0.353   4.015   9.304  0.5577  1.7074  1.4323
30137SOL    HW290990   0.278   3.975   9.430 -0.8862  1.4011  0.5058
30138SOL     OW90991   8.589   3.438   1.724 -0.5714  0.0819 -0.0912
30138SOL    HW190992   8.531   3.497   1.771 -1.0221 -0.7763  0.4619
30138SOL    HW290993   8.623   3.490   1.651 -0.0154  1.3815  1.0508
30139SOL     OW90994   3.803   0.241   4.106  0.6480 -0.6767 -0.4015
30139SOL    HW190995   3.807   0.267   4.014  2.5634 -1.9904 -0.7291
30139SOL    HW290996   3.716   0.202   4.116 -0.3183  1.1700 -1.1413
30140SOL     OW90997   6.895   9.879   5.219 -0.6893  0.3580  0.2632
30140SOL    HW190998   6.841   9.915   5.289 -0.9124 -2.4341  1.6267
30140SOL    HW290999   6.833   9.834   5.161 -0.2494  0.7868 -0.5684
30141SOL     OW91000   1.755   6.171   0.179  0.0460 -0.3515  0.0616
30141SOL    HW191001   1.805   6.154   0.100  0.8291 -0.1664  0.5127
30141SOL    HW291002   1.693   6.097   0.184  0.0135 -0.3842 -0.6893
30142SOL     OW91003   9.693   0.248   0.547  0.3123 -0.7796 -0.1657
30142SOL    HW191004   9.608   0.236   0.590 -0.0109  0.2940 -0.4595
30142SOL    HW291005   9.746   0.296   0.611 -0.4867  1.6865 -1.2361
30143SOL     OW91006   9.234   0.686   0.597  0.5223 -0.3598  0.1503
30143SOL    HW191007   9.189   0.729   0.524 -2.1259 -0.7059  1.4584
30143SOL    HW291008   9.317   0.733   0.606 -0.6939  2.1064 -0.7470
30144SOL     OW91009   0.411   9.824   3.140  0.2843 -0.0253 -0.4597
30144SOL    HW191010   0.347   9.881   3.182  0.6436  0.3510 -0.4130
30144SOL    HW291011   0.458   9.882   3.080  0.9620 -0.1708 -0.0766
30145SOL     OW91012   8.476   4.781   5.475 -0.4769  0.5519 -0.4499
30145SOL    HW191013   8.411   4.721   5.438 -0.5076  0.9654 -1.0768
30145SOL    HW291014   8.461   4.864   5.429  1.3018  0.3251 -1.4998
30146SOL     OW91015   0.295   3.738   7.677 -0.9401 -0.0753 -0.4678
30146SOL    HW191016   0.277   3.703   7.590  0.7353 -3.1056  0.2854
30146SOL    HW291017   0.317   3.830   7.661 -1.5771 -0.2971 -3.1030
30147SOL     OW91018   6.981   8.037   9.641 -0.4210 -0.3086 -0.1703
30147SOL    HW191019   6.979   8.097   9.567  2.9339  0.3061  0.0850
30147SOL    HW291020   7.024   8.086   9.711  2.8290 -2.9728 -0.0740
30148SOL     OW91021   1.240   3.275   9.416 -0.0945 -0.4182 -0.1050
30148SOL    HW191022   1.288   3.239   9.491 -0.1452 -1.6129 -0.6266
30148SOL    HW291023   1.307   3.321   9.365 -0.0798  0.5030  0.7185
30149SOL     OW91024   3.502   1.633   3.242 -0.3707 -0.2258 -0.3503
30149SOL    HW191025   3.552   1.709   3.273 -0.0405 -0.6845  0.2520
30149SOL    HW291026   3.414   1.647   3.278  0.0701 -0.8781  1.0360
30150SOL     OW91027   9.227   7.564   9.944 -0.4747 -0.2768 -0.2779
30150SOL    HW191028   9.230   7.486   9.889  0.7507 -1.0830  0.8553
30150SOL    HW291029   9.143   7.559   9.989 -0.1006 -1.3590  0.3310
30151SOL     OW91030   7.650   5.805   1.068  0.2442 -0.0966  0.5572
30151SOL    HW191031   7.731   5.847   1.038 -0.8811  1.3887 -0.5477
30151SOL    HW291032   7.582   5.870   1.053 -1.4158 -1.8698 -0.0700
30152SOL     OW91033   2.236   3.104   1.589  0.0830  0.0445  0.6326
30152SOL    HW191034   2.189   3.141   1.664 -1.5722 -0.4644 -0.0981
30152SOL    HW291035   2.166   3.073   1.530  1.3551 -0.7768 -0.5025
30153SOL     OW91036   7.256   6.771   6.052  0.2249  0.4315 -0.1063
30153SOL    HW191037   7.165   6.740   6.059 -0.0216  0.1426 -3.2191
30153SOL    HW291038   7.306   6.694   6.028  1.0644  0.8889  0.1464
30154SOL     OW91039   4.499   2.393   3.517 -0.1878  0.1064  0.3188
30154SOL    HW191040   4.500   2.353   3.429 -0.4241  1.7266 -0.4533
30154SOL    HW291041   4.444   2.335   3.568  0.7171 -1.3997 -0.3276
30155SOL     OW91042   1.035   6.551   7.952 -0.4043 -0.0700  0.0369
30155SOL    HW191043   1.022   6.471   7.902 -3.9200  0.0054  0.5392
30155SOL    HW291044   1.013   6.622   7.892 -1.2411  0.2359  0.6783
30156SOL     OW91045   7.218   1.913   1.131  0.3465  0.0505 -0.1834
30156SOL    HW191046   7.251   1.824   1.135  1.1854  0.3625  0.1455
30156SOL    HW291047   7.172   1.926   1.214  1.1324  0.2627  0.2216
30157SOL     OW91048   7.349   8.188   3.099  0.8251  0.1927  0.1608
30157SOL    HW191049   7.411   8.257   3.124 -0.1206  0.6344  1.3901
30157SOL    HW291050   7.391   8.107   3.129  0.8787  0.4754  0.8677
30158SOL     OW91051   8.375   0.944   0.085  0.4795  0.1882  0.4337
30158SOL    HW191052   8.448   0.996   0.051  0.1863  0.6241  0.4613
30158SOL    HW291053   8.357   0.880   0.017 -0.0476  1.0009 -0.2079
30159SOL     OW91054   3.166   4.309   0.753 -0.0593 -0.1584 -0.2322
30159SOL    HW191055   3.254   4.308   0.792  0.1173  0.2640 -0.6072
30159SOL    HW291056   3.106   4.299   0.827  0.2635  0.7055  0.1583
30160SOL     OW91057   1.881   8.723   5.753  0.5002  0.0012 -0.1775
30160SOL    HW191058   1.878   8.676   5.837  0.0316  1.1121  0.4392
30160SOL    HW291059   1.931   8.664   5.695 -1.2834 -1.9525  0.1344
30161SOL     OW91060   3.795   3.059   9.387 -0.1184  0.0039  0.4907
30161SOL    HW191061   3.705   3.029   9.402 -0.3821  0.1198 -0.7228
30161SOL    HW291062   3.836   3.054   9.473 -1.0753 -0.7542  0.9366
30162SOL     OW91063   8.657   2.941   3.011 -0.4931 -1.0155 -0.4866
30162SOL    HW191064   8.666   2.851   2.980 -1.3755 -0.7309 -1.6635
30162SOL    HW291065   8.565   2.948   3.035 -1.0239  0.1897 -2.6126
30163SOL     OW91066   7.930   5.448   8.600  0.2024 -0.2866  0.0461
30163SOL    HW191067   7.883   5.408   8.526 -1.2361  1.4677 -0.0438
30163SOL    HW291068   7.966   5.373   8.648 -0.6656 -1.5796 -1.2220
30164SOL     OW91069   7.373   9.685   9.683 -0.2232 -0.3521  0.0487
30164SOL    HW191070   7.448   9.722   9.637  0.9292 -1.3441  1.0800
30164SOL    HW291071   7.310   9.665   9.613  0.0641  1.3212 -0.7403
30165SOL     OW91072   6.394   6.597   3.163 -0.4317 -0.4812 -0.3330
30165SOL    HW191073   6.470   6.610   3.220 -0.8259 -2.1913  0.6714
30165SOL    HW291074   6.353   6.517   3.196 -3.0844  0.7368 -0.3752
30166SOL     OW91075   5.757   3.027   8.584 -0.4540  0.8168 -0.8801
30166SOL    HW191076   5.694   2.962   8.553 -0.0505  0.6283 -1.3205
30166SOL    HW291077   5.807   2.981   8.651 -3.0138  1.9708  2.0605
30167SOL     OW91078   1.444   9.098   8.769  0.0705 -0.2641  0.2939
30167SOL    HW191079   1.458   9.176   8.716  1.3245 -0.4521  0.3172
30167SOL    HW291080   1.406   9.034   8.707  1.4037 -0.4427 -0.3725
30168SOL     OW91081   0.835   9.462   4.306  0.4929  0.0059  0.3871
30168SOL    HW191082   0.858   9.464   4.398  1.1205 -0.2496  0.2378
30168SOL    HW291083   0.862   9.375   4.276 -0.4642 -0.2263  0.1527
30169SOL     OW91084   5.862   2.165   2.089  0.2111  0.2159  0.2674
30169SOL    HW191085   5.786   2.199   2.136 -0.5720 -2.2805  0.9473
30169SOL    HW291086   5.828   2.143   2.002  0.5373  0.4804  0.0708
30170SOL     OW91087   6.836   1.449   1.037  0.1109 -0.2156 -0.0760
30170SOL    HW191088   6.888   1.484   0.964 -2.0809 -0.8636 -2.0694
30170SOL    HW291089   6.793   1.525   1.075  1.2643  0.1260  0.6042
30171SOL     OW91090   6.388   3.408   5.891 -0.1304 -0.0981  0.0765
30171SOL    HW191091   6.366   3.389   5.799  0.9336  1.2663 -0.4930
30171SOL    HW291092   6.302   3.419   5.933 -0.7147 -2.5980 -0.2618
30172SOL     OW91093   4.789   0.067   2.095 -0.5567 -0.3447 -0.1877
30172SOL    HW191094   4.719   0.044   2.156  0.6253  0.0653  1.3851
30172SOL    HW291095   4.812  -0.016   2.052 -0.6404 -0.8767  0.7662
30173SOL     OW91096   7.315   2.242   0.541 -0.2457 -0.5273  0.0856
30173SOL    HW191097   7.387   2.179   0.537 -0.1892 -0.4023 -2.1207
30173SOL    HW291098   7.237   2.188   0.557  0.0432 -0.9262  0.1740
30174SOL     OW91099   8.660   1.841   1.180  0.1850  0.5692 -0.0737
30174SOL    HW191100   8.674   1.896   1.257  0.8271  1.9274 -1.1255
30174SOL    HW291101   8.730   1.775   1.185  0.4794  0.8998  0.2789
30175SOL     OW91102   7.864   0.444   2.218  0.2046  0.3007  0.1518
30175SOL    HW191103   7.850   0.538   2.206 -2.2110 -0.0159  0.1015
30175SOL    HW291104   7.864   0.432   2.313  0.1677  0.2976  0.1513
30176SOL     OW91105   4.806   2.217   0.439 -0.0055  0.3028  0.0813
30176SOL    HW191106   4.725   2.173   0.412 -0.0446  0.1794  0.4035
30176SOL    HW291107   4.876   2.159   0.409 -0.0175  0.6293 -0.6041
30177SOL     OW91108   9.735   6.463   7.851  0.1560  0.5352 -0.2809
30177SOL    HW191109   9.728   6.385   7.796  0.2552  1.0497 -1.0437
30177SOL    HW291110   9.813   6.448   7.904 -0.1399 -0.1275 -0.0230
30178SOL     OW91111   6.199   4.841   3.712  0.2133  0.1528 -0.2766
30178SOL    HW191112   6.199   4.935   3.732  0.9684  0.3688 -1.2275
30178SOL    HW291113   6.139   4.803   3.776  0.2897  1.2142  0.4517
30179SOL     OW91114   6.478   6.348   1.369 -0.5919  0.3990  0.7453
30179SOL    HW191115   6.421   6.277   1.401 -0.3787 -0.9980 -1.7196
30179SOL    HW291116   6.435   6.379   1.289  0.0402  2.1633  1.0481
30180SOL     OW91117   9.356   3.022   2.811  0.0248  0.4305  0.3621
30180SOL    HW191118   9.394   3.094   2.862 -0.9443 -0.6661  2.8236
30180SOL    HW291119   9.423   2.954   2.812 -0.0961  0.3095  0.4494
30181SOL     OW91120   7.060   0.820   3.758  0.1524  0.2439 -0.9416
30181SOL    HW191121   7.156   0.818   3.752  0.2769 -0.4881  0.7447
30181SOL    HW291122   7.035   0.729   3.771 -0.6490  0.6007  0.1342
30182SOL     OW91123   7.770   7.440   0.982  0.9643  0.1320 -0.3110
30182SOL    HW191124   7.824   7.368   0.951  1.8915  0.0688  1.3738
30182SOL    HW291125   7.755   7.422   1.075 -1.2249  0.6113 -0.5076
30183SOL     OW91126   2.575   9.330   7.133  0.3553  0.7623  0.6071
30183SOL    HW191127   2.622   9.252   7.164 -0.4332  0.4704  1.0833
30183SOL    HW291128   2.635   9.402   7.149  0.7300  0.3675  1.0151
30184SOL     OW91129   2.674   2.862   1.065 -0.6581 -0.4464  0.5736
30184SOL    HW191130   2.769   2.850   1.073 -0.3557  0.3781 -1.3825
30184SOL    HW291131   2.663   2.957   1.056 -1.5197 -0.6625 -0.8304
30185SOL     OW91132   2.237   6.738   8.723 -0.1433  0.1276 -0.2994
30185SOL    HW191133   2.146   6.762   8.737 -0.4891  0.3301 -2.5524
30185SOL    HW291134   2.268   6.798   8.655  1.1411 -1.0547 -0.8171
30186SOL     OW91135   1.144   0.952   4.579  0.4141  0.2148 -0.3727
30186SOL    HW191136   1.193   1.008   4.519  0.3585  0.1507 -0.4787
30186SOL    HW291137   1.183   0.865   4.570 -0.9947 -0.3117 -1.9667
30187SOL     OW91138   8.718   6.861   6.279 -0.2555 -0.1963  0.2235
30187SOL    HW191139   8.696   6.777   6.239 -0.2397 -0.1298  0.0741
30187SOL    HW291140   8.716   6.845   6.373  0.2950 -0.5066  0.1896
30188SOL     OW91141   1.119   7.283   3.492  0.1732  0.1204 -0.3714
30188SOL    HW191142   1.120   7.214   3.426  0.8881  0.5891 -0.8616
30188SOL    HW291143   1.212   7.295   3.515 -0.0904 -0.3658  1.0689
30189SOL     OW91144   0.378   7.171   1.191 -0.1036 -0.1530  0.4225
30189SOL    HW191145   0.310   7.137   1.249 -0.6154  1.6593  0.9426
30189SOL    HW291146   0.330   7.217   1.122  0.5610 -0.1446 -0.0474
30190SOL     OW91147   5.852   5.825   4.164  0.5943  0.3494 -0.3148
30190SOL    HW191148   5.852   5.758   4.233  0.4301  1.5459  0.9069
30190SOL    HW291149   5.931   5.807   4.113 -1.4796 -3.2779 -2.6769
30191SOL     OW91150   8.425   5.266   1.325  0.4877 -0.0184 -0.0564
30191SOL    HW191151   8.412   5.192   1.266 -0.0612 -0.6319  0.8058
30191SOL    HW291152   8.347   5.320   1.314 -1.1731 -1.7117  2.2825
30192SOL     OW91153   4.730   3.249   0.360  0.2399 -0.6830  0.0584
30192SOL    HW191154   4.659   3.300   0.398 -0.3098  0.0504 -1.8427
30192SOL    HW291155   4.764   3.197   0.433  1.1000  2.6139  2.2446
30193SOL     OW91156   9.469   0.020   0.255 -0.2431  0.9510  0.1142
30193SOL    HW191157   9.400   0.083   0.273 -0.5427  0.6395  0.0763
30193SOL    HW291158   9.533   0.033   0.325  0.5012  2.4068 -0.8081
30194SOL     OW91159   0.258   4.636   3.757 -0.4615  0.1324  0.4286
30194SOL    HW191160   0.195   4.569   3.731 -2.3599  2.1220 -0.4034
30194SOL    HW291161   0.262   4.695   3.682  0.9189  1.1244  1.2442
30195SOL     OW91162   4.876   9.827   6.101 -0.3274 -0.1166  0.1701
30195SOL    HW191163   4.862   9.753   6.161 -1.7909 -0.3701 -0.4377
30195SOL    HW291164   4.915   9.895   6.155 -0.0343 -0.9322  1.0152
30196SOL     OW91165   6.351   8.336   4.078  0.4597  0.2530  0.2738
30196SOL    HW191166   6.419   8.346   4.144  1.2616 -0.5139 -0.4062
30196SOL    HW291167   6.306   8.255   4.101  1.0803 -0.2962 -0.3960
30197SOL     OW91168   1.347   6.063   3.575  0.2040 -0.6486  0.3123
30197SOL    HW191169   1.254   6.085   3.586 -0.1206 -1.6398 -0.2293
30197SOL    HW291170   1.369   6.097   3.488  1.0162  1.6190  1.3354
30198SOL     OW91171   5.363   9.950   1.975  0.0563  0.0869  0.1382
30198SOL    HW191172   5.384  10.043   1.978  0.7807 -0.0874  0.6874
30198SOL    HW291173   5.270   9.947   1.954 -0.6887  1.0088  2.8899
30199SOL     OW91174   8.148   4.683   7.061 -0.1884  0.1666 -0.0063
30199SOL    HW191175   8.121   4.750   7.125  0.0753 -0.7556  1.1062
30199SOL    HW291176   8.065   4.648   7.027 -0.3309  0.7639 -0.2787
30200SOL     OW91177   2.902   0.109   4.133 -0.0488  0.3500 -0.2418
30200SOL    HW191178   2.813   0.077   4.149  0.2395 -0.7032 -0.6323
30200SOL    HW291179   2.953   0.029   4.117  0.6546  1.0358 -1.5849
30201SOL     OW91180   7.332   4.872   4.074 -0.2438 -0.3303 -0.0137
30201SOL    HW191181   7.319   4.942   4.139 -1.6399 -0.9856  0.4570
30201SOL    HW291182   7.349   4.794   4.126  0.7575 -0.4695 -0.5250
30202SOL     OW91183   9.159   8.410   9.560 -0.0591 -0.4936  0.0490
30202SOL    HW191184   9.190   8.493   9.524  0.2453 -0.2546  0.8421
30202SOL    HW291185   9.140   8.429   9.652 -0.1176 -1.2680  0.2042
30203SOL     OW91186   3.561   8.055   9.643 -0.2542  0.1654 -0.0721
30203SOL    HW191187   3.469   8.032   9.650 -0.4818  1.0337 -0.0828
30203SOL    HW291188   3.608   7.979   9.677 -0.9457 -0.5282 -0.6437
30204SOL     OW91189   3.730   2.715   6.292 -0.2483 -0.1982  0.3050
30204SOL    HW191190   3.809   2.757   6.325 -0.3078  1.0489 -1.0396
30204SOL    HW291191   3.720   2.749   6.203 -0.5165 -2.8018 -0.7542
30205SOL     OW91192   4.340   0.177   0.223  1.0438 -0.3358 -0.1158
30205SOL    HW191193   4.322   0.203   0.313  1.8694 -1.9873  0.5550
30205SOL    HW291194   4.259   0.197   0.176  0.5576  0.4255  0.9961
30206SOL     OW91195   4.837   1.654   9.763 -0.0405  0.0551 -0.5298
30206SOL    HW191196   4.769   1.702   9.715 -0.5742  0.7886  0.9155
30206SOL    HW291197   4.919   1.696   9.737 -0.5160  1.9669  0.8849
30207SOL     OW91198   8.831   5.379   2.204  0.1186  0.4494 -0.1224
30207SOL    HW191199   8.844   5.331   2.122  1.3748 -1.7468  1.2755
30207SOL    HW291200   8.820   5.311   2.270  0.8132  2.1187  1.8010
30208SOL     OW91201   7.215   1.456   7.861  0.3523  0.0512 -0.3554
30208SOL    HW191202   7.120   1.462   7.860  0.3244 -0.3697 -0.4615
30208SOL    HW291203   7.245   1.545   7.839  0.0520  1.2359  3.3069
30209SOL     OW91204   9.596   4.388   2.351 -0.3921  0.4263  0.0577
30209SOL    HW191205   9.504   4.373   2.329  0.0013  1.3528 -2.5470
30209SOL    HW291206   9.632   4.433   2.275  2.4717 -0.7458  0.5956
30210SOL     OW91207   8.456   8.853   0.893  0.3964 -0.2988  0.2019
30210SOL    HW191208   8.502   8.771   0.915 -1.9090 -1.1964  2.1269
30210SOL    HW291209   8.364   8.828   0.884 -0.4517  2.1289  1.2370
30211SOL     OW91210   4.896   1.278   4.593  0.0698  0.4455  0.1480
30211SOL    HW191211   4.933   1.239   4.514 -1.8567 -1.1126 -0.0701
30211SOL    HW291212   4.820   1.328   4.562 -0.9460 -0.5017  0.9837
30212SOL     OW91213   0.108   6.690   8.815 -0.0247  0.0803  0.1843
30212SOL    HW191214   0.189   6.725   8.778 -0.2437  0.6789  0.2612
30212SOL    HW291215   0.043   6.700   8.745  0.0527 -0.7727 -0.0222
30213SOL     OW91216   7.607   0.682   6.726  0.0568  0.3138  0.4183
30213SOL    HW191217   7.525   0.726   6.705 -0.8341 -1.1956  0.6450
30213SOL    HW291218   7.583   0.591   6.739  1.9984 -0.4741 -1.0260
30214SOL     OW91219   7.736   8.086   1.228  0.0641  0.0503  0.4960
30214SOL    HW191220   7.801   8.032   1.183  1.7619  1.7517  0.7635
30214SOL    HW291221   7.714   8.036   1.306  0.3330 -0.9892 -0.0728
30215SOL     OW91222   4.453   1.311   9.101  0.6731 -0.1149 -0.0151
30215SOL    HW191223   4.422   1.386   9.151  0.4866 -0.0817 -0.1801
30215SOL    HW291224   4.545   1.303   9.125  0.8311  0.4957 -0.4034
30216SOL     OW91225   3.222   1.042   1.588 -0.5633 -0.2668 -0.3886
30216SOL    HW191226   3.250   0.960   1.548 -0.7562  0.4074 -1.9874
30216SOL    HW291227   3.151   1.072   1.532  1.0315  2.1559 -1.2486
30217SOL     OW91228   9.965   5.110   8.833  0.1034  0.1506  0.8169
30217SOL    HW191229   9.935   5.194   8.867  1.1764  0.6403  0.5704
30217SOL    HW291230   9.946   5.048   8.903 -0.6597  0.5911  1.0140
30218SOL     OW91231   6.467   5.488   3.131  0.0597 -0.4591  0.0084
30218SOL    HW191232   6.497   5.540   3.057 -0.4874  1.3248  0.9745
30218SOL    HW291233   6.379   5.459   3.106 -0.0385 -0.0502 -0.1245
30219SOL     OW91234   2.450   5.540   2.869  0.4216 -0.3246  0.0987
30219SOL    HW191235   2.376   5.500   2.824 -0.6482  1.4868  0.1216
30219SOL    HW291236   2.461   5.489   2.950  0.1934 -1.5344 -0.6219
30220SOL     OW91237   4.387   2.498   0.212 -0.0828 -0.4438 -0.3334
30220SOL    HW191238   4.452   2.499   0.142 -0.3265  0.4654 -0.5488
30220SOL    HW291239   4.439   2.486   0.292  0.1868 -1.5906 -0.6500
30221SOL     OW91240   3.056   1.597   0.909 -0.6768  0.4972 -0.1381
30221SOL    HW191241   3.117   1.552   0.851 -1.2196 -0.3409 -0.0787
30221SOL    HW291242   2.980   1.618   0.854 -1.3164 -0.5599  0.3044
30222SOL     OW91243   5.584   2.744   5.863 -0.1296 -0.1531  0.2522
30222SOL    HW191244   5.624   2.664   5.897  0.4589  0.7153  1.6925
30222SOL    HW291245   5.510   2.713   5.811  0.9290 -1.6845 -0.4158
30223SOL     OW91246   7.662   4.045   5.115 -0.6760 -0.3401  0.2908
30223SOL    HW191247   7.647   3.951   5.106  0.8293 -0.5962  0.2105
30223SOL    HW291248   7.619   4.083   5.038 -2.6652 -0.7733  1.1355
30224SOL     OW91249   5.873   1.064   9.356 -0.6238 -0.5073  0.7133
30224SOL    HW191250   5.780   1.057   9.332 -0.0918 -1.3321 -1.2707
30224SOL    HW291251   5.920   1.045   9.275  1.2927  0.6764  1.5056
30225SOL     OW91252   5.380   7.214   5.298 -0.2814  0.3704  0.0209
30225SOL    HW191253   5.339   7.300   5.307 -1.1999 -0.1191  0.7372
30225SOL    HW291254   5.311   7.153   5.323  0.4751 -0.5573 -0.1279
30226SOL     OW91255   4.064   0.337   7.337 -0.2036  0.4213  0.2367
30226SOL    HW191256   4.150   0.341   7.378 -0.0150  0.1707 -0.1310
30226SOL    HW291257   4.055   0.247   7.306 -0.1492  0.7131 -0.6737
30227SOL     OW91258   5.451   8.278   1.016  0.5293 -0.1712 -0.0375
30227SOL    HW191259   5.446   8.237   1.102  0.5963 -0.0524  0.0232
30227SOL    HW291260   5.418   8.367   1.031  0.3039 -0.2273 -0.1845
30228SOL     OW91261   0.362   3.680   1.304  0.6227 -0.5029 -0.3871
30228SOL    HW191262   0.414   3.629   1.366  0.3100 -1.5490 -0.9600
30228SOL    HW291263   0.389   3.770   1.318 -0.6085 -0.4701  2.4227
30229SOL     OW91264   6.110   3.662   6.028 -0.0203  0.1322  0.3349
30229SOL    HW191265   6.111   3.757   6.015 -0.7876 -0.0080 -1.0278
30229SOL    HW291266   6.107   3.626   5.939  0.4590 -1.1817  0.8242
30230SOL     OW91267   5.570   9.341   3.811 -0.4469 -0.6798  0.0749
30230SOL    HW191268   5.619   9.342   3.893 -1.9236 -0.6294  1.0009
30230SOL    HW291269   5.614   9.275   3.757  1.4462  0.3586  0.3033
30231SOL     OW91270   1.982   9.515   4.421  0.1543 -0.0066 -0.1157
30231SOL    HW191271   1.932   9.440   4.453  0.4520 -0.5036 -0.8073
30231SOL    HW291272   2.049   9.478   4.364  1.1858  0.6670  0.6100
30232SOL     OW91273   0.728   5.271   4.547 -0.0390 -0.2794 -0.4919
30232SOL    HW191274   0.808   5.322   4.531  0.2316 -0.6506 -0.3408
30232SOL    HW291275   0.692   5.309   4.627  0.5082 -0.7453 -0.0206
30233SOL     OW91276   1.213   7.437   5.293 -0.2787  0.1150 -0.1846
30233SOL    HW191277   1.252   7.521   5.271  1.1684 -0.2003  0.9777
30233SOL    HW291278   1.219   7.432   5.389 -0.4460 -1.2498 -0.2228
30234SOL     OW91279   6.327   4.082   8.165 -0.0819 -0.0629 -0.5653
30234SOL    HW191280   6.333   4.062   8.259  1.9121  0.4826 -0.5425
30234SOL    HW291281   6.268   4.015   8.130  0.8473 -1.5969  0.6974
30235SOL     OW91282   7.172   1.926   2.961 -0.5389  0.4853 -0.2036
30235SOL    HW191283   7.185   1.850   3.018  0.3949 -0.8949 -2.1477
30235SOL    HW291284   7.095   1.904   2.909  0.1346  0.5276 -1.2555
30236SOL     OW91285   5.294   3.993   4.501 -0.0363 -0.6631 -0.1119
30236SOL    HW191286   5.219   3.971   4.556  1.2761  0.1830  2.1424
30236SOL    HW291287   5.324   3.909   4.466 -0.4197 -1.3473  1.1536
30237SOL     OW91288   2.344   5.880   6.727 -0.4915  0.1360  0.3810
30237SOL    HW191289   2.417   5.821   6.711  0.3694  1.4505 -0.7598
30237SOL    HW291290   2.273   5.823   6.757  0.5240 -1.3586  0.0641
30238SOL     OW91291   8.197   0.926   5.583  0.2817  0.4134 -0.3810
30238SOL    HW191292   8.225   0.860   5.647 -0.0691 -0.5710 -1.2136
30238SOL    HW291293   8.237   0.898   5.500  1.3545  2.0817 -0.4726
30239SOL     OW91294   7.113   4.777   9.652 -0.1064  0.1624 -0.5409
30239SOL    HW191295   7.174   4.852   9.652  0.7463 -0.4325  2.0259
30239SOL    HW291296   7.038   4.808   9.600  0.8594  2.2242 -0.8409
30240SOL     OW91297   9.585   8.779   0.600 -0.3701  0.2439 -0.2904
30240SOL    HW191298   9.572   8.872   0.619 -0.7459  0.3871 -1.2277
30240SOL    HW291299   9.596   8.774   0.506 -0.8595 -0.7150 -0.3186
30241SOL     OW91300   5.400   8.592   8.728  0.0315  0.4664 -0.2454
30241SOL    HW191301   5.328   8.531   8.713  0.7669 -0.2650 -0.9099
30241SOL    HW291302   5.420   8.582   8.821 -0.5750  0.5088 -0.1070
30242SOL     OW91303   4.256   7.097   5.890  0.4966 -0.3445 -0.7030
30242SOL    HW191304   4.260   7.185   5.927  0.8156 -1.4287  2.0679
30242SOL    HW291305   4.178   7.098   5.835 -0.7813  1.0806  1.0038
30243SOL     OW91306   0.905   8.119   1.275  0.7017  0.5215 -0.8706
30243SOL    HW191307   0.840   8.078   1.217 -0.9412  0.3072  1.0116
30243SOL    HW291308   0.944   8.045   1.322 -1.3341  0.8985  1.5921
30244SOL     OW91309   0.636   8.659   5.808  0.5385  0.0636  0.5443
30244SOL    HW191310   0.692   8.606   5.864 -0.5529  0.3093  1.9322
30244SOL    HW291311   0.653   8.749   5.836 -0.7953  0.1161  1.2450
30245SOL     OW91312   1.236   2.376   3.793 -0.1449  0.6631 -0.7628
30245SOL    HW191313   1.293   2.453   3.795 -0.0639  0.6226 -1.2758
30245SOL    HW291314   1.165   2.400   3.733 -0.9077  0.8744  0.1999
30246SOL     OW91315   3.694   5.654   6.522  0.2935 -0.6588 -0.2562
30246SOL    HW191316   3.712   5.560   6.528  1.8737 -0.3014  2.4896
30246SOL    HW291317   3.762   5.688   6.464 -0.0532 -1.1418 -0.9564
30247SOL     OW91318   5.188   4.267   1.722  0.6449 -0.2260 -0.5318
30247SOL    HW191319   5.254   4.313   1.670  1.5625  0.1258  0.8848
30247SOL    HW291320   5.153   4.200   1.663  1.9200 -0.0920 -1.4741
30248SOL     OW91321   6.888   3.241   8.857  0.7041  0.0789 -0.6252
30248SOL    HW191322   6.981   3.250   8.876  0.4369  0.2485  0.7328
30248SOL    HW291323   6.884   3.185   8.779  1.8879 -2.1186  0.8007
30249SOL     OW91324   2.983   8.130   3.681 -0.4610 -0.4431 -0.0068
30249SOL    HW191325   3.069   8.090   3.680 -0.6301 -0.8528  0.8411
30249SOL    HW291326   2.965   8.145   3.774 -0.7357  0.8794 -0.2419
30250SOL     OW91327   1.070   1.579   6.455  0.3275 -0.4626 -0.1187
30250SOL    HW191328   1.126   1.656   6.468  0.4057 -0.3992 -0.8149
30250SOL    HW291329   1.092   1.521   6.528 -1.1252  0.9857  1.5983
30251SOL     OW91330   1.569   8.986   6.634  0.1296 -0.5488 -0.2848
30251SOL    HW191331   1.530   8.904   6.603 -1.3117 -0.1536  0.4176
30251SOL    HW291332   1.610   8.963   6.717  0.1920 -0.6612 -0.3453
30252SOL     OW91333   3.790   1.259   5.156  0.6289 -0.0291 -0.5412
30252SOL    HW191334   3.791   1.336   5.214  0.6676 -0.3194 -0.1486
30252SOL    HW291335   3.881   1.250   5.127  0.4363  0.6593 -1.3835
30253SOL     OW91336   6.681   1.164   9.755 -0.1510  0.4751 -0.6461
30253SOL    HW191337   6.636   1.197   9.832 -1.1327  1.0769 -1.4474
30253SOL    HW291338   6.774   1.179   9.773 -0.3034 -0.1118  0.7293
30254SOL     OW91339   4.354   1.190   8.851  0.0934 -0.1778 -0.2047
30254SOL    HW191340   4.407   1.249   8.905 -0.5367 -0.4163  0.7037
30254SOL    HW291341   4.268   1.231   8.849 -0.1605 -0.6993 -0.1730
30255SOL     OW91342   3.449   0.385   7.540  0.2851 -0.3749  0.1721
30255SOL    HW191343   3.440   0.348   7.628  0.5704  0.2675  0.4744
30255SOL    HW291344   3.505   0.323   7.493  2.2402  0.5343  1.2036
30256SOL     OW91345   8.474   0.133   4.249 -0.3586  0.5355 -0.5964
30256SOL    HW191346   8.523   0.115   4.329  0.8008  2.4143 -0.8111
30256SOL    HW291347   8.401   0.188   4.278 -0.0617  1.0327 -0.7670
30257SOL     OW91348   7.430   3.184   3.670 -0.6096 -0.8611  0.4358
30257SOL    HW191349   7.368   3.245   3.710 -0.5898 -0.5533  0.0012
30257SOL    HW291350   7.445   3.117   3.737 -0.8595 -0.5484  0.8039
30258SOL     OW91351   7.991   1.051   6.013  0.0486 -0.3734 -0.0489
30258SOL    HW191352   8.044   1.125   5.985  0.4283 -0.4323  0.5016
30258SOL    HW291353   7.909   1.060   5.964  1.1538 -1.1951 -2.1808
30259SOL     OW91354   2.906   3.747   2.945 -0.8815 -0.5496  0.1967
30259SOL    HW191355   2.890   3.698   3.026  0.7140 -0.6013  0.5184
30259SOL    HW291356   2.872   3.835   2.963 -0.3642 -0.4990  1.0171
30260SOL     OW91357   9.574   7.227   7.711 -0.0047  0.7541 -0.0514
30260SOL    HW191358   9.483   7.256   7.718  0.2717  1.2139  2.0613
30260SOL    HW291359   9.611   7.281   7.641 -1.0885  1.2267 -0.2817
30261SOL     OW91360   8.685   9.178   0.204  0.5061  0.7817  0.0614
30261SOL    HW191361   8.676   9.255   0.260  0.0960 -0.4385  1.7356
30261SOL    HW291362   8.662   9.104   0.260 -0.2911 -0.4827 -1.8243
30262SOL     OW91363   4.127   6.620   4.496 -0.5636  0.1000 -0.5422
30262SOL    HW191364   4.098   6.555   4.432 -0.7375 -0.2325 -0.1347
30262SOL    HW291365   4.053   6.629   4.556 -0.5057  0.6099 -0.5440
30263SOL     OW91366   6.048   6.816   5.525 -0.4401 -0.1038  0.0272
30263SOL    HW191367   5.956   6.805   5.547 -0.2550  0.1377  1.0089
30263SOL    HW291368   6.049   6.863   5.442 -1.1993 -1.3373 -0.7100
30264SOL     OW91369   3.904   1.068   1.783 -0.2996  0.1788  0.2097
30264SOL    HW191370   3.879   0.976   1.784 -2.5720  0.7195  1.8088
30264SOL    HW291371   3.850   1.108   1.851  0.5773  2.7220 -0.4752
30265SOL     OW91372   3.833   7.736   8.576  0.4758 -0.4706  0.4847
30265SOL    HW191373   3.834   7.813   8.632 -1.6935 -0.9072  1.2506
30265SOL    HW291374   3.836   7.771   8.486  0.9720  0.4087  0.8348
30266SOL     OW91375   0.330   0.032   8.478  0.0941 -0.1678  0.3532
30266SOL    HW191376   0.240   0.039   8.447  0.1203  1.4589  0.5672
30266SOL    HW291377   0.333   0.089   8.555  1.0814 -0.9259  0.8933
30267SOL     OW91378   8.398   3.230   6.182  0.4118  0.2998  0.0115
30267SOL    HW191379   8.406   3.286   6.105  0.1840 -0.3917 -0.5277
30267SOL    HW291380   8.337   3.161   6.156  0.0596  0.2443  0.9298
30268SOL     OW91381   0.919   2.052   8.951 -0.3137 -0.4989  0.1549
30268SOL    HW191382   0.980   2.066   9.024  0.0599 -1.8391  0.1276
30268SOL    HW291383   0.904   1.958   8.950 -1.2090 -0.3678 -0.8079
30269SOL     OW91384   3.306   6.880   2.696 -0.0245  0.3995  0.4595
30269SOL    HW191385   3.396   6.853   2.710  1.0396  2.1380 -2.2427
30269SOL    HW291386   3.265   6.807   2.651  0.9041  0.6579 -0.8548
30270SOL     OW91387   1.331   9.209   6.057  0.2190  0.0107 -0.2631
30270SOL    HW191388   1.268   9.151   6.101 -1.5320  0.9717 -1.3912
30270SOL    HW291389   1.397   9.150   6.022  0.2105 -1.0026  1.3079
30271SOL     OW91390   9.208   0.172   9.150 -0.1828 -0.1132  0.2127
30271SOL    HW191391   9.207   0.129   9.065  1.1817 -0.9930  0.6160
30271SOL    HW291392   9.121   0.210   9.159 -0.7747 -1.1371 -0.9987
30272SOL     OW91393   2.705   8.959   2.395  1.0714  0.4203  0.0521
30272SOL    HW191394   2.696   8.928   2.304  1.8259  0.1081  0.0731
30272SOL    HW291395   2.679   8.884   2.448 -0.3596  0.9289  0.1064
30273SOL     OW91396   7.362   4.334   3.809 -1.0600  0.3346 -0.2297
30273SOL    HW191397   7.314   4.374   3.881  0.6691 -0.2941  1.3508
30273SOL    HW291398   7.436   4.392   3.793  1.0779 -1.6873  1.6013
30274SOL     OW91399   8.412   6.520   8.295  0.8108 -0.6082 -0.2961
30274SOL    HW191400   8.411   6.596   8.353  0.4331  0.1329 -1.2440
30274SOL    HW291401   8.496   6.526   8.249  0.5618 -0.4703 -0.7384
30275SOL     OW91402   8.422   0.503   0.488  0.7955 -0.0907  0.0777
30275SOL    HW191403   8.372   0.562   0.433  1.2380 -0.9378 -1.2905
30275SOL    HW291404   8.371   0.422   0.489  1.4362 -0.5125 -0.2086
30276SOL     OW91405   5.439   5.909   2.752 -0.7765 -0.9569  0.0570
30276SOL    HW191406   5.375   5.980   2.740  0.2101  0.3165  1.8635
30276SOL    HW291407   5.467   5.917   2.843  3.6946  0.0997 -1.1539
30277SOL     OW91408   8.083   6.273   5.465  0.8483 -0.4548  0.0455
30277SOL    HW191409   8.033   6.235   5.538  1.0490 -0.8436 -0.0163
30277SOL    HW291410   8.096   6.364   5.490 -1.5237  0.1809 -0.7972
30278SOL     OW91411   9.264   2.291   0.547  0.4017  0.1511  0.0057
30278SOL    HW191412   9.278   2.244   0.465  2.4171 -0.9819  0.9502
30278SOL    HW291413   9.207   2.364   0.522  0.8299 -0.2318 -2.3704
30279SOL     OW91414   5.053   2.716   1.982 -0.0218  0.1552 -0.2924
30279SOL    HW191415   5.025   2.628   1.955 -0.4384 -0.3366  1.6074
30279SOL    HW291416   4.978   2.772   1.962 -1.9139 -0.8760  3.2534
30280SOL     OW91417   8.996   3.902   4.709  0.0252  0.3678  0.1815
30280SOL    HW191418   9.040   3.955   4.776 -0.4534 -0.2216  0.9927
30280SOL    HW291419   9.055   3.903   4.634  1.1145  0.1321  1.0089
30281SOL     OW91420   3.702   8.704   2.171 -0.1111 -0.2523  0.4335
30281SOL    HW191421   3.710   8.679   2.263  0.8023 -0.2535  0.3635
30281SOL    HW291422   3.673   8.795   2.173  1.8665  0.4048  0.7671
30282SOL     OW91423   3.002   7.621   9.305 -0.1496 -0.4969 -0.0621
30282SOL    HW191424   2.958   7.701   9.277 -0.0022  0.2556  1.7370
30282SOL    HW291425   2.987   7.616   9.400  0.5837 -2.1326  0.0120
30283SOL     OW91426   7.126   4.218   7.760 -0.5139 -0.0451  0.0369
30283SOL    HW191427   7.103   4.201   7.669  0.9314  1.3253 -0.6186
30283SOL    HW291428   7.112   4.312   7.772 -0.7898 -0.2153  1.2796
30284SOL     OW91429   5.705   7.175   4.300 -0.2499 -0.5123 -0.4826
30284SOL    HW191430   5.649   7.129   4.237  1.1220 -1.3974 -1.1146
30284SOL    HW291431   5.645   7.202   4.370 -1.2093 -2.9521 -0.2422
30285SOL     OW91432   4.735   7.762   2.980 -0.4973  0.8547 -0.4107
30285SOL    HW191433   4.771   7.741   2.894  1.0741 -0.2418  0.4382
30285SOL    HW291434   4.643   7.738   2.974 -0.2022 -0.1204 -1.5103
30286SOL     OW91435   0.585   6.992   9.577 -0.0359 -0.4378  0.2897
30286SOL    HW191436   0.531   6.913   9.580  0.2250 -0.6432 -0.2811
30286SOL    HW291437   0.523   7.064   9.582 -0.3092 -0.6774  0.3673
30287SOL     OW91438   2.489   7.351   8.749  0.0866  0.3668 -0.4740
30287SOL    HW191439   2.529   7.284   8.805 -2.2411  0.7760  1.8502
30287SOL    HW291440   2.527   7.433   8.778 -0.4536  0.4954 -0.1307
30288SOL     OW91441   1.392   2.975   1.211  0.4242 -0.4411 -0.0741
30288SOL    HW191442   1.427   2.892   1.246  0.4679  0.0303  1.0437
30288SOL    HW291443   1.331   3.005   1.278 -0.2035  0.0344 -0.8513
30289SOL     OW91444   2.003   2.415   2.864  0.5672 -0.0200  0.5263
30289SOL    HW191445   2.005   2.510   2.878 -1.4583  0.2497 -0.7322
30289SOL    HW291446   1.923   2.399   2.816 -0.3755 -2.6854  2.7089
30290SOL     OW91447   9.971   4.273   4.557 -0.2485 -0.0822  0.1615
30290SOL    HW191448   9.971   4.303   4.466 -0.7174 -0.4735  0.0243
30290SOL    HW291449   9.883   4.237   4.570 -1.1084  2.3398  1.5829
30291SOL     OW91450   8.997   7.124   8.342 -0.0695 -0.1527  0.1847
30291SOL    HW191451   9.021   7.039   8.380 -0.8385  0.1475  1.4018
30291SOL    HW291452   8.958   7.102   8.258  0.6637 -0.9263  0.0252
30292SOL     OW91453   8.027   7.835   9.752  0.2409 -0.2307  0.1424
30292SOL    HW191454   7.937   7.825   9.785  0.3492  0.3385  0.6288
30292SOL    HW291455   8.023   7.913   9.696  0.2115 -0.7983 -0.6594
30293SOL     OW91456   9.628   7.817   5.207 -0.1063 -0.2397 -0.0379
30293SOL    HW191457   9.560   7.751   5.216 -0.5122  0.4077  2.4615
30293SOL    HW291458   9.632   7.835   5.113 -1.2988 -2.3988 -0.5691
30294SOL     OW91459   7.587   7.472   3.544  0.3742  0.3656 -0.3879
30294SOL    HW191460   7.682   7.483   3.536  0.5809 -0.2143  0.8967
30294SOL    HW291461   7.560   7.542   3.604  0.1085  0.0846 -0.1763
30295SOL     OW91462   4.485   4.959   4.227  0.0283 -0.2831  0.2942
30295SOL    HW191463   4.514   5.039   4.273  0.7004  0.0503 -0.6718
30295SOL    HW291464   4.470   4.988   4.137 -0.8721 -1.0114  0.2058
30296SOL     OW91465   3.903   3.882   1.829 -0.4016  0.2371  0.3524
30296SOL    HW191466   3.820   3.915   1.795 -0.5966 -0.0352  0.5615
30296SOL    HW291467   3.962   3.883   1.753 -0.9588 -0.7889 -0.1169
30297SOL     OW91468   5.540   6.601   9.401  0.1549 -0.4781  0.2234
30297SOL    HW191469   5.498   6.530   9.450 -0.7909  0.8340  1.3974
30297SOL    HW291470   5.499   6.598   9.315 -0.3975 -0.9109  0.4940
30298SOL     OW91471   9.621   1.801   0.856  0.2334 -0.4571  0.2853
30298SOL    HW191472   9.715   1.789   0.843 -0.0775 -1.3444 -1.4036
30298SOL    HW291473   9.615   1.875   0.917  2.0173 -0.1949  0.2029
30299SOL     OW91474   6.521   3.953   6.221 -0.1299 -0.9174  0.2247
30299SOL    HW191475   6.530   3.884   6.156  0.9692  1.1061 -1.9619
30299SOL    HW291476   6.599   4.008   6.207 -0.6463  0.4228  2.2601
30300SOL     OW91477   5.601   5.026   8.465  0.4598 -0.4044 -0.5181
30300SOL    HW191478   5.667   5.077   8.417 -0.1495  2.0256  1.0252
30300SOL    HW291479   5.651   4.983   8.535  0.6451  0.2742 -0.2175
30301SOL     OW91480   7.219   8.761   4.357  0.3661  0.6095  0.3165
30301SOL    HW191481   7.303   8.720   4.338  0.2222  0.5486 -0.2103
30301SOL    HW291482   7.201   8.816   4.280  0.1038  0.9099  0.5886
30302SOL     OW91483   0.932   9.408   7.593  0.1463 -0.2101  0.3688
30302SOL    HW191484   1.001   9.442   7.651  3.2462 -2.7317 -1.5447
30302SOL    HW291485   0.864   9.379   7.653  1.6051  0.5289  2.5363
30303SOL     OW91486   9.340   1.309   0.754 -0.0845  0.3171  0.0460
30303SOL    HW191487   9.292   1.375   0.804  1.2760  0.2827  1.5125
30303SOL    HW291488   9.412   1.358   0.714  1.3118 -0.2954  1.6668
30304SOL     OW91489   8.935   0.337   0.665  0.3937  1.1152 -0.0420
30304SOL    HW191490   8.906   0.416   0.711 -3.5235  0.2247 -0.6769
30304SOL    HW291491   8.960   0.277   0.735 -0.4054  1.5765  0.6647
30305SOL     OW91492   8.952   4.389   4.072 -0.2319  0.3384 -0.3874
30305SOL    HW191493   8.994   4.303   4.078  0.0285  0.5379  1.3679
30305SOL    HW291494   8.902   4.396   4.154 -1.3349  1.3201 -1.1048
30306SOL     OW91495   9.365   0.660   5.433  0.2161 -0.4883  0.5670
30306SOL    HW191496   9.351   0.604   5.356 -0.4781  0.8370 -0.3132
30306SOL    HW291497   9.314   0.618   5.503 -2.6109  0.4362 -0.7698
30307SOL     OW91498   9.555   1.947   1.332 -0.6774  0.1856 -0.3197
30307SOL    HW191499   9.578   2.021   1.388 -2.7464  0.6182  0.0056
30307SOL    HW291500   9.462   1.934   1.345 -0.4545 -2.2386 -0.6973
30308SOL     OW91501   5.051   5.827   6.402 -0.1054 -0.4870  1.0326
30308SOL    HW191502   5.040   5.879   6.482  0.1911 -0.5926  1.1435
30308SOL    HW291503   5.114   5.759   6.426  1.4075  0.5583  0.2067
30309SOL     OW91504   7.817   1.485   9.964  0.0812  0.3075  0.1453
30309SOL    HW191505   7.812   1.484   9.868  1.0137  0.0090  0.0942
30309SOL    HW291506   7.868   1.407   9.986 -0.2199  0.3165  0.8933
30310SOL     OW91507   9.489   7.476   5.427 -0.6403  0.1532 -0.1328
30310SOL    HW191508   9.408   7.508   5.387 -2.1433 -3.9364 -0.8468
30310SOL    HW291509   9.556   7.489   5.359 -2.0382 -1.7933 -1.9879
30311SOL     OW91510   3.465   5.514   5.108 -0.2574 -0.0768  0.3545
30311SOL    HW191511   3.470   5.543   5.017 -2.2787 -0.3151  0.1178
30311SOL    HW291512   3.492   5.590   5.159 -1.3198  0.8387 -0.3931
30312SOL     OW91513   9.533   9.683   5.103 -0.3536  0.6769 -0.4423
30312SOL    HW191514   9.449   9.637   5.095 -1.1404  2.1942 -1.2009
30312SOL    HW291515   9.571   9.678   5.015 -0.6140  1.7625 -0.6247
30313SOL     OW91516   6.091   8.602   7.517 -0.1257  0.3379 -0.4986
30313SOL    HW191517   6.151   8.674   7.498  0.7151  0.4035  2.0239
30313SOL    HW291518   6.009   8.645   7.541 -0.1596  0.3799 -0.6860
30314SOL     OW91519   7.692   7.893   6.311 -0.3503  0.3812  0.5280
30314SOL    HW191520   7.606   7.913   6.350  0.1050 -1.4503  2.6602
30314SOL    HW291521   7.714   7.807   6.345  1.2577 -0.2973 -1.9858
30315SOL     OW91522   1.009   2.790   7.223 -0.2168  0.1755 -0.6309
30315SOL    HW191523   1.095   2.750   7.237 -0.5207 -0.4258 -0.4455
30315SOL    HW291524   0.978   2.751   7.141 -0.2243  0.5482 -0.8063
30316SOL     OW91525   6.329   1.233   7.647 -0.2996 -0.1954 -0.1857
30316SOL    HW191526   6.369   1.232   7.560  0.4893  1.1520  0.1325
30316SOL    HW291527   6.343   1.322   7.679 -4.0648  0.6247 -0.2989
30317SOL     OW91528   6.460   7.843   5.947  0.1167  0.4939  0.4476
30317SOL    HW191529   6.550   7.868   5.967  0.2067  0.9964 -0.5461
30317SOL    HW291530   6.468   7.781   5.875 -0.3814  1.4681 -0.4779
30318SOL     OW91531   9.181   5.534   1.560 -0.3742 -0.3180  0.3042
30318SOL    HW191532   9.241   5.510   1.490 -0.4694 -0.1632  0.1706
30318SOL    HW291533   9.178   5.629   1.559 -0.6579 -0.3252  0.2787
30319SOL     OW91534   4.085   6.871   8.418 -0.2022  0.5153 -1.1139
30319SOL    HW191535   4.144   6.855   8.344  0.2629  2.1177 -1.1202
30319SOL    HW291536   4.071   6.784   8.456 -0.0541 -0.2824 -2.7689
30320SOL     OW91537   4.953   9.275   0.517  0.2094  0.0106  0.0693
30320SOL    HW191538   4.982   9.207   0.456 -1.3279 -1.5391  1.0003
30320SOL    HW291539   4.969   9.357   0.470  1.4616 -0.9880 -1.3615
30321SOL     OW91540   2.726   1.981   5.664 -0.9524 -0.1091 -0.0035
30321SOL    HW191541   2.769   1.989   5.748  1.3628  0.1855 -1.1418
30321SOL    HW291542   2.741   2.066   5.621 -0.6572 -0.8036 -1.3307
30322SOL     OW91543   8.325   5.899   3.260 -0.0437 -0.2887  0.1156
30322SOL    HW191544   8.237   5.865   3.277  0.1705 -0.7363  0.3550
30322SOL    HW291545   8.382   5.846   3.315  0.3874 -0.0626 -0.1091
30323SOL     OW91546   9.011   6.030   5.244  0.4781  0.0789  0.2452
30323SOL    HW191547   8.917   6.022   5.257  0.2466  1.8605 -0.0392
30323SOL    HW291548   9.024   6.017   5.150  0.6237 -0.8184  0.3772
30324SOL     OW91549   4.696   1.907   2.767  0.7018 -0.0949 -0.1009
30324SOL    HW191550   4.614   1.955   2.765 -0.0316 -1.3061 -0.4394
30324SOL    HW291551   4.739   1.929   2.684  1.1142  1.1491  0.4161
30325SOL     OW91552   3.901   5.937   0.933  0.0195  0.0354  0.1139
30325SOL    HW191553   3.992   5.959   0.912  0.3510 -1.6240 -0.3392
30325SOL    HW291554   3.902   5.913   1.025  0.0012  0.2127  0.1603
30326SOL     OW91555   3.604   1.931   8.733 -0.1624 -0.0144  0.3392
30326SOL    HW191556   3.569   1.845   8.708 -0.1942 -0.9748  3.2514
30326SOL    HW291557   3.685   1.940   8.683  0.2717 -2.1732  0.5358
30327SOL     OW91558   0.147   1.843   9.817  0.0483 -0.1251 -0.1721
30327SOL    HW191559   0.236   1.826   9.785 -0.4814 -0.3002 -1.6423
30327SOL    HW291560   0.125   1.766   9.869  0.3791 -0.5834 -0.6906
30328SOL     OW91561   5.605   6.227   7.995  0.4781 -0.4309 -0.5864
30328SOL    HW191562   5.600   6.171   8.072 -0.2541 -0.4284 -0.6217
30328SOL    HW291563   5.641   6.310   8.027 -2.3843  0.5805  0.3800
30329SOL     OW91564   6.901   0.035   7.463 -0.0095 -0.2794 -0.8333
30329SOL    HW191565   6.828   0.068   7.516  1.1706  0.3855  0.4328
30329SOL    HW291566   6.971   0.017   7.526  0.8061 -1.2934 -1.9703
30330SOL     OW91567   1.605   6.524   6.144 -0.2683 -0.3579 -0.4654
30330SOL    HW191568   1.701   6.525   6.153 -0.0247 -0.6098 -2.5248
30330SOL    HW291569   1.590   6.490   6.056 -2.2189  0.8808 -0.6713
30331SOL     OW91570   4.280   8.189   5.908  0.3659  0.4148  0.3647
30331SOL    HW191571   4.346   8.241   5.953  0.4421 -0.3843  1.2118
30331SOL    HW291572   4.197   8.216   5.947  0.3954 -0.0192  0.7305
30332SOL     OW91573   3.370   8.490   9.417 -0.1875 -1.2652  0.1207
30332SOL    HW191574   3.330   8.407   9.443  0.2496 -1.5334 -0.0506
30332SOL    HW291575   3.311   8.557   9.453  0.4700 -1.6125  1.9264
30333SOL     OW91576   1.638   8.821   9.880 -0.0177  0.5062 -0.1176
30333SOL    HW191577   1.605   8.808   9.791  1.0537 -0.0415 -0.4615
30333SOL    HW291578   1.561   8.837   9.933 -0.5680  2.7303 -1.4546
30334SOL     OW91579   0.402   6.135   2.562 -0.1766  0.1402 -0.0036
30334SOL    HW191580   0.310   6.148   2.539 -0.4575 -0.6641  0.6367
30334SOL    HW291581   0.417   6.042   2.549 -0.0212 -0.1282  1.8398
30335SOL     OW91582   2.176   7.748   3.278  0.3997 -0.7698 -0.2522
30335SOL    HW191583   2.253   7.805   3.272 -0.1330  0.0092  0.1374
30335SOL    HW291584   2.152   7.729   3.187  0.5737 -0.3702 -0.3810
30336SOL     OW91585   1.878   1.693   2.766 -0.3657 -0.0837  0.0459
30336SOL    HW191586   1.908   1.619   2.713 -2.1562 -1.0236  0.2809
30336SOL    HW291587   1.932   1.688   2.846 -1.1001 -1.7638  0.4934
30337SOL     OW91588   0.187   6.454   7.857  0.1177  0.9179  0.3551
30337SOL    HW191589   0.118   6.467   7.922  1.2160  2.6881  1.2403
30337SOL    HW291590   0.227   6.370   7.880 -2.3919 -0.7722 -0.8920
30338SOL     OW91591   5.872   5.190   3.946  0.0044 -0.1577  0.2211
30338SOL    HW191592   5.930   5.138   3.891  1.2347  0.7405  0.6085
30338SOL    HW291593   5.898   5.280   3.930 -0.6774  0.2152  1.1004
30339SOL     OW91594   8.404   3.266   0.540  0.1490 -0.3907  0.1085
30339SOL    HW191595   8.485   3.218   0.521  0.2835 -1.0330  2.1174
30339SOL    HW291596   8.416   3.350   0.496  2.0445 -0.3578  0.5870
30340SOL     OW91597   6.265   8.214   6.914 -0.4058 -0.0486 -0.4013
30340SOL    HW191598   6.292   8.178   6.829 -0.1462  1.2782 -0.8999
30340SOL    HW291599   6.193   8.273   6.893 -0.3905  0.2285  0.3237
30341SOL     OW91600   4.385   3.188   1.614  0.3333 -0.0712 -0.1669
30341SOL    HW191601   4.313   3.174   1.553 -1.0602 -1.6453  1.7153
30341SOL    HW291602   4.375   3.118   1.679  1.2258  1.9977  2.3499
30342SOL     OW91603   5.018   8.628   1.151  0.4810  0.0527 -0.1193
30342SOL    HW191604   5.076   8.638   1.226 -0.6347 -0.8740  0.8990
30342SOL    HW291605   4.932   8.652   1.184  0.3719  2.3529 -1.8513
30343SOL     OW91606   1.186   5.775   3.829 -0.1026 -0.5677 -0.0705
30343SOL    HW191607   1.206   5.699   3.884 -0.0367 -0.6270 -0.1752
30343SOL    HW291608   1.219   5.751   3.743  1.3892  0.2120  0.2435
30344SOL     OW91609   5.294   5.686   0.991  0.2114 -0.0884 -0.4401
30344SOL    HW191610   5.208   5.685   1.033 -0.6495 -1.2977 -2.1012
30344SOL    HW291611   5.315   5.594   0.977  2.9674  0.0208  2.0551
30345SOL     OW91612   2.210   4.921   2.484  0.5866 -0.3328 -0.5672
30345SOL    HW191613   2.255   4.921   2.569 -2.9026 -0.7809  1.4843
30345SOL    HW291614   2.224   4.833   2.450  1.5682 -0.3338 -0.1912
30346SOL     OW91615   0.237   3.553   0.042  0.5429 -0.6740 -0.2042
30346SOL    HW191616   0.263   3.508   0.122 -0.1178 -0.5493  0.0908
30346SOL    HW291617   0.142   3.566   0.052  0.6018  0.1014 -0.6228
30347SOL     OW91618   1.038   0.962   9.067  0.0949  0.1960  0.2188
30347SOL    HW191619   0.994   1.012   8.998 -1.4046 -2.8594 -1.2573
30347SOL    HW291620   0.977   0.964   9.141  0.2542  0.8760  0.3373
30348SOL     OW91621   3.693   9.000   9.710  0.1851  0.2496 -0.2882
30348SOL    HW191622   3.772   8.949   9.693 -0.3180 -0.7666  0.2941
30348SOL    HW291623   3.626   8.959   9.656 -0.2116  0.3474  0.1256
30349SOL     OW91624   6.841   4.358   7.534 -0.0080 -0.0041  0.4308
30349SOL    HW191625   6.886   4.367   7.449 -2.2676  1.4576 -0.7169
30349SOL    HW291626   6.843   4.264   7.552 -0.9126 -0.6022 -2.1364
30350SOL     OW91627   8.288   0.768   5.383  0.6870 -0.6498 -0.4213
30350SOL    HW191628   8.348   0.757   5.309 -0.0678 -0.9374 -1.0076
30350SOL    HW291629   8.201   0.765   5.343  0.2111 -2.1666  0.6261
30351SOL     OW91630   6.292   2.887   3.298  0.1656 -0.4565  0.1066
30351SOL    HW191631   6.284   2.925   3.211  0.3389 -1.0186 -0.1583
30351SOL    HW291632   6.373   2.924   3.334  0.5811 -0.9176 -0.3320
30352SOL     OW91633   1.981   5.916   9.326 -0.2696 -0.0274  0.0076
30352SOL    HW191634   1.981   5.972   9.403 -0.3020  0.0322 -0.0353
30352SOL    HW291635   2.042   5.845   9.347  1.8338  1.3724 -0.9002
30353SOL     OW91636   4.656   3.696   9.570  0.1924 -0.3238  0.3232
30353SOL    HW191637   4.715   3.628   9.538 -0.1041 -0.6123  0.3824
30353SOL    HW291638   4.712   3.774   9.580  0.1871 -0.0318 -1.4797
30354SOL     OW91639   7.588   0.716   2.892  0.4958  0.0555 -0.2245
30354SOL    HW191640   7.641   0.785   2.931  0.5913 -0.9750  1.6211
30354SOL    HW291641   7.588   0.646   2.958 -1.1162 -0.9602 -1.2276
30355SOL     OW91642   8.040   0.198   9.982  0.1838 -0.1602 -0.4260
30355SOL    HW191643   7.990   0.230   9.906  0.3389  1.0765 -0.0372
30355SOL    HW291644   8.131   0.212   9.958  0.2346  0.1921 -0.0336
30356SOL     OW91645   4.481   6.087   2.052 -0.2027 -0.0456 -0.3509
30356SOL    HW191646   4.386   6.089   2.062 -0.2444  1.4220 -0.8908
30356SOL    HW291647   4.510   6.175   2.076  0.9674 -0.2880 -0.7945
30357SOL     OW91648   1.109   0.097   9.145  0.2245  0.3653  0.0218
30357SOL    HW191649   1.162   0.154   9.088 -0.8069  1.5814  0.2307
30357SOL    HW291650   1.091   0.151   9.222  1.5428 -1.2308  1.5136
30358SOL     OW91651   1.135   1.329   6.861  0.1901 -0.1595  0.0467
30358SOL    HW191652   1.144   1.380   6.781  0.4741  1.4474  1.0602
30358SOL    HW291653   1.044   1.341   6.888 -0.4147 -2.1489 -0.9296
30359SOL     OW91654   2.067   6.597   9.328  0.3045 -0.1748 -0.0053
30359SOL    HW191655   2.001   6.564   9.389 -1.5626  0.3218 -1.6800
30359SOL    HW291656   2.121   6.520   9.308  0.0584 -0.6656  1.1153
30360SOL     OW91657   6.150   3.977   0.086 -0.0656 -0.2451  0.1350
30360SOL    HW191658   6.208   3.904   0.107  1.4927  0.7859 -0.3192
30360SOL    HW291659   6.179   4.048   0.144 -0.8042  0.3328 -0.1831
30361SOL     OW91660   8.001   0.357   1.399 -0.5608  0.5649 -0.1968
30361SOL    HW191661   7.998   0.262   1.386  2.2450  0.5940 -1.9084
30361SOL    HW291662   7.984   0.394   1.312 -0.5970  1.6162  0.2385
30362SOL     OW91663   0.688   4.525   2.141  0.1978 -0.1203  0.4742
30362SOL    HW191664   0.648   4.439   2.129 -0.2225  0.0847  0.3787
30362SOL    HW291665   0.712   4.553   2.053 -0.6085  0.3015  0.3753
30363SOL     OW91666   5.529   3.983   2.366 -1.2103 -0.0436 -0.6103
30363SOL    HW191667   5.532   4.055   2.429 -1.5623 -0.5730  0.0197
30363SOL    HW291668   5.574   4.017   2.289 -0.2578  0.4148  0.1267
30364SOL     OW91669   7.796   7.055   1.641  0.6732 -0.2127  0.2018
30364SOL    HW191670   7.751   6.988   1.691 -0.1038  0.1333 -0.0219
30364SOL    HW291671   7.877   7.012   1.611  0.3918 -0.9089  0.4180
30365SOL     OW91672   8.446   8.978   3.598 -0.2631 -0.3265  0.3079
30365SOL    HW191673   8.521   9.020   3.639  0.0727 -0.4609 -0.1719
30365SOL    HW291674   8.483   8.918   3.534 -0.7572 -0.9627  0.6081
30366SOL     OW91675   8.192   1.517   3.254  0.9418  0.3293  0.8795
30366SOL    HW191676   8.169   1.603   3.220  0.7075 -0.3687 -0.8254
30366SOL    HW291677   8.127   1.499   3.322  0.0211  0.8310  0.1447
30367SOL     OW91678   5.881   9.084   6.038 -0.5013  0.2967  0.7389
30367SOL    HW191679   5.977   9.081   6.046 -0.5229  1.0855  1.3128
30367SOL    HW291680   5.860   9.177   6.032 -1.3254  0.1942  1.8059
30368SOL     OW91681   5.884   1.888   2.968 -0.0870  0.0525 -0.8502
30368SOL    HW191682   5.798   1.857   2.937 -0.4673 -0.2160  0.4216
30368SOL    HW291683   5.894   1.973   2.926 -1.0264  0.1333 -0.9443
30369SOL     OW91684   0.902   2.786   2.857 -0.3227  0.1750 -0.2743
30369SOL    HW191685   0.994   2.781   2.830 -0.4678 -1.2122 -0.5678
30369SOL    HW291686   0.905   2.785   2.952 -0.0384 -0.1297 -0.2847
30370SOL     OW91687   5.308   6.996   1.118  0.1625 -0.3846 -0.3442
30370SOL    HW191688   5.250   6.923   1.095 -1.3253  0.6252  0.0213
30370SOL    HW291689   5.396   6.960   1.108 -0.3859 -1.2340 -3.6531
30371SOL     OW91690   7.637   8.698   5.695  0.2304  0.0184  0.3441
30371SOL    HW191691   7.577   8.745   5.752  0.9016 -1.4009  2.3510
30371SOL    HW291692   7.631   8.743   5.610 -0.1696  2.7959  1.7278
30372SOL     OW91693   3.889   1.624   8.845  0.1776  0.1376  0.8666
30372SOL    HW191694   3.918   1.576   8.923  0.1767 -1.4839 -0.0858
30372SOL    HW291695   3.794   1.630   8.854  0.0137 -1.3367  0.3167
30373SOL     OW91696   3.597   4.186   2.078 -0.1754  0.0301  0.8353
30373SOL    HW191697   3.608   4.240   2.156 -0.1184  1.3306 -0.0435
30373SOL    HW291698   3.509   4.206   2.047 -0.3629 -0.8087  0.7909
30374SOL     OW91699   0.321   3.633   8.176  0.0553  0.1597  0.1670
30374SOL    HW191700   0.321   3.550   8.128 -0.0394 -0.8555  1.8591
30374SOL    HW291701   0.398   3.680   8.144  2.1718 -2.0919  1.6354
30375SOL     OW91702   1.176   9.227   7.535  0.4052 -0.0923 -0.1601
30375SOL    HW191703   1.090   9.255   7.567  0.4931  0.1942 -0.1708
30375SOL    HW291704   1.204   9.298   7.477 -0.1668 -1.0013 -1.6281
30376SOL     OW91705   4.337   3.978   0.879 -0.4544 -0.4872  0.4207
30376SOL    HW191706   4.425   4.005   0.851 -1.0338  1.8433  0.6053
30376SOL    HW291707   4.347   3.887   0.906  1.2599 -1.2414 -2.3461
30377SOL     OW91708   4.334   0.062   4.384 -0.2320  0.6842  0.2153
30377SOL    HW191709   4.399   0.103   4.327 -0.4774  1.2338  0.3268
30377SOL    HW291710   4.382  -0.010   4.426  0.5092  1.4698  0.7788
30378SOL     OW91711   6.000   0.754   9.341  0.0091  0.3719  0.6443
30378SOL    HW191712   6.070   0.702   9.382 -0.0841  0.5671  1.0639
30378SOL    HW291713   5.984   0.711   9.257 -0.7839 -0.9090  1.4160
30379SOL     OW91714   1.567   0.402   3.844  0.6781 -0.4421  0.1571
30379SOL    HW191715   1.582   0.309   3.863 -0.5510 -0.4882  0.9992
30379SOL    HW291716   1.639   0.426   3.786  0.6135 -2.1104 -0.6779
30380SOL     OW91717   8.218   3.071   0.603 -0.1153  0.2665 -0.5552
30380SOL    HW191718   8.285   3.133   0.575  0.3710  0.0011  0.0022
30380SOL    HW291719   8.220   3.073   0.698 -0.2234 -0.4637 -0.5279
30381SOL     OW91720   6.976   7.483   3.592 -0.0084  0.2686  0.0962
30381SOL    HW191721   7.046   7.428   3.556 -0.0139  0.5091 -0.2870
30381SOL    HW291722   7.020   7.540   3.654  0.2901  1.0219 -0.7880
30382SOL     OW91723   6.160   2.051   5.624 -0.4518 -0.0542 -0.7067
30382SOL    HW191724   6.066   2.040   5.618 -0.3737 -0.0431 -2.8964
30382SOL    HW291725   6.182   2.111   5.552  1.1376  0.5108  0.2030
30383SOL     OW91726   3.309   4.260   5.442 -0.0497  0.1173 -0.3531
30383SOL    HW191727   3.242   4.192   5.441  1.7372 -1.7493 -0.5401
30383SOL    HW291728   3.362   4.243   5.364  1.0525  1.0516  0.1597
30384SOL     OW91729   4.960   6.079   2.666 -0.4468  0.1863  0.1727
30384SOL    HW191730   4.893   6.131   2.710 -0.4539  0.0016  0.3807
30384SOL    HW291731   4.924   5.990   2.662  0.1362 -0.1076  1.0540
30385SOL     OW91732   2.931   2.706   9.676 -0.0288  0.1391 -0.3520
30385SOL    HW191733   2.859   2.682   9.734  0.0587  0.5279 -0.0792
30385SOL    HW291734   3.000   2.737   9.734  0.6853 -1.0290 -0.5596
30386SOL     OW91735   6.943   6.124   3.386  0.8926  0.2023  0.0513
30386SOL    HW191736   7.023   6.136   3.335  1.8420 -0.8270  1.2376
30386SOL    HW291737   6.973   6.107   3.475 -0.6204 -0.8064  0.4159
30387SOL     OW91738   5.604   3.009   1.129  0.0668 -0.4604  0.0677
30387SOL    HW191739   5.628   2.925   1.168  0.8064 -0.9323 -1.3025
30387SOL    HW291740   5.623   3.074   1.196 -2.9360 -1.5246  2.1358
30388SOL     OW91741   2.674   1.870   5.300 -0.0345  0.2347  0.8659
30388SOL    HW191742   2.683   1.846   5.208 -0.0655  1.5235  0.5193
30388SOL    HW291743   2.721   1.801   5.347 -3.8038 -3.1229  0.2630
30389SOL     OW91744   9.840   7.729   2.997  0.2586 -0.1462  0.2086
30389SOL    HW191745   9.806   7.671   2.928 -0.7271 -0.0730  0.6116
30389SOL    HW291746   9.899   7.674   3.048  0.4280 -0.4037 -0.2600
30390SOL     OW91747   1.815   8.772   8.665  0.0787 -0.3200  0.0962
30390SOL    HW191748   1.800   8.854   8.711  1.6536 -0.1236  0.3370
30390SOL    HW291749   1.901   8.743   8.696  0.2190 -1.2884 -1.1182
30391SOL     OW91750   4.516   5.977   6.765 -0.6005 -0.0210 -0.2176
30391SOL    HW191751   4.455   5.913   6.802 -0.3714  0.0724  0.3407
30391SOL    HW291752   4.506   6.055   6.820  0.9193 -0.4265  0.6955
30392SOL     OW91753   2.538   7.797   7.878 -0.2137 -0.2348  0.5467
30392SOL    HW191754   2.516   7.716   7.924  1.1217 -0.4897  0.7698
30392SOL    HW291755   2.520   7.867   7.941 -0.7845 -0.3937  0.5649
30393SOL     OW91756   9.541   1.583   7.304 -0.3888  0.2727  0.2275
30393SOL    HW191757   9.591   1.598   7.385 -0.1239 -0.1878  0.1547
30393SOL    HW291758   9.607   1.580   7.235 -0.6508  1.0261 -0.0609
30394SOL     OW91759   4.441   5.934   7.140  0.4213 -0.2064 -0.3076
30394SOL    HW191760   4.357   5.940   7.095  0.0189  1.4498  0.5924
30394SOL    HW291761   4.422   5.960   7.230  1.7642 -0.5441  0.0895
30395SOL     OW91762   0.297   4.925   4.147  0.0562  0.1070  0.0088
30395SOL    HW191763   0.383   4.966   4.147 -0.3896  1.0828  0.3101
30395SOL    HW291764   0.314   4.833   4.128  0.9559  0.7402 -2.7742
30396SOL     OW91765   9.058   4.333   9.131 -0.1805 -0.2214 -0.7814
30396SOL    HW191766   9.021   4.270   9.069  0.5458 -1.8625  0.3733
30396SOL    HW291767   9.134   4.289   9.168  0.1433  1.2025  0.3540
30397SOL     OW91768   0.085   7.464   0.728 -0.2513 -0.0119  0.2266
30397SOL    HW191769   0.129   7.537   0.772 -0.7079  0.3445  0.1006
30397SOL    HW291770   0.156   7.417   0.684  0.2533 -0.5394  1.5548
30398SOL     OW91771   0.865   7.796   6.831  0.4432 -0.4351 -0.2038
30398SOL    HW191772   0.922   7.866   6.800  0.6809  0.3382  1.8261
30398SOL    HW291773   0.923   7.722   6.846  0.7840  0.0408  0.9123
30399SOL     OW91774   6.653   3.383   7.602  0.5959  0.0038  0.0176
30399SOL    HW191775   6.610   3.334   7.532 -1.6143  2.5356 -0.5621
30399SOL    HW291776   6.628   3.336   7.682 -1.0745 -0.1422 -0.5445
30400SOL     OW91777   3.651   1.579   2.204  0.4881 -0.6795  0.1493
30400SOL    HW191778   3.736   1.619   2.190  0.0946 -0.1467 -0.8155
30400SOL    HW291779   3.598   1.647   2.245  0.5439 -1.0329  0.8183
30401SOL     OW91780   1.243   9.963   0.966 -0.4098 -0.3174  0.4654
30401SOL    HW191781   1.200   9.879   0.979 -2.0357 -0.2537 -3.3424
30401SOL    HW291782   1.187  10.027   1.011 -1.3081 -0.8532  0.1237
30402SOL     OW91783   3.284   6.154   5.239  0.4220  0.6798 -0.0673
30402SOL    HW191784   3.252   6.234   5.281  0.2081  1.2006 -1.1969
30402SOL    HW291785   3.357   6.125   5.295  1.2078  2.2567 -0.2366
30403SOL     OW91786   7.557   6.860   0.346  0.0977 -0.4515 -0.1539
30403SOL    HW191787   7.506   6.914   0.407 -0.3336  0.7276 -1.5207
30403SOL    HW291788   7.640   6.846   0.392  0.3704  1.6957  0.1348
30404SOL     OW91789   5.477   7.245   2.186 -0.1890 -0.6165 -0.0636
30404SOL    HW191790   5.512   7.244   2.097  0.6984 -4.5655  0.1329
30404SOL    HW291791   5.552   7.221   2.241 -1.3333 -0.9082  1.4144
30405SOL     OW91792   0.234   4.459   1.302  0.0500 -0.8537  0.3825
30405SOL    HW191793   0.218   4.521   1.230  1.7952 -1.7830 -0.8636
30405SOL    HW291794   0.182   4.494   1.375  0.3043  1.5941 -0.5178
30406SOL     OW91795   2.738   3.606   0.935 -0.1375 -0.1207  0.3389
30406SOL    HW191796   2.718   3.699   0.948  0.8511  0.1931 -0.3110
30406SOL    HW291797   2.781   3.580   1.017  2.1374  0.7395 -0.5159
30407SOL     OW91798   7.344   0.428   2.773  0.7806 -0.0455  0.1534
30407SOL    HW191799   7.392   0.447   2.854  0.8644  1.0311 -0.1330
30407SOL    HW291800   7.268   0.486   2.777  0.3297 -0.6046 -0.1434
30408SOL     OW91801   6.684   4.512   3.001 -0.1512 -0.2075  0.0542
30408SOL    HW191802   6.598   4.535   3.037  0.0476  2.5102 -1.0432
30408SOL    HW291803   6.669   4.503   2.907  0.9043  1.2749 -0.2868
30409SOL     OW91804   1.896   4.380   0.147  0.1234  0.2138  0.1686
30409SOL    HW191805   1.807   4.350   0.164  0.1967  0.3533  0.8369
30409SOL    HW291806   1.885   4.461   0.098 -0.0982 -0.1688 -0.4285
30410SOL     OW91807   1.319   8.902   8.598 -0.3396 -0.3610  0.2921
30410SOL    HW191808   1.258   8.828   8.589  0.3699 -0.9154 -0.0255
30410SOL    HW291809   1.390   8.882   8.537 -1.2804  1.7780 -1.6603
30411SOL     OW91810   4.450   1.300   1.775  1.3640  0.9662  0.7781
30411SOL    HW191811   4.439   1.250   1.695 -0.6972 -1.9416  2.6974
30411SOL    HW291812   4.414   1.386   1.754 -2.6411 -0.7895 -0.5143
30412SOL     OW91813   1.726   4.241   8.177  0.2331  0.1278  0.2121
30412SOL    HW191814   1.770   4.158   8.156  0.8522  0.4773  0.1004
30412SOL    HW291815   1.691   4.227   8.265  1.0469  0.0137  0.5348
30413SOL     OW91816   4.794   8.223   9.696  0.8735 -0.5341  0.4303
30413SOL    HW191817   4.777   8.314   9.672 -0.6604 -0.5838  1.2097
30413SOL    HW291818   4.866   8.196   9.639 -0.9335  0.0843 -2.3097
30414SOL     OW91819   4.264   3.348   7.656 -0.1986  0.3567  0.0527
30414SOL    HW191820   4.323   3.276   7.678  0.1732  0.2570 -1.1742
30414SOL    HW291821   4.191   3.307   7.609 -0.4012  0.6827  0.0741
30415SOL     OW91822   3.802   8.369   0.874 -0.1635 -0.0813  0.7994
30415SOL    HW191823   3.841   8.284   0.896 -2.9000 -1.6306  0.0394
30415SOL    HW291824   3.873   8.417   0.829  1.3880 -2.0081  1.0724
30416SOL     OW91825   2.202   7.943   4.673  0.2037 -0.3954  0.4251
30416SOL    HW191826   2.219   8.016   4.612  0.9931 -0.7742  0.1725
30416SOL    HW291827   2.288   7.924   4.711 -0.2620 -0.2554  1.5638
30417SOL     OW91828   0.351   0.625   0.346  0.0225 -0.2583  0.1406
30417SOL    HW191829   0.415   0.632   0.416  1.0730  1.7965 -0.9343
30417SOL    HW291830   0.367   0.701   0.290 -2.4504 -0.4211 -0.9524
30418SOL     OW91831   5.590   8.977   3.702 -0.2387 -0.0906 -0.2524
30418SOL    HW191832   5.649   9.052   3.695 -0.3374 -0.0795 -1.1091
30418SOL    HW291833   5.627   8.912   3.641 -1.1076 -0.0755 -0.8069
30419SOL     OW91834   5.171   7.796   6.696  0.2132  0.3234 -0.5436
30419SOL    HW191835   5.232   7.739   6.648  0.0940  0.5716 -0.9971
30419SOL    HW291836   5.124   7.736   6.754 -0.1908 -0.1138 -1.3005
30420SOL     OW91837   0.648   6.978   1.609  0.1259 -0.2890 -0.5102
30420SOL    HW191838   0.743   6.967   1.602 -0.0279 -1.5406 -0.9817
30420SOL    HW291839   0.612   6.900   1.566 -1.1148  0.1272 -0.2643
30421SOL     OW91840   0.463   8.808   3.614  0.3679  0.7919  0.1108
30421SOL    HW191841   0.531   8.864   3.577 -1.0635  2.4221 -0.1861
30421SOL    HW291842   0.413   8.866   3.671 -0.5205 -0.4769  0.6659
30422SOL     OW91843   5.669   9.134   5.421  0.3889  0.3304 -0.4949
30422SOL    HW191844   5.674   9.091   5.335  1.4204 -1.5340  0.4418
30422SOL    HW291845   5.579   9.118   5.450  0.8700 -1.6821  0.0230
30423SOL     OW91846   5.910   4.866   8.052 -0.3256  0.1447 -0.3195
30423SOL    HW191847   5.922   4.855   8.146  0.0621  1.8973 -0.1198
30423SOL    HW291848   5.961   4.796   8.012 -0.4128 -0.5540  0.7695
30424SOL     OW91849   2.437   2.572   8.344  0.0891 -0.2015 -0.4895
30424SOL    HW191850   2.424   2.557   8.251  1.2258 -0.0561 -0.6893
30424SOL    HW291851   2.526   2.606   8.351 -0.0916  0.1039  0.6170
30425SOL     OW91852   6.842   4.798   1.193 -0.2340  0.4200  0.4084
30425SOL    HW191853   6.786   4.796   1.270  1.1507  0.6933  1.4652
30425SOL    HW291854   6.781   4.807   1.119 -1.5184  1.7707  1.5637
30426SOL     OW91855   8.392   6.892   9.785  0.7426 -0.4983  0.5728
30426SOL    HW191856   8.334   6.875   9.860  0.4862  0.0771  0.5084
30426SOL    HW291857   8.335   6.934   9.720  0.8258 -1.4904 -0.1679
30427SOL     OW91858   1.858   9.632   6.298 -0.3607  0.4509 -0.0780
30427SOL    HW191859   1.765   9.621   6.279 -0.1627 -1.0703 -0.2767
30427SOL    HW291860   1.903   9.588   6.226  0.4526 -1.3718  1.4567
30428SOL     OW91861   5.971   5.872   8.287  0.1835 -0.5270 -0.1841
30428SOL    HW191862   5.953   5.780   8.267  0.8782 -0.4109 -1.4908
30428SOL    HW291863   5.903   5.897   8.349 -0.0469 -1.9068  0.1594
30429SOL     OW91864   2.963   3.608   8.440 -0.5934 -0.3079  0.3509
30429SOL    HW191865   2.885   3.590   8.389 -0.6081 -0.8498  0.5677
30429SOL    HW291866   2.940   3.585   8.530 -0.0264 -0.9630  0.3390
30430SOL     OW91867   3.231   5.965   0.665  0.2995 -0.3482  0.0495
30430SOL    HW191868   3.283   5.957   0.745  1.2572  0.6494 -0.4396
30430SOL    HW291869   3.181   6.046   0.676 -1.5971 -1.5548  0.7264
30431SOL     OW91870   3.585   2.345   9.711  0.7136  0.2971  0.2816
30431SOL    HW191871   3.544   2.384   9.634 -1.1846 -2.4145 -0.2268
30431SOL    HW291872   3.533   2.376   9.785 -0.6223 -0.9585 -0.0910
30432SOL     OW91873   0.200   3.701   2.553  0.2178 -0.1270 -0.0123
30432SOL    HW191874   0.253   3.723   2.477 -1.4564 -1.1213 -1.5679
30432SOL    HW291875   0.181   3.785   2.594  0.5994  0.5135 -1.1052
30433SOL     OW91876   5.509   4.089   4.274  0.0970 -0.4387 -0.3176
30433SOL    HW191877   5.550   4.166   4.314  0.1548 -1.1570  1.0517
30433SOL    HW291878   5.416   4.113   4.267  0.5776  1.1645 -3.3651
30434SOL     OW91879   2.870   0.658   0.039 -0.6257  0.1961  0.3973
30434SOL    HW191880   2.897   0.639  -0.051  0.3581 -0.9750  0.9215
30434SOL    HW291881   2.889   0.578   0.087  0.8457  1.4939  2.0953
30435SOL     OW91882   1.645   5.888   6.008  0.0117  0.5207 -0.7271
30435SOL    HW191883   1.579   5.957   6.018 -0.2456  0.0855  0.9138
30435SOL    HW291884   1.675   5.896   5.918 -3.1671 -0.0571 -1.9684
30436SOL     OW91885   0.075   8.242   9.030  0.5129  0.2360 -0.0426
30436SOL    HW191886   0.157   8.234   9.079 -0.2425  0.2510  1.3002
30436SOL    HW291887   0.026   8.309   9.078  0.1027  0.9482 -1.4068
30437SOL     OW91888   0.947   9.358   5.041  0.0923  0.6111  0.0856
30437SOL    HW191889   0.962   9.312   4.958 -0.1110  0.3065  0.2182
30437SOL    HW291890   0.855   9.384   5.037 -0.5451 -1.3492  1.1832
30438SOL     OW91891   9.676   0.494   3.447  0.1518 -0.5474  0.4156
30438SOL    HW191892   9.599   0.544   3.420  1.5237  1.6401  0.3118
30438SOL    HW291893   9.731   0.490   3.369  1.7234  1.1406  1.3365
30439SOL     OW91894   5.212   4.838   4.494 -0.2977 -0.5623  0.2642
30439SOL    HW191895   5.209   4.933   4.480 -1.4633 -0.6561 -0.2585
30439SOL    HW291896   5.305   4.816   4.488 -0.0170  0.5263  0.3044
30440SOL     OW91897   0.092   1.017   3.198  0.6138  0.2310 -0.4769
30440SOL    HW191898   0.015   1.036   3.144 -1.2351  0.4929  2.0903
30440SOL    HW291899   0.132   1.102   3.213  1.1606  0.1526 -1.4055
30441SOL     OW91900   1.185   1.751   2.224 -0.2062 -0.3332  0.2468
30441SOL    HW191901   1.236   1.822   2.262 -1.0279  0.1078  0.5362
30441SOL    HW291902   1.205   1.675   2.279 -1.4627  0.3190  1.6552
30442SOL     OW91903   3.856   5.944   7.687  0.3709  0.5838 -0.4280
30442SOL    HW191904   3.803   5.865   7.699 -0.4348  1.0666 -0.7014
30442SOL    HW291905   3.871   5.977   7.776 -0.5976  0.9515 -0.3866
30443SOL     OW91906   5.101   7.492   6.183 -0.3762  0.2339 -0.4122
30443SOL    HW191907   5.074   7.416   6.233  2.4591 -0.3285  0.4322
30443SOL    HW291908   5.121   7.458   6.096  2.4146 -0.4205  0.3882
30444SOL     OW91909   3.191   5.453   2.733 -0.1794 -0.0646 -0.1066
30444SOL    HW191910   3.149   5.524   2.686 -1.4937 -0.8593 -0.2144
30444SOL    HW291911   3.256   5.418   2.673  0.5761  1.1070  0.0029
30445SOL     OW91912   4.904   1.744   7.621  0.1005  0.1686 -0.3337
30445SOL    HW191913   4.890   1.814   7.686  1.1612  0.3575 -0.3019
30445SOL    HW291914   4.959   1.681   7.667  3.4266  1.6883 -1.9396
30446SOL     OW91915   4.968   0.252   2.227 -0.1654  0.3861 -0.2932
30446SOL    HW191916   4.891   0.301   2.198 -2.1121 -1.4558  1.3583
30446SOL    HW291917   4.937   0.162   2.234  2.5136 -0.6370 -0.6496
30447SOL     OW91918   8.206   5.287   7.287 -0.0844  0.5101  0.0759
30447SOL    HW191919   8.225   5.377   7.313  0.4346  0.8003 -1.2182
30447SOL    HW291920   8.127   5.293   7.234 -0.0250  0.2039 -0.0512
30448SOL     OW91921   5.473   2.348   9.453  1.0212  0.0901 -0.0875
30448SOL    HW191922   5.399   2.299   9.417  2.7213 -1.4853 -1.6147
30448SOL    HW291923   5.522   2.283   9.503  1.9591  0.8482  0.0058
30449SOL     OW91924   3.616   1.379   5.937 -0.6548  0.8845 -0.1791
30449SOL    HW191925   3.578   1.295   5.913  1.3566 -0.7358  1.9370
30449SOL    HW291926   3.693   1.388   5.882  0.3842  0.2118  1.1098
30450SOL     OW91927   9.644   8.968   0.089 -0.2490 -0.2599  0.5858
30450SOL    HW191928   9.551   8.949   0.076 -0.2100 -0.0072 -0.0988
30450SOL    HW291929   9.689   8.896   0.046 -0.1223 -0.0541  0.3749
30451SOL     OW91930   7.083   0.039   6.231  0.0595 -0.2817  0.1179
30451SOL    HW191931   7.130   0.122   6.232 -1.9254  0.9693 -1.7689
30451SOL    HW291932   7.051   0.030   6.142 -2.3017 -1.5811  1.0021
30452SOL     OW91933   6.375   4.794   6.759  0.6394  0.6843 -0.6080
30452SOL    HW191934   6.333   4.819   6.677  0.5407 -1.0554 -1.1308
30452SOL    HW291935   6.350   4.702   6.772  2.6620  0.1656  0.0650
30453SOL     OW91936   3.442   2.244   8.501  0.1123  0.2240 -0.2762
30453SOL    HW191937   3.495   2.279   8.573 -2.0319  1.8720  0.6625
30453SOL    HW291938   3.396   2.321   8.467 -0.0249 -0.7750 -2.4778
30454SOL     OW91939   1.689   3.231   8.276  0.1770  0.3928 -0.3837
30454SOL    HW191940   1.654   3.238   8.365 -1.5508 -0.4143 -0.9614
30454SOL    HW291941   1.615   3.252   8.219  1.4450  1.6395 -1.6613
30455SOL     OW91942   8.138   9.214   9.456 -0.0685  0.3834 -0.4431
30455SOL    HW191943   8.132   9.119   9.468 -0.9739  0.7018  2.3297
30455SOL    HW291944   8.048   9.245   9.467  0.3084  1.6211 -0.6912
30456SOL     OW91945   4.912   0.233   1.629 -0.0320 -0.0263  0.0211
30456SOL    HW191946   4.822   0.211   1.607  0.4271  0.0078 -2.0907
30456SOL    HW291947   4.942   0.160   1.684 -0.2617 -1.9343 -2.2374
30457SOL     OW91948   2.367   9.007   4.414 -0.1193  0.1311 -0.1450
30457SOL    HW191949   2.381   9.017   4.320 -1.8753 -0.3135 -0.4896
30457SOL    HW291950   2.425   9.072   4.454 -0.4652  1.3789 -1.6011
30458SOL     OW91951   0.672   6.549   4.539 -0.2489  0.0527 -0.0973
30458SOL    HW191952   0.631   6.612   4.599  1.1870  0.8177  0.1216
30458SOL    HW291953   0.678   6.468   4.590  1.0159  0.7101  0.8624
30459SOL     OW91954   1.498   5.377   7.934 -0.1957 -0.9291 -0.0381
30459SOL    HW191955   1.506   5.346   8.025 -0.3295  0.5503  0.5100
30459SOL    HW291956   1.529   5.468   7.937  0.2828 -1.0204 -1.5868
30460SOL     OW91957   2.583   2.882   4.760  0.5948  0.4513 -0.5046
30460SOL    HW191958   2.512   2.829   4.797  2.1989 -1.9916 -0.7051
30460SOL    HW291959   2.662   2.851   4.805  1.7609  1.9685 -1.4049
30461SOL     OW91960   8.685   8.889   2.897 -0.5608  0.2308 -0.0197
30461SOL    HW191961   8.732   8.867   2.817  0.1287 -1.3563  0.7773
30461SOL    HW291962   8.611   8.941   2.868 -0.0423  0.1261 -1.6285
30462SOL     OW91963   3.271   4.160   7.854 -0.1678 -0.0877 -0.3598
30462SOL    HW191964   3.341   4.103   7.888 -0.6694 -0.2321  0.4648
30462SOL    HW291965   3.289   4.246   7.892 -0.8382 -0.2932  0.4594
30463SOL     OW91966   6.330   4.879   4.841  0.3618 -0.0037 -0.4661
30463SOL    HW191967   6.404   4.818   4.829  0.2201  0.0145 -1.4666
30463SOL    HW291968   6.281   4.842   4.915 -0.2119 -1.6222 -1.6008
30464SOL     OW91969   2.841   5.997   0.367  0.4135  0.2657 -0.1177
30464SOL    HW191970   2.864   6.043   0.447  0.4015  0.4025 -0.1921
30464SOL    HW291971   2.782   5.927   0.395 -1.5846  1.7906 -0.2729
30465SOL     OW91972   6.584   5.743   4.392  0.1794 -0.2340  0.6841
30465SOL    HW191973   6.625   5.794   4.462 -0.8711  1.8863 -0.1337
30465SOL    HW291974   6.493   5.731   4.421 -0.0455 -0.0506  0.0784
30466SOL     OW91975   6.276   8.095   5.309 -0.2587 -0.4999  0.1063
30466SOL    HW191976   6.311   8.007   5.324 -0.2628 -0.2121  2.1397
30466SOL    HW291977   6.343   8.138   5.256  0.4486 -1.2876  0.3243
30467SOL     OW91978   3.584   3.807   7.259 -0.5446  0.3700 -0.0611
30467SOL    HW191979   3.640   3.881   7.236  0.8386 -0.2308  1.1390
30467SOL    HW291980   3.503   3.846   7.292 -0.0335  1.3376  0.0822
30468SOL     OW91981   9.191   7.427   9.017  0.4894 -0.2129  0.5654
30468SOL    HW191982   9.260   7.455   9.077  1.0355  1.2311 -0.6737
30468SOL    HW291983   9.230   7.355   8.968  1.8009  1.6146 -1.2454
30469SOL     OW91984   1.959   1.785   3.776  0.0410 -0.4640 -0.1118
30469SOL    HW191985   1.944   1.872   3.812 -2.5790 -0.8632 -0.0141
30469SOL    HW291986   2.054   1.775   3.776  0.4561  2.4998 -0.4701
30470SOL     OW91987   3.817   3.265   1.717  0.3350 -0.0159  0.8578
30470SOL    HW191988   3.802   3.238   1.808 -0.3881  1.4953  1.2197
30470SOL    HW291989   3.892   3.324   1.722  1.6810 -1.5755  0.1260
30471SOL     OW91990   4.858   4.641   6.835 -0.3488 -0.1102  0.1411
30471SOL    HW191991   4.772   4.678   6.857  0.3572  0.7751  1.5317
30471SOL    HW291992   4.845   4.546   6.837 -1.1493  0.0069  0.9392
30472SOL     OW91993   6.183   9.740   8.619  0.6846  0.3413 -0.2520
30472SOL    HW191994   6.203   9.752   8.526  1.8413  1.0034  0.0617
30472SOL    HW291995   6.178   9.828   8.654  0.5213  0.0917  0.3673
30473SOL     OW91996   6.225   6.275  -0.015  0.0301  0.4488 -0.1452
30473SOL    HW191997   6.276   6.352   0.011  2.6946 -1.1107 -0.3849
30473SOL    HW291998   6.270   6.201   0.026 -2.1496 -1.0879 -0.3175
30474SOL     OW91999   7.044   3.658   0.215 -0.5322 -0.0377  0.3968
30474SOL    HW192000   6.952   3.681   0.224 -0.4609 -0.3797  2.6425
30474SOL    HW292001   7.084   3.691   0.296  1.3685  0.3217 -0.6389
30475SOL     OW92002   6.547   7.618   0.169 -0.0783  0.5201 -0.6196
30475SOL    HW192003   6.591   7.674   0.105 -2.1691  2.2293 -0.6962
30475SOL    HW292004   6.554   7.530   0.132  1.6665  0.9678 -1.4674
30476SOL     OW92005   3.845   0.390   0.208 -0.4197  0.5434 -0.2729
30476SOL    HW192006   3.850   0.393   0.113  0.1886 -1.8164 -0.3801
30476SOL    HW292007   3.927   0.350   0.236 -0.6834  0.9608  1.2450
30477SOL     OW92008   6.655   5.407   9.953  0.1492 -0.2243  0.5438
30477SOL    HW192009   6.598   5.479   9.926 -0.6015 -0.4981  1.3414
30477SOL    HW292010   6.610   5.328   9.920 -0.3007 -0.4915  1.7570
30478SOL     OW92011   9.929   1.553   4.999  0.0105 -0.1453  0.0657
30478SOL    HW192012  10.013   1.532   4.959 -0.1822 -0.2378 -0.2899
30478SOL    HW292013   9.887   1.468   5.013 -0.8498 -0.0247 -1.5455
30479SOL     OW92014   7.848   3.559   7.936 -0.0557 -0.3161  0.7371
30479SOL    HW192015   7.778   3.494   7.935 -0.6210  0.2763 -0.0697
30479SOL    HW292016   7.823   3.623   7.869  1.6902 -0.5482 -0.2147
30480SOL     OW92017   0.043   4.456   7.728 -0.0972 -0.2609  0.5008
30480SOL    HW192018   0.024   4.469   7.635 -0.7583  0.2949  0.7064
30480SOL    HW292019  -0.038   4.481   7.773  0.5914  0.5933  1.3028
30481SOL     OW92020   4.802   1.895   1.860 -0.3871 -0.0030  0.3810
30481SOL    HW192021   4.823   1.988   1.869 -0.6537  0.4222 -2.3123
30481SOL    HW292022   4.715   1.886   1.899  0.2088  0.5584  1.8863
30482SOL     OW92023   1.649   1.931   8.067 -0.9761 -0.1247  0.0684
30482SOL    HW192024   1.662   1.903   8.158 -1.7675 -2.3436 -0.4434
30482SOL    HW292025   1.576   1.877   8.036  0.7596 -1.1265 -2.5767
30483SOL     OW92026   9.288   4.902   1.579 -0.0396  0.2631 -0.4423
30483SOL    HW192027   9.383   4.904   1.589 -0.2028  1.0627  1.3426
30483SOL    HW292028   9.260   4.823   1.626 -0.3721  0.9284  0.5061
30484SOL     OW92029   1.398   9.172   1.656  0.2012 -0.0793 -0.2914
30484SOL    HW192030   1.456   9.183   1.731  0.2053 -3.6086  0.3701
30484SOL    HW292031   1.455   9.142   1.585 -0.2086  0.5727 -0.9083
30485SOL     OW92032   0.898   7.901   2.280 -0.1439 -0.0400  0.7949
30485SOL    HW192033   0.855   7.983   2.256  0.2837  0.0479  0.3176
30485SOL    HW292034   0.829   7.849   2.323 -1.8406 -1.3654 -3.0621
30486SOL     OW92035   6.622   1.022   6.034 -1.0255 -0.0648 -0.1784
30486SOL    HW192036   6.617   0.940   6.082 -0.9762 -0.8078 -1.4000
30486SOL    HW292037   6.589   1.088   6.095  0.8203 -0.6427  1.5504
30487SOL     OW92038   8.162   2.987   7.206  0.0371  0.2818  0.2759
30487SOL    HW192039   8.190   2.896   7.214 -0.3595 -0.0791 -1.7773
30487SOL    HW292040   8.236   3.031   7.165 -0.4592  0.4329 -0.4956
30488SOL     OW92041   4.241  -0.022   1.173 -0.0135 -0.2500  0.6200
30488SOL    HW192042   4.163   0.032   1.184  0.0754 -0.2410  1.2471
30488SOL    HW292043   4.314   0.040   1.178  0.0110 -0.1237 -0.9241
30489SOL     OW92044   4.355   9.565   1.760 -0.0707 -0.0550  0.5353
30489SOL    HW192045   4.327   9.541   1.671  0.1001  1.9808 -0.1279
30489SOL    HW292046   4.313   9.500   1.817 -0.6982 -1.0353 -0.9761
30490SOL     OW92047   5.104   0.938   8.202 -0.2956 -0.1595 -0.2157
30490SOL    HW192048   5.100   1.029   8.173  1.1530  0.0504  0.1568
30490SOL    HW292049   5.173   0.899   8.147 -0.3809 -0.8261  0.1432
30491SOL     OW92050   6.683   6.078   7.358  0.3369 -0.2253  0.1970
30491SOL    HW192051   6.754   6.017   7.378  1.0588  0.4561 -0.2029
30491SOL    HW292052   6.617   6.061   7.425  1.0895 -0.5465  0.8779
30492SOL     OW92053   0.344   9.679   5.691  0.3442  0.4171 -0.1451
30492SOL    HW192054   0.271   9.636   5.735 -0.7637  0.1467 -2.1209
30492SOL    HW292055   0.422   9.644   5.733 -0.5943 -1.6108 -0.0029
30493SOL     OW92056   3.711   7.061   8.366  0.0985 -0.0530 -0.5156
30493SOL    HW192057   3.669   7.117   8.301 -0.8662 -0.0582  0.0937
30493SOL    HW292058   3.761   7.121   8.422  0.3670  0.0226 -0.8351
30494SOL     OW92059   0.446   4.220   8.035  0.6877  0.3786  0.0470
30494SOL    HW192060   0.373   4.280   8.018  0.5493 -0.3421 -2.3648
30494SOL    HW292061   0.475   4.241   8.124 -0.9509  2.2768  0.1999
30495SOL     OW92062   1.705   4.593   3.945 -0.3605  0.2133  0.0825
30495SOL    HW192063   1.771   4.651   3.983  0.2562 -0.0994 -0.5039
30495SOL    HW292064   1.688   4.630   3.858  0.2306 -0.6312 -0.3989
30496SOL     OW92065   4.335   0.681   5.300 -0.3944  0.9086  0.1405
30496SOL    HW192066   4.249   0.722   5.291 -0.6061  0.3340 -0.4723
30496SOL    HW292067   4.374   0.687   5.213 -0.3743 -0.0666  0.0761
30497SOL     OW92068   8.458   4.563   7.756 -0.1765  0.1200 -0.5850
30497SOL    HW192069   8.438   4.483   7.806  1.3184 -0.0919 -0.2610
30497SOL    HW292070   8.398   4.560   7.681 -1.0249 -0.6390  0.0914
30498SOL     OW92071   5.440   8.665   7.175 -0.3412  0.3805  0.5117
30498SOL    HW192072   5.449   8.757   7.202  1.9833  0.9286 -1.7176
30498SOL    HW292073   5.464   8.665   7.083  0.3408 -2.5706  0.5837
30499SOL     OW92074   7.749   5.130   1.098  0.0880  0.4713 -0.1834
30499SOL    HW192075   7.685   5.200   1.085 -0.8183 -0.3909 -0.5309
30499SOL    HW292076   7.701   5.062   1.145  0.6641 -0.3144 -0.7062
30500SOL     OW92077   7.417   2.971   9.833  0.1804 -0.4136  0.0744
30500SOL    HW192078   7.349   3.003   9.893 -0.2608  0.7658 -0.9940
30500SOL    HW292079   7.416   2.876   9.844 -0.2083 -0.2715  1.5688
30501SOL     OW92080   6.960   4.106   0.132  0.4197 -0.8759  0.3838
30501SOL    HW192081   7.002   4.184   0.168 -1.2035 -0.8908  2.5121
30501SOL    HW292082   7.007   4.033   0.172 -0.2789 -0.9089  1.1837
30502SOL     OW92083   9.495   4.028   9.349  0.1206 -0.0922 -0.0650
30502SOL    HW192084   9.544   3.974   9.287 -0.3158  0.9309 -1.3392
30502SOL    HW292085   9.414   3.978   9.365 -0.2736  0.1448 -1.2164
30503SOL     OW92086   8.561   2.123   6.297  0.5977 -0.6423  0.3115
30503SOL    HW192087   8.568   2.212   6.261  1.1031 -1.2674 -1.2492
30503SOL    HW292088   8.609   2.127   6.380  1.4449  0.3283 -0.1889
30504SOL     OW92089   7.114   2.492   5.846  0.8385  0.2033 -0.5594
30504SOL    HW192090   7.050   2.556   5.816  0.6065  0.9090  1.2968
30504SOL    HW292091   7.064   2.410   5.855  0.4789  0.4448 -0.3265
30505SOL     OW92092   6.628   1.286   0.960  0.6162  0.2545 -0.2811
30505SOL    HW192093   6.708   1.331   0.986 -0.7265  2.3286  0.4459
30505SOL    HW292094   6.591   1.341   0.891  0.2896 -1.2192 -1.3321
30506SOL     OW92095   6.860   5.950   5.166  0.5170 -0.0542 -0.5349
30506SOL    HW192096   6.869   6.005   5.244 -0.5393 -0.4938 -0.0863
30506SOL    HW292097   6.844   5.863   5.200  0.5652 -0.3524 -1.2550
30507SOL     OW92098   0.045   9.375   1.411 -0.0633 -0.0585 -0.3454
30507SOL    HW192099   0.019   9.294   1.454  0.9900 -0.2641 -0.0598
30507SOL    HW292100   0.056   9.351   1.319 -1.3249  0.1489 -0.5685
30508SOL     OW92101   0.456   8.157   4.130  0.1522 -0.1174 -0.4266
30508SOL    HW192102   0.430   8.134   4.219  1.8910  0.4363  0.2795
30508SOL    HW292103   0.427   8.083   4.077 -3.6049  0.8334  0.0304
30509SOL     OW92104   8.973   0.636   4.890  0.0199 -0.3184 -0.0979
30509SOL    HW192105   8.907   0.610   4.826  1.4661 -1.7623 -1.1056
30509SOL    HW292106   8.996   0.554   4.934  1.2577  0.1028  0.0826
30510SOL     OW92107   7.509   2.030   0.530  0.2676 -0.0302 -0.0933
30510SOL    HW192108   7.530   2.021   0.437  0.5421  2.0751 -0.2998
30510SOL    HW292109   7.568   1.969   0.574  3.0393  1.6906 -1.0848
30511SOL     OW92110   1.749   4.887   3.801  0.1954 -0.2938 -0.1271
30511SOL    HW192111   1.770   4.868   3.709  1.3315 -3.0712  0.6015
30511SOL    HW292112   1.669   4.939   3.797  0.5692  0.2426 -2.6883
30512SOL     OW92113   7.649   2.624   0.268  0.5147  0.1727  0.3667
30512SOL    HW192114   7.708   2.636   0.194  1.3450 -0.2974  0.9331
30512SOL    HW292115   7.611   2.537   0.254 -2.8685  1.8134 -1.9101
30513SOL     OW92116   8.672   4.381   2.934  0.2549  0.5726 -0.1753
30513SOL    HW192117   8.597   4.322   2.939  0.2945  0.6304  2.1298
30513SOL    HW292118   8.702   4.375   2.844 -1.7802 -0.3762 -0.8329
30514SOL     OW92119   1.956   8.462   8.448 -0.1332 -0.4361 -0.6319
30514SOL    HW192120   2.046   8.479   8.476  0.0511 -0.6894 -1.0516
30514SOL    HW292121   1.957   8.479   8.353 -0.6913  0.2099 -0.5336
30515SOL     OW92122   5.874   9.011   4.014 -0.7139  0.2911  0.0186
30515SOL    HW192123   5.871   9.093   3.964  3.3900 -0.0794 -1.1525
30515SOL    HW292124   5.913   8.948   3.953 -3.7639 -2.6780  0.8708
30516SOL     OW92125   6.068   2.240   3.745  0.3846  0.5289  0.3123
30516SOL    HW192126   6.144   2.282   3.704  0.4641 -0.2310 -0.3417
30516SOL    HW292127   6.000   2.243   3.678  0.2333  0.0725  0.4441
30517SOL     OW92128   4.674   6.776   6.779 -0.3958 -0.0124 -0.7226
30517SOL    HW192129   4.689   6.723   6.857 -0.4152 -0.8821 -1.2928
30517SOL    HW292130   4.632   6.717   6.717 -0.3919  0.6635 -1.3918
30518SOL     OW92131   0.592   2.989   8.266  0.6596  0.7537 -0.6365
30518SOL    HW192132   0.620   2.943   8.187 -1.1354  0.5168 -1.2010
30518SOL    HW292133   0.499   2.967   8.274 -0.4737  4.6086 -1.2440
30519SOL     OW92134   0.758   1.825   0.648  0.0002 -0.0943 -0.4322
30519SOL    HW192135   0.689   1.845   0.711 -0.2398  2.4054 -1.3452
30519SOL    HW292136   0.732   1.742   0.608 -0.8369 -0.7488  1.3627
30520SOL     OW92137   7.518   5.067   9.003  0.4962  0.2435 -0.3771
30520SOL    HW192138   7.569   5.143   8.975  0.2096 -0.0629 -1.8313
30520SOL    HW292139   7.584   5.000   9.021  0.6790  0.2136 -1.1032
30521SOL     OW92140   4.004   9.379   2.565  0.5545  0.7444  0.4062
30521SOL    HW192141   4.035   9.468   2.550  0.1574  0.8186  0.0051
30521SOL    HW292142   3.913   9.380   2.536  0.7493  0.0295 -0.2701
30522SOL     OW92143   2.496   4.635   9.883 -0.3064  0.1581 -0.3843
30522SOL    HW192144   2.551   4.657   9.807  0.9141  0.5341  0.5734
30522SOL    HW292145   2.557   4.599   9.947 -1.1438  0.8373  0.8291
30523SOL     OW92146   5.679   8.062   3.304 -0.0656 -0.1822  0.3423
30523SOL    HW192147   5.773   8.053   3.289 -0.1441  0.6039 -0.6708
30523SOL    HW292148   5.645   7.973   3.291  0.7593 -0.9108  2.6541
30524SOL     OW92149   4.720   6.758   0.880  0.0272  0.0532  0.3825
30524SOL    HW192150   4.669   6.743   0.800 -0.7330  3.2202  0.1652
30524SOL    HW292151   4.805   6.719   0.861 -0.8362 -1.2602 -1.0557
30525SOL     OW92152   6.059   1.455   1.356  0.5461  0.3532  0.3510
30525SOL    HW192153   6.083   1.396   1.428  1.5633  1.3267  0.8440
30525SOL    HW292154   5.968   1.477   1.374 -0.0068 -1.3873 -0.0954
30526SOL     OW92155   9.468   1.602   6.336  0.0680  0.1926  0.4948
30526SOL    HW192156   9.539   1.665   6.352 -0.7184  1.8004 -1.8266
30526SOL    HW292157   9.508   1.536   6.280  0.8693 -1.4947  2.8624
30527SOL     OW92158   8.879   2.832   0.915 -0.3251 -0.0939  0.5276
30527SOL    HW192159   8.815   2.886   0.961 -0.4754 -0.2453  0.4968
30527SOL    HW292160   8.952   2.892   0.898 -1.1762  0.5683 -1.0044
30528SOL     OW92161   0.811   9.539   6.924 -0.1993 -0.1207 -0.0344
30528SOL    HW192162   0.878   9.584   6.873  1.4616 -1.1533  1.0967
30528SOL    HW292163   0.774   9.475   6.864  0.4025 -0.0655 -0.4746
30529SOL     OW92164   0.142   8.448   5.222  0.0322 -0.6677  0.1129
30529SOL    HW192165   0.167   8.362   5.256 -1.7113 -1.4751 -0.5302
30529SOL    HW292166   0.065   8.473   5.274 -0.9596 -0.6556 -1.2984
30530SOL     OW92167   6.299   7.370   6.747 -0.3653  0.8868  0.0723
30530SOL    HW192168   6.212   7.333   6.759  0.0686 -0.8161 -1.6243
30530SOL    HW292169   6.333   7.378   6.836 -1.1763 -1.1890  0.6435
30531SOL     OW92170   8.404   4.996   4.745  0.4027  0.2412 -0.1293
30531SOL    HW192171   8.416   5.085   4.780  0.5839 -0.0040  0.4525
30531SOL    HW292172   8.493   4.962   4.735  0.3233 -0.0360  0.0892
30532SOL     OW92173   9.016   7.218   3.857  0.1763 -0.8829 -0.0541
30532SOL    HW192174   9.016   7.257   3.945  2.6425  0.1433 -0.4072
30532SOL    HW292175   9.019   7.124   3.873 -2.3690 -0.8629  0.8794
30533SOL     OW92176   5.207   9.731   2.232  0.2363  0.2747 -0.8709
30533SOL    HW192177   5.253   9.809   2.203 -0.1577  1.6482  1.9208
30533SOL    HW292178   5.122   9.763   2.263 -0.1833 -1.3607 -0.2229
30534SOL     OW92179   2.281   4.456   3.487  0.0077 -0.1839 -0.2642
30534SOL    HW192180   2.269   4.370   3.446 -1.6365  0.1661 -0.5867
30534SOL    HW292181   2.192   4.483   3.513  0.4511  1.5331 -0.4112
30535SOL     OW92182   5.380   0.284   1.530  0.2518  0.1351 -0.0124
30535SOL    HW192183   5.428   0.366   1.530  2.2479 -0.9416 -1.6133
30535SOL    HW292184   5.383   0.254   1.439 -2.4192 -0.6430  0.0675
30536SOL     OW92185   5.588   2.014   2.621 -0.0501 -0.3648  0.4538
30536SOL    HW192186   5.604   1.924   2.591  1.1853 -0.2328  0.6761
30536SOL    HW292187   5.622   2.069   2.550 -0.0385 -0.0648  0.6921
30537SOL     OW92188   4.730   1.444   0.155  0.4311 -0.4272  0.1277
30537SOL    HW192189   4.753   1.400   0.073 -1.9755 -0.8705 -0.3870
30537SOL    HW292190   4.722   1.373   0.219 -1.6221 -0.6135 -0.2640
30538SOL     OW92191   0.208   2.237   9.621  0.5883  0.5267  0.4896
30538SOL    HW192192   0.258   2.206   9.697  0.7178  0.5442  0.4115
30538SOL    HW292193   0.123   2.194   9.629  0.4899  0.7808  0.8220
30539SOL     OW92194   2.574  -0.007   6.284 -0.2762 -0.5406 -0.2517
30539SOL    HW192195   2.658   0.033   6.264 -0.9173  0.7631 -0.4447
30539SOL    HW292196   2.512   0.036   6.224 -1.1652 -1.1061  0.2290
30540SOL     OW92197   5.983   7.841   7.064 -0.3879  0.9139  0.1618
30540SOL    HW192198   6.027   7.794   7.134  0.3223  1.1831 -0.0942
30540SOL    HW292199   6.002   7.790   6.985 -1.9852  0.0721  0.2749
30541SOL     OW92200   3.823   0.652   9.873 -0.0640  0.3156  0.4926
30541SOL    HW192201   3.837   0.744   9.853  0.5548  0.3135  0.8830
30541SOL    HW292202   3.749   0.626   9.818  0.7807  0.6226 -0.8224
30542SOL     OW92203   0.612   7.175   9.833  0.0617 -0.2052 -0.6186
30542SOL    HW192204   0.589   7.245   9.772  1.6673  1.3088  0.3909
30542SOL    HW292205   0.705   7.159   9.816  0.3260 -0.3410  0.8012
30543SOL     OW92206   8.667   1.467   8.776 -0.2472  0.1963  0.1603
30543SOL    HW192207   8.595   1.520   8.810  1.9767  3.5959  0.1250
30543SOL    HW292208   8.687   1.505   8.691  1.2743 -0.9481 -0.0411
30544SOL     OW92209   9.475   5.247   4.962  0.4205  0.1846 -0.0622
30544SOL    HW192210   9.494   5.155   4.980 -2.8311 -1.0234 -2.1348
30544SOL    HW292211   9.554   5.280   4.919  1.1043 -2.0548 -0.6200
30545SOL     OW92212   7.697   1.893   5.056 -0.1272 -0.8048 -0.1685
30545SOL    HW192213   7.719   1.940   4.976 -1.1345 -0.4493 -0.2439
30545SOL    HW292214   7.780   1.853   5.083  0.6752  0.6764 -0.3054
30546SOL     OW92215   2.835   7.917   0.834  0.3902 -0.0017  0.0865
30546SOL    HW192216   2.805   7.853   0.770  0.7135 -1.5328  1.3999
30546SOL    HW292217   2.757   7.937   0.886  0.1919  1.0299 -0.5750
30547SOL     OW92218   2.561   1.509   7.575  0.4419 -0.0546 -0.3251
30547SOL    HW192219   2.606   1.580   7.530 -1.7930  1.0856 -0.9171
30547SOL    HW292220   2.506   1.469   7.508 -1.2486  0.2139  0.8360
30548SOL     OW92221   7.464   0.114   9.558 -0.4145 -0.4634  0.3666
30548SOL    HW192222   7.390   0.069   9.599  0.3313 -2.3069 -0.1947
30548SOL    HW292223   7.541   0.074   9.598  0.3099  0.9870  0.4895
30549SOL     OW92224   8.767   3.181   6.547 -0.5960  0.3294 -0.4877
30549SOL    HW192225   8.794   3.101   6.502 -0.5807  0.2838 -0.3976
30549SOL    HW292226   8.714   3.228   6.482 -0.2599  0.4422 -0.6829
30550SOL     OW92227   6.845   1.771   0.818  0.6490  0.5873 -0.1438
30550SOL    HW192228   6.851   1.790   0.912 -0.9243  0.9782 -0.0978
30550SOL    HW292229   6.790   1.841   0.783  2.3181  1.2549 -1.6420
30551SOL     OW92230   5.879   4.818   0.636  0.3336 -0.4190  0.2553
30551SOL    HW192231   5.803   4.871   0.614 -0.8802 -1.7768  0.9789
30551SOL    HW292232   5.953   4.863   0.596 -0.8539  0.9133 -0.5086
30552SOL     OW92233   6.366   6.716   8.624  0.4811  0.4034  0.0722
30552SOL    HW192234   6.449   6.720   8.577  0.6617 -0.6860  0.2571
30552SOL    HW292235   6.333   6.805   8.623  0.3581  0.3971 -2.3151
30553SOL     OW92236   6.059   3.634   1.262  0.5007  0.5669  0.1442
30553SOL    HW192237   6.103   3.636   1.177  2.4818  1.0941  1.1212
30553SOL    HW292238   6.032   3.724   1.277 -0.5574  0.3327 -0.2315
30554SOL     OW92239   3.122   0.084   0.222  0.5688 -0.4212  0.1833
30554SOL    HW192240   3.136   0.033   0.143 -1.5431  0.1954 -0.6573
30554SOL    HW292241   3.153   0.027   0.293  0.0509 -2.0968 -0.8730
30555SOL     OW92242   0.369   9.693   4.292  0.0212 -0.6692 -0.1564
30555SOL    HW192243   0.453   9.680   4.335  0.1828 -0.2774 -0.3476
30555SOL    HW292244   0.322   9.610   4.305  0.6156 -1.0603 -0.4499
30556SOL     OW92245   1.792   0.189   7.410  0.2338  0.0962  0.2095
30556SOL    HW192246   1.884   0.168   7.396  0.5306  1.5345 -0.1027
30556SOL    HW292247   1.781   0.277   7.375 -1.4205 -0.2945 -0.3552
30557SOL     OW92248   1.345   2.492   1.470  0.2247 -0.1470  0.6362
30557SOL    HW192249   1.408   2.469   1.402 -1.0894  0.3355 -0.8093
30557SOL    HW292250   1.267   2.520   1.422 -1.5619 -1.8997  2.3104
30558SOL     OW92251   1.136   7.451   4.350 -0.5872 -0.0306  0.1751
30558SOL    HW192252   1.194   7.382   4.319 -0.9428 -0.5473  0.6433
30558SOL    HW292253   1.074   7.406   4.407  0.0681  0.8718  1.6754
30559SOL     OW92254   5.356   5.649   3.242  0.1424 -0.1813  0.3935
30559SOL    HW192255   5.435   5.682   3.283 -0.9104  1.0709  1.5320
30559SOL    HW292256   5.285   5.677   3.300 -1.2076 -0.5089 -1.0120
30560SOL     OW92257   2.484   8.004   6.890  0.1113  0.0950  0.0963
30560SOL    HW192258   2.427   7.955   6.831 -1.1490 -0.0233  1.3354
30560SOL    HW292259   2.466   8.096   6.869 -0.3032  0.0529  0.2555
30561SOL     OW92260   6.131   1.265   4.079 -0.4220  0.5151  0.1527
30561SOL    HW192261   6.188   1.312   4.018  0.7829  0.8623  1.5066
30561SOL    HW292262   6.164   1.175   4.077 -0.5930  0.4520  0.0765
30562SOL     OW92263   2.496   1.756   0.153 -0.4731 -0.4916 -0.3733
30562SOL    HW192264   2.471   1.665   0.139  0.8716 -0.7820 -1.0905
30562SOL    HW292265   2.430   1.807   0.108 -0.4912 -1.1688 -1.1287
30563SOL     OW92266   7.136   1.703   3.496 -0.2133  0.6460  0.0523
30563SOL    HW192267   7.202   1.653   3.447  0.9031  1.4222  0.7011
30563SOL    HW292268   7.064   1.642   3.509  0.7906 -0.5601  0.1890
30564SOL     OW92269   2.504   6.686   7.267 -0.1686 -0.1158  0.1574
30564SOL    HW192270   2.596   6.688   7.242 -0.2517  0.1760 -0.1292
30564SOL    HW292271   2.498   6.743   7.343 -0.0268 -0.5216  0.4785
30565SOL     OW92272   9.697   5.932   6.748  0.0614  0.0557  0.2001
30565SOL    HW192273   9.664   5.869   6.812 -0.1822 -0.4595 -0.4228
30565SOL    HW292274   9.792   5.930   6.759  0.3627 -2.7122 -1.8273
30566SOL     OW92275   7.499   3.251   9.819 -0.1140  0.1305 -0.1645
30566SOL    HW192276   7.433   3.292   9.763  0.5856 -1.9542 -2.7256
30566SOL    HW292277   7.470   3.159   9.826  1.6465 -0.4407  0.0172
30567SOL     OW92278   9.884   9.805   1.891  0.1127  0.0880 -0.3585
30567SOL    HW192279   9.870   9.898   1.908 -0.8080 -0.1802  0.3728
30567SOL    HW292280   9.885   9.798   1.795 -0.2586  0.7746 -0.4137
30568SOL     OW92281   6.011   3.722   2.652 -0.4489  0.9153  0.0507
30568SOL    HW192282   5.924   3.727   2.612 -0.0598 -0.0088 -0.9330
30568SOL    HW292283   5.994   3.688   2.740 -1.0023 -0.3493 -0.5138
30569SOL     OW92284   6.229   3.611   1.830  0.4562  0.8202 -0.3415
30569SOL    HW192285   6.146   3.655   1.847 -0.2457 -0.7502  0.5183
30569SOL    HW292286   6.208   3.517   1.837  1.6876  0.2686 -2.8724
30570SOL     OW92287   6.090   3.794   4.446 -0.7394 -0.5087 -0.5451
30570SOL    HW192288   6.087   3.744   4.528  2.0382 -0.0866 -0.0520
30570SOL    HW292289   6.025   3.754   4.390  0.4449 -3.8871  0.2600
30571SOL     OW92290   2.321   9.457   3.394  0.1434 -0.0083 -0.0950
30571SOL    HW192291   2.229   9.446   3.420  0.2836 -0.8450  0.0611
30571SOL    HW292292   2.316   9.511   3.315 -0.3417  1.8472  1.1249
30572SOL     OW92293   4.275   4.532   6.153  0.7130 -0.7244 -0.1399
30572SOL    HW192294   4.247   4.446   6.183 -0.7848 -0.3764 -0.4421
30572SOL    HW292295   4.282   4.523   6.057 -2.3640  0.1804 -0.5597
30573SOL     OW92296   2.641   0.576   2.522  0.2498  0.4670 -0.2360
30573SOL    HW192297   2.679   0.661   2.547 -1.2838  1.0800  0.1216
30573SOL    HW292298   2.597   0.545   2.601  0.6005 -0.5700 -0.4324
30574SOL     OW92299   1.525   4.558   1.637 -0.1529  0.1668  0.8455
30574SOL    HW192300   1.443   4.582   1.680  0.3834 -0.3693  2.2509
30574SOL    HW292301   1.509   4.571   1.544 -1.4512  1.1737  1.1870
30575SOL     OW92302   5.221   4.739   2.921  0.0687  0.2829 -0.4377
30575SOL    HW192303   5.286   4.746   2.991 -1.1327  1.4823  0.6224
30575SOL    HW292304   5.173   4.658   2.940 -0.2370  0.5926  0.1351
30576SOL     OW92305   0.960   8.874   2.017 -0.0935  0.2036  0.7034
30576SOL    HW192306   0.904   8.804   2.050 -0.2134 -0.1474 -0.2286
30576SOL    HW292307   0.899   8.934   1.974  0.2751 -0.4263 -0.7464
30577SOL     OW92308   7.855   6.815   1.345 -0.3807 -0.1151  0.3934
30577SOL    HW192309   7.904   6.753   1.293 -2.3379  0.0683 -1.8407
30577SOL    HW292310   7.796   6.761   1.399 -1.0443 -0.2574 -0.4571
30578SOL     OW92311   5.803   0.249   4.352 -0.5004 -0.2751 -0.5096
30578SOL    HW192312   5.780   0.160   4.326  0.2768 -0.5658 -0.2516
30578SOL    HW292313   5.880   0.270   4.299 -1.3430  0.6707 -1.3767
30579SOL     OW92314   1.751   3.898   8.519  0.2198  0.6244 -0.1928
30579SOL    HW192315   1.762   3.953   8.597 -0.3435  0.6036 -0.0945
30579SOL    HW292316   1.824   3.837   8.523 -0.4285 -0.1311  0.9569
30580SOL     OW92317   9.388   2.672   5.941 -0.4328  0.6536  0.1478
30580SOL    HW192318   9.348   2.598   5.987 -0.9384  1.5955  1.2719
30580SOL    HW292319   9.378   2.746   6.000  1.7893  1.2469 -0.1258
30581SOL     OW92320   1.614   0.328   7.212 -0.2800 -0.9651  0.8067
30581SOL    HW192321   1.597   0.286   7.128 -0.2127  0.8672 -0.1704
30581SOL    HW292322   1.707   0.348   7.210 -0.2839 -0.8854  1.3212
30582SOL     OW92323   4.849   2.565   9.426 -0.3562 -0.3554 -0.1608
30582SOL    HW192324   4.833   2.559   9.331  1.5763  0.5357 -0.6057
30582SOL    HW292325   4.829   2.656   9.447 -0.1610 -0.3810  0.1402
30583SOL     OW92326   2.240   1.963   1.906  0.1112  0.3923  0.2471
30583SOL    HW192327   2.212   2.044   1.949 -1.2224  0.4407 -0.6644
30583SOL    HW292328   2.293   1.993   1.832 -2.6638  0.6570 -1.7886
30584SOL     OW92329   5.813   9.208   9.519 -0.2237  0.3545 -0.1176
30584SOL    HW192330   5.764   9.226   9.599 -0.6450  1.4409 -0.5982
30584SOL    HW292331   5.793   9.282   9.461 -0.8657 -0.9727 -1.6722
30585SOL     OW92332   6.768   9.284   5.364 -0.7136 -1.1672  0.8101
30585SOL    HW192333   6.713   9.344   5.313  1.2297  0.8785  0.9939
30585SOL    HW292334   6.789   9.214   5.302 -1.5164 -0.7090 -0.0175
30586SOL     OW92335   1.606   9.663   6.156 -0.4536 -0.2523  0.3472
30586SOL    HW192336   1.571   9.575   6.150 -0.8979  0.0006 -0.9781
30586SOL    HW292337   1.640   9.682   6.069 -1.7049  1.4167  0.1663
30587SOL     OW92338   1.095   5.119   8.243 -0.3618  0.0624  0.4442
30587SOL    HW192339   1.100   5.084   8.154 -0.6624  0.1767  0.3802
30587SOL    HW292340   1.113   5.044   8.300  1.5446  0.3192  0.2634
30588SOL     OW92341   3.033   1.368   0.612  0.0033 -0.1126  0.1588
30588SOL    HW192342   3.109   1.311   0.600 -0.5693 -1.1188  1.1169
30588SOL    HW292343   2.984   1.361   0.530  0.8977  0.5076 -0.4494
30589SOL     OW92344   1.788   2.356   5.770  0.1971  0.0900  0.1224
30589SOL    HW192345   1.701   2.362   5.730 -0.4424 -1.8959  1.0437
30589SOL    HW292346   1.847   2.398   5.708 -1.1745 -0.1832 -1.4297
30590SOL     OW92347   5.817   8.899   5.501  0.1242 -0.3538 -0.0715
30590SOL    HW192348   5.787   8.989   5.490 -3.9750 -1.5270 -0.0337
30590SOL    HW292349   5.849   8.896   5.591 -0.9981  0.7771  0.3986
30591SOL     OW92350   8.119   8.424   5.242 -0.0213  0.2652  0.3556
30591SOL    HW192351   8.138   8.448   5.152  0.3154  2.1382  0.8730
30591SOL    HW292352   8.057   8.352   5.236  0.6011 -0.1730 -1.3583
30592SOL     OW92353   1.598   4.594   9.277  0.4388 -0.2385  0.1645
30592SOL    HW192354   1.541   4.517   9.285  1.0457 -0.7224 -0.0475
30592SOL    HW292355   1.596   4.616   9.184  0.0849  0.1477  0.2628
30593SOL     OW92356   5.134   9.590   3.063 -0.0919 -0.7301 -0.2253
30593SOL    HW192357   5.047   9.550   3.061 -0.2709 -0.4089  0.6360
30593SOL    HW292358   5.178   9.556   2.985 -1.8545  1.0493 -2.1267
30594SOL     OW92359   9.073   9.051   3.150  0.6150 -0.0461  0.1664
30594SOL    HW192360   9.085   9.120   3.085  0.5057 -1.1079 -1.0286
30594SOL    HW292361   9.131   8.980   3.120 -1.4351 -1.6050 -0.3541
30595SOL     OW92362   1.894   2.082   9.610  0.4807 -0.3129 -0.1394
30595SOL    HW192363   1.809   2.083   9.567 -0.0826  0.6860  0.9382
30595SOL    HW292364   1.955   2.117   9.545 -0.3545  1.1813 -0.1684
30596SOL     OW92365   2.377   3.885   3.211  0.0011  0.0557 -0.2564
30596SOL    HW192366   2.450   3.826   3.190  2.3289  2.0927  1.6416
30596SOL    HW292367   2.397   3.966   3.164 -1.1452  0.6148  0.1779
30597SOL     OW92368   2.287   8.828   5.827 -0.2977  0.2488  0.6329
30597SOL    HW192369   2.300   8.913   5.867 -0.4521 -0.3273  1.9392
30597SOL    HW292370   2.339   8.767   5.879 -1.0990 -0.6372  0.4430
30598SOL     OW92371   7.348   7.243   2.486 -0.1071  0.0226 -0.4136
30598SOL    HW192372   7.432   7.274   2.521  0.2633 -0.0819 -1.2006
30598SOL    HW292373   7.360   7.149   2.474  0.2278  0.2386 -2.0242
30599SOL     OW92374   6.345   8.359   9.781 -0.1691 -0.4983  0.5524
30599SOL    HW192375   6.302   8.284   9.741 -0.3870 -0.7050  1.1604
30599SOL    HW292376   6.284   8.388   9.849  0.2874 -0.2839  0.8757
30600SOL     OW92377   6.946   1.101   4.507  0.0927  0.2737  0.0763
30600SOL    HW192378   6.859   1.070   4.483  0.5863 -1.8853  0.8661
30600SOL    HW292379   6.934   1.145   4.591 -0.0656 -1.1661  0.8299
30601SOL     OW92380   5.699   8.119   1.923 -0.5642 -0.1145 -0.0018
30601SOL    HW192381   5.784   8.148   1.957 -0.5780 -1.0790  0.9214
30601SOL    HW292382   5.639   8.129   1.997 -0.6849 -1.8392  0.1780
30602SOL     OW92383   7.905   8.982   5.583  0.0949 -0.0840 -0.1290
30602SOL    HW192384   7.815   8.955   5.565  0.6672 -1.0784 -1.7088
30602SOL    HW292385   7.930   9.036   5.508  0.4952  1.0629  0.7957
30603SOL     OW92386   8.471   6.784   5.966 -0.3492 -0.2022  0.4139
30603SOL    HW192387   8.549   6.751   6.009  0.5134  0.2165 -0.7793
30603SOL    HW292388   8.500   6.863   5.920 -1.2769 -0.5119 -0.7464
30604SOL     OW92389   0.223   5.049   9.264  0.3767  0.7136 -0.0630
30604SOL    HW192390   0.246   4.977   9.205 -1.2802 -0.1986  0.3334
30604SOL    HW292391   0.144   5.086   9.227  0.5511  1.5666  0.3998
30605SOL     OW92392   7.487   0.423   5.686 -0.1777 -0.2873  0.3961
30605SOL    HW192393   7.424   0.357   5.716 -0.7645 -0.1490 -0.5006
30605SOL    HW292394   7.446   0.462   5.609  0.6621  0.3605  0.2646
30606SOL     OW92395   2.484   0.514   7.620 -0.0807 -0.0533 -0.1043
30606SOL    HW192396   2.561   0.504   7.676 -0.4155 -1.6328  0.1212
30606SOL    HW292397   2.507   0.466   7.540 -0.1195  1.0599 -0.7976
30607SOL     OW92398   3.368   4.352   0.401 -0.0921 -0.1977 -0.2799
30607SOL    HW192399   3.394   4.408   0.328 -0.6495 -0.8919 -1.0265
30607SOL    HW292400   3.356   4.265   0.362  0.1032 -0.6977  0.7326
30608SOL     OW92401   7.942   9.931   9.517  0.2936 -0.2098  0.4037
30608SOL    HW192402   7.932   9.951   9.610 -1.5439 -0.8276  0.3628
30608SOL    HW292403   7.960   9.837   9.515  2.0135  0.0797  0.1849
30609SOL     OW92404   7.386   9.707   6.907  0.0867  0.8852 -0.0953
30609SOL    HW192405   7.390   9.612   6.893 -0.3595  0.9413 -0.6104
30609SOL    HW292406   7.441   9.721   6.984  1.2433  0.3809 -0.8176
30610SOL     OW92407   4.263   5.685   6.884 -0.5718 -0.1501  0.4762
30610SOL    HW192408   4.253   5.661   6.792 -1.8298 -1.2160  0.8493
30610SOL    HW292409   4.214   5.618   6.931 -1.3320  1.2804  1.8251
30611SOL     OW92410   1.333   0.493   5.696  0.5753  0.1626  0.0815
30611SOL    HW192411   1.381   0.475   5.615  2.9328 -0.6585  1.5460
30611SOL    HW292412   1.385   0.451   5.765 -2.0483 -0.3474  1.9073
30612SOL     OW92413   2.275   3.148   0.951  0.5467 -0.8644  0.1623
30612SOL    HW192414   2.277   3.214   0.881 -1.8680 -0.2233  0.6283
30612SOL    HW292415   2.364   3.149   0.987  1.3336  0.0916 -1.6790
30613SOL     OW92416   7.667   3.512   4.254  0.2760 -0.0563 -0.7772
30613SOL    HW192417   7.626   3.547   4.175 -0.8716  0.4427 -0.0043
30613SOL    HW292418   7.596   3.465   4.298  1.2110 -1.3784 -0.6411
30614SOL     OW92419   7.311   9.435   2.305 -0.1573 -0.4332 -0.0793
30614SOL    HW192420   7.295   9.523   2.339  1.4323 -0.1542  0.0563
30614SOL    HW292421   7.226   9.392   2.307 -1.0650  1.2576 -0.6218
30615SOL     OW92422   8.413   0.793   2.366 -0.7627  0.0475 -0.5389
30615SOL    HW192423   8.355   0.832   2.300  0.9757  2.2054 -0.9117
30615SOL    HW292424   8.367   0.807   2.449  0.3269  4.5399 -0.4362
30616SOL     OW92425   5.508   8.153   0.053 -0.7457  0.1102  0.1369
30616SOL    HW192426   5.500   8.149   0.148 -2.2745 -0.2753  0.0047
30616SOL    HW292427   5.434   8.206   0.024 -1.1848 -1.0637 -0.9560
30617SOL     OW92428   2.984   6.869   4.642 -0.3102 -0.5475 -0.5315
30617SOL    HW192429   3.029   6.811   4.702 -0.5076 -0.2110 -0.0532
30617SOL    HW292430   3.037   6.868   4.562  1.6434  1.3254  0.6381
30618SOL     OW92431   5.281   2.027   9.112 -0.6438  0.0240 -0.3074
30618SOL    HW192432   5.259   2.019   9.020 -0.2612  0.1885 -0.4151
30618SOL    HW292433   5.356   1.969   9.125  0.6534  1.5509 -0.5761
30619SOL     OW92434   5.898   8.733   7.796 -0.3468 -0.7883 -0.2954
30619SOL    HW192435   5.843   8.661   7.825  1.8711 -2.2715  0.5344
30619SOL    HW292436   5.877   8.805   7.856 -1.7717 -1.0817 -0.4054
30620SOL     OW92437   8.052   4.073   7.895  0.7390  0.1114  0.2291
30620SOL    HW192438   7.980   4.057   7.956  2.1110 -1.4855  1.5441
30620SOL    HW292439   8.010   4.105   7.816 -1.4281 -0.9194  0.8962
30621SOL     OW92440   6.708   3.167   9.087  0.5507 -0.5025  0.5473
30621SOL    HW192441   6.759   3.171   9.005  2.7296  0.4009  1.8504
30621SOL    HW292442   6.668   3.254   9.094  0.3830 -0.5720  0.4438
30622SOL     OW92443   1.641   7.616   7.768 -0.0887  0.6116 -0.6752
30622SOL    HW192444   1.585   7.557   7.819 -1.0976  1.2108 -1.0738
30622SOL    HW292445   1.700   7.654   7.833 -0.5045  0.3828 -0.1563
30623SOL     OW92446   3.634   8.014   6.376 -0.2834  0.0336  0.1433
30623SOL    HW192447   3.701   7.947   6.371  0.0449  0.4277 -1.0388
30623SOL    HW292448   3.596   8.017   6.288  1.0409  2.7106 -0.4657
30624SOL     OW92449   1.066   5.743   9.569  0.1651  0.6763 -0.1727
30624SOL    HW192450   1.147   5.786   9.597  1.3606 -2.0397  0.9446
30624SOL    HW292451   1.088   5.702   9.486 -0.0494 -0.0074  0.0973
30625SOL     OW92452   3.147   3.960   9.502 -0.0561 -0.1873  0.7876
30625SOL    HW192453   3.157   3.890   9.438  0.0762 -0.4903  1.1352
30625SOL    HW292454   3.053   3.965   9.517 -0.4701  2.0266 -1.7827
30626SOL     OW92455   5.272   9.393   7.328 -0.5518  0.7244  0.0594
30626SOL    HW192456   5.181   9.409   7.355 -0.4167  1.1848  0.2553
30626SOL    HW292457   5.315   9.360   7.406 -0.2569  1.6811  0.3177
30627SOL     OW92458   0.292   4.292   7.654  0.6376  0.2297 -0.2510
30627SOL    HW192459   0.267   4.255   7.570  0.0646  0.5176 -0.2122
30627SOL    HW292460   0.221   4.353   7.676  0.9282  0.3818  0.2940
30628SOL     OW92461   7.241   1.179   6.433 -0.0687 -0.0131  0.3604
30628SOL    HW192462   7.249   1.163   6.339  2.3818  2.2838  0.0631
30628SOL    HW292463   7.170   1.243   6.441  0.9556  1.2343 -0.1926
30629SOL     OW92464   8.916   9.585   8.903 -0.2516  0.3906 -0.3662
30629SOL    HW192465   8.880   9.531   8.832  2.2406 -0.8898 -0.7541
30629SOL    HW292466   8.852   9.578   8.974 -2.1193  0.5581 -1.9455
30630SOL     OW92467   8.118   3.876   9.342 -0.2056 -0.3910 -0.2251
30630SOL    HW192468   8.185   3.829   9.293  0.8131 -0.0994  0.8393
30630SOL    HW292469   8.148   3.967   9.343  0.3902 -0.5588  1.8221
30631SOL     OW92470   7.617   7.326   2.610 -0.3772  0.6207  0.0374
30631SOL    HW192471   7.626   7.349   2.703  0.4801  1.3146 -0.2031
30631SOL    HW292472   7.632   7.232   2.607  0.0638  0.6667  0.5596
30632SOL     OW92473   3.149   6.316   7.688 -0.4278  0.2545 -0.4793
30632SOL    HW192474   3.118   6.387   7.744 -0.1636  0.6466 -0.8309
30632SOL    HW292475   3.195   6.257   7.748  0.6816  1.1491 -0.4291
30633SOL     OW92476   0.295   7.604   7.252  0.2614  0.6206 -0.2252
30633SOL    HW192477   0.362   7.640   7.194  0.3545  1.0834  0.1655
30633SOL    HW292478   0.220   7.662   7.242  0.7211  1.4936  1.0931
30634SOL     OW92479   5.217   2.787   1.773  0.7509 -0.6091  0.6390
30634SOL    HW192480   5.252   2.876   1.782  0.6827 -0.4913 -0.2004
30634SOL    HW292481   5.175   2.770   1.857  3.5145 -1.0873  2.0527
30635SOL     OW92482   9.863   0.252   9.464 -0.0067  0.0252  0.6218
30635SOL    HW192483   9.809   0.327   9.487 -0.0097 -0.0264  0.7823
30635SOL    HW292484   9.807   0.176   9.479 -0.7656  0.0714 -1.6069
30636SOL     OW92485   6.484   9.962   5.651  0.1799 -0.4994 -0.9689
30636SOL    HW192486   6.433  10.039   5.625  0.0551  0.1149  0.9378
30636SOL    HW292487   6.421   9.907   5.699  0.4871 -1.3931 -1.5609
30637SOL     OW92488   6.553   0.073   6.040  0.0022  0.3889 -0.2290
30637SOL    HW192489   6.526   0.064   6.131 -0.7339  0.7218 -0.4018
30637SOL    HW292490   6.471   0.086   5.992  0.4188  0.6964 -0.8767
30638SOL     OW92491   7.088   2.918   4.010 -0.3946  0.4121 -0.2641
30638SOL    HW192492   7.028   2.846   3.990  0.8926 -0.7380 -0.0966
30638SOL    HW292493   7.031   2.986   4.046 -1.5735 -0.7597  0.1992
30639SOL     OW92494   7.863   8.041   7.484  0.7170  0.1898  0.1996
30639SOL    HW192495   7.939   8.012   7.535  0.8875  1.3867  0.6560
30639SOL    HW292496   7.894   8.117   7.436  0.3527 -0.5195 -1.1961
30640SOL     OW92497   7.561   9.111   4.421  0.3539 -0.5644  0.2039
30640SOL    HW192498   7.527   9.165   4.493  1.7205 -1.2531  1.4162
30640SOL    HW292499   7.640   9.156   4.392 -0.0120 -0.4665 -0.6716
30641SOL     OW92500   4.048   0.126   8.538  0.2578  0.3760 -0.2871
30641SOL    HW192501   4.057   0.221   8.540  0.9829  0.3459 -1.5580
30641SOL    HW292502   3.953   0.112   8.532  0.1403  1.0072 -0.0473
30642SOL     OW92503   5.187   9.755   9.108  0.6491  0.0569 -0.0240
30642SOL    HW192504   5.102   9.713   9.097  0.0096  0.9409  1.3599
30642SOL    HW292505   5.210   9.739   9.199  0.7132  2.1071  0.3518
30643SOL     OW92506   7.057   7.476   6.270  0.4889  0.4998  0.0142
30643SOL    HW192507   7.014   7.558   6.295  0.0610  0.5375 -0.8026
30643SOL    HW292508   7.010   7.409   6.319  0.2752  0.6567  0.0246
30644SOL     OW92509   0.604   3.397   7.051 -0.4057 -0.0104 -0.0503
30644SOL    HW192510   0.639   3.333   7.114 -1.6263  0.5658  1.2673
30644SOL    HW292511   0.664   3.471   7.057 -0.1762 -0.1992 -0.0075
30645SOL     OW92512   0.593   0.066   3.023 -0.5839  1.0456 -0.3883
30645SOL    HW192513   0.554   0.153   3.015 -2.6372  0.4597  1.9921
30645SOL    HW292514   0.680   0.081   3.061 -1.3213  2.0444  0.9780
30646SOL     OW92515   2.569   0.808   3.899  0.3133 -0.8821  0.6499
30646SOL    HW192516   2.490   0.857   3.876 -0.0715 -1.5853  0.4377
30646SOL    HW292517   2.583   0.828   3.992  0.9764  0.7288  0.2421
30647SOL     OW92518   3.265   3.385   4.711 -0.1379 -0.7303 -0.5686
30647SOL    HW192519   3.172   3.362   4.705 -0.2133 -0.4051 -0.7414
30647SOL    HW292520   3.266   3.480   4.700  0.2188 -0.7363 -0.6029
30648SOL     OW92521   4.051   5.051   6.151  0.2907  0.1357  0.1173
30648SOL    HW192522   4.018   5.138   6.128 -0.0297 -0.1508 -0.5238
30648SOL    HW292523   4.141   5.051   6.118  0.3327  0.2642  0.2282
30649SOL     OW92524   4.348   8.711   9.379 -0.1229 -0.2805 -0.4851
30649SOL    HW192525   4.345   8.806   9.374  0.9444  0.0746  3.1648
30649SOL    HW292526   4.345   8.682   9.287 -0.3273  3.2116 -1.7141
30650SOL     OW92527   4.893   6.499   1.646  0.2348  0.2031  0.8970
30650SOL    HW192528   4.923   6.576   1.694 -2.0641  1.4383  0.4915
30650SOL    HW292529   4.798   6.510   1.639  0.3360  0.2302 -4.0987
30651SOL     OW92530   4.662   0.175   3.807  0.3981  0.5651  0.2874
30651SOL    HW192531   4.641   0.085   3.834 -1.6803  0.4450 -1.4968
30651SOL    HW292532   4.747   0.167   3.765  1.3361 -0.1128  2.1916
30652SOL     OW92533   8.395   5.954   2.620 -0.1110 -0.3046  0.1504
30652SOL    HW192534   8.423   5.922   2.535  0.0999 -1.8783  0.7693
30652SOL    HW292535   8.378   5.874   2.671 -1.4494  0.5910  1.1885
30653SOL     OW92536   6.390   5.810   8.122 -0.5877 -0.7001 -0.0055
30653SOL    HW192537   6.301   5.833   8.094 -1.4398 -1.9790  1.5239
30653SOL    HW292538   6.447   5.857   8.060 -2.2985  0.3064 -0.8997
30654SOL     OW92539   0.084   3.214   6.539  0.2891  0.7527  0.4871
30654SOL    HW192540   0.092   3.227   6.444  0.1323 -0.1576  0.3394
30654SOL    HW292541   0.128   3.131   6.555  1.2252  1.3883  1.3809
30655SOL     OW92542   3.009   1.748   2.289 -0.0565 -0.1383 -0.9665
30655SOL    HW192543   3.050   1.729   2.204  2.0735  0.3847 -0.1197
30655SOL    HW292544   2.983   1.662   2.322  2.4422 -0.8149 -0.5786
30656SOL     OW92545   0.391   0.071   0.494  0.3454  0.5327  0.2233
30656SOL    HW192546   0.371   0.156   0.455  1.6449 -0.3721 -2.6759
30656SOL    HW292547   0.479   0.080   0.529  0.1547  0.5985  0.6996
30657SOL     OW92548   6.395   8.211   5.886  0.2568  0.0289  0.4212
30657SOL    HW192549   6.351   8.164   5.958 -0.7192 -0.1218 -0.2508
30657SOL    HW292550   6.376   8.158   5.809 -0.3341  1.1909 -0.2561
30658SOL     OW92551   8.379   6.433   5.848 -0.3655  0.4925 -0.1210
30658SOL    HW192552   8.323   6.355   5.856 -0.4803  0.5108 -0.7106
30658SOL    HW292553   8.363   6.465   5.759 -1.6133  2.1849  0.6541
30659SOL     OW92554   0.043   2.854   2.370  0.0101  0.4155 -0.1066
30659SOL    HW192555   0.104   2.860   2.444 -0.3559  1.8585  0.1036
30659SOL    HW292556   0.092   2.889   2.296 -0.3830  1.1063 -0.0465
30660SOL     OW92557   5.727   0.956   2.770 -0.0164  0.3314  0.0787
30660SOL    HW192558   5.671   0.886   2.736  0.0549 -1.2540  2.8697
30660SOL    HW292559   5.666   1.025   2.797 -0.4042 -0.1154  0.3726
30661SOL     OW92560   1.880   2.080   3.855  0.0065 -0.4986  0.3460
30661SOL    HW192561   1.895   2.113   3.766 -1.2684 -1.0372 -0.0820
30661SOL    HW292562   1.899   2.156   3.912 -0.5043  0.2547 -0.4646
30662SOL     OW92563   0.194   7.637   9.850 -0.7740 -0.0693 -0.2958
30662SOL    HW192564   0.132   7.565   9.839 -1.5282  0.4298  0.5051
30662SOL    HW292565   0.272   7.596   9.887 -1.1524 -0.4965  0.0443
30663SOL     OW92566   9.643   0.314   0.246 -0.3019  0.0530 -0.1328
30663SOL    HW192567   9.669   0.406   0.244  0.5548 -0.2028 -0.9133
30663SOL    HW292568   9.673   0.282   0.332 -1.8266  0.8291  0.7378
30664SOL     OW92569   0.374   9.550   3.125  0.0094 -0.3598 -0.6001
30664SOL    HW192570   0.461   9.510   3.125 -0.2479 -1.0537 -2.6927
30664SOL    HW292571   0.391   9.644   3.131  0.7683 -0.5770  1.2419
30665SOL     OW92572   4.337   2.882   1.609 -0.5238  0.0288  0.1951
30665SOL    HW192573   4.327   2.787   1.609  3.9233 -0.6631  1.4472
30665SOL    HW292574   4.374   2.902   1.524  0.7699  0.2330  0.7832
30666SOL     OW92575   3.382   4.678   4.618 -0.1493  0.4808  0.4316
30666SOL    HW192576   3.455   4.623   4.646  0.2010  1.5978  1.8756
30666SOL    HW292577   3.404   4.704   4.529 -0.0775 -1.2579 -0.0938
30667SOL     OW92578   6.715   1.685   1.852  0.4562 -0.2250  0.6537
30667SOL    HW192579   6.625   1.655   1.839 -0.0999  1.0657  1.3907
30667SOL    HW292580   6.727   1.752   1.785  0.7994 -0.2360  0.7040
30668SOL     OW92581   2.940   6.156   7.233  0.3539  0.3917 -0.3417
30668SOL    HW192582   2.849   6.133   7.251  0.6100 -2.4412 -1.9986
30668SOL    HW292583   2.972   6.193   7.315 -2.3479  1.9358  0.1522
30669SOL     OW92584   6.125   0.732   0.575 -0.3271 -0.2560  0.3663
30669SOL    HW192585   6.105   0.640   0.592  1.7553 -0.8177 -0.0012
30669SOL    HW292586   6.097   0.745   0.484 -0.6572 -0.4939  0.4289
30670SOL     OW92587   6.809   9.416   6.556  0.1485  0.1274  0.2967
30670SOL    HW192588   6.857   9.373   6.628  0.2691  0.4238  0.3933
30670SOL    HW292589   6.813   9.509   6.577 -0.4525  0.1561  0.2922
30671SOL     OW92590   9.045   3.597   0.756  0.2620  0.0011 -0.0850
30671SOL    HW192591   9.036   3.687   0.788  1.3300 -0.1384  0.6775
30671SOL    HW292592   9.135   3.573   0.777  0.2235 -0.9941 -0.9712
30672SOL     OW92593   3.072   7.517   0.043  0.4092 -0.6646  0.5217
30672SOL    HW192594   3.116   7.581   0.099 -0.1700 -1.0744  1.4647
30672SOL    HW292595   3.144   7.468   0.002  0.8633 -1.3546  2.0702
30673SOL     OW92596   0.408   3.974   1.289 -0.3690  0.2898 -0.4538
30673SOL    HW192597   0.468   4.047   1.277 -0.6139  0.6177  0.2690
30673SOL    HW292598   0.334   3.993   1.231 -1.7154  2.0440  1.6843
30674SOL     OW92599   9.978   6.261   3.740 -0.5179  0.4024  0.2008
30674SOL    HW192600   9.922   6.194   3.699 -1.2597  2.1855 -1.9184
30674SOL    HW292601  10.028   6.298   3.667  2.3683 -0.0471  1.8142
30675SOL     OW92602   4.787   3.591   3.590  0.2693  0.0880  0.6549
30675SOL    HW192603   4.775   3.558   3.679 -3.5134 -0.7638  0.0153
30675SOL    HW292604   4.731   3.669   3.587 -0.5231 -0.5247 -1.2519
30676SOL     OW92605   1.712   3.191   2.868  0.4004 -0.0364  0.0377
30676SOL    HW192606   1.619   3.214   2.866  0.4839  0.2477 -1.1816
30676SOL    HW292607   1.728   3.166   2.959 -0.9054 -0.2591  0.2278
30677SOL     OW92608   5.363   1.394   0.397  0.0986 -0.2127 -0.3573
30677SOL    HW192609   5.343   1.357   0.310 -0.0941 -1.7164  0.2888
30677SOL    HW292610   5.387   1.318   0.450  4.2487  1.0042 -0.1265
30678SOL     OW92611   9.763   0.991   2.599 -0.0622  0.1891  0.2792
30678SOL    HW192612   9.762   1.018   2.507 -2.7019 -0.3754  0.0574
30678SOL    HW292613   9.755   0.896   2.596  0.0062  0.1520  1.0954
30679SOL     OW92614   9.561   3.937   2.293 -0.1989  0.0953 -0.2154
30679SOL    HW192615   9.606   4.002   2.347 -1.5403  0.5434  0.3992
30679SOL    HW292616   9.504   3.890   2.355  0.0495 -1.0469 -0.8139
30680SOL     OW92617   5.164   2.359   4.927  0.3546 -0.1853 -0.0778
30680SOL    HW192618   5.215   2.290   4.884 -1.7443 -0.6526 -1.9915
30680SOL    HW292619   5.147   2.422   4.857 -3.5203 -1.1597 -0.2217
30681SOL     OW92620   4.896   3.467   9.227  0.7854 -0.1364  0.7401
30681SOL    HW192621   4.830   3.430   9.168  1.1521 -0.5353  0.5813
30681SOL    HW292622   4.846   3.494   9.304  0.2578  0.6085  0.1659
30682SOL     OW92623   1.873   8.054   2.995  0.6909 -0.4369  0.1284
30682SOL    HW192624   1.951   8.012   2.958  1.1384 -0.7876  1.4112
30682SOL    HW292625   1.833   7.987   3.050  1.2337  0.6569  1.9397
30683SOL     OW92626   8.694   9.777   0.507 -0.4399 -0.4886 -0.1912
30683SOL    HW192627   8.767   9.798   0.449 -0.1289  0.2829  0.4493
30683SOL    HW292628   8.736   9.749   0.588 -0.8065  1.3263  0.6741
30684SOL     OW92629   2.653   5.930   9.299  0.1940  0.4159  0.1901
30684SOL    HW192630   2.696   5.981   9.368  1.5918 -1.4886  0.8034
30684SOL    HW292631   2.724   5.898   9.244 -0.5280 -1.6252  0.3681
30685SOL     OW92632   2.466   4.132   0.887 -0.2925 -0.5880  0.3750
30685SOL    HW192633   2.507   4.163   0.967 -0.4736  0.7478 -0.0187
30685SOL    HW292634   2.372   4.141   0.904 -0.3336 -0.4531  0.0892
30686SOL     OW92635   7.272   1.098   7.193 -0.0767 -0.0359  0.4084
30686SOL    HW192636   7.244   1.178   7.237 -1.0591 -0.6673  0.9445
30686SOL    HW292637   7.235   1.105   7.105  1.0212  0.7374 -0.0208
30687SOL     OW92638   6.611   6.699   8.506  0.2694  0.0659  0.5566
30687SOL    HW192639   6.576   6.617   8.473  1.2337  0.2038 -0.9139
30687SOL    HW292640   6.644   6.744   8.428  0.2189  1.6283  1.3880
30688SOL     OW92641   8.168   4.152   5.427  0.1461 -0.2900  0.3532
30688SOL    HW192642   8.159   4.154   5.332  4.2327 -0.9264 -0.2183
30688SOL    HW292643   8.087   4.192   5.460 -1.8576 -0.9358 -3.2842
30689SOL     OW92644   7.031   7.945   0.467 -0.3669  0.2897  0.2648
30689SOL    HW192645   7.052   7.856   0.494 -1.9949 -0.2301 -0.1010
30689SOL    HW292646   7.099   7.967   0.403  1.0618 -0.0071  1.6048
30690SOL     OW92647   1.600   2.286   9.274  0.2834 -0.1633  0.8980
30690SOL    HW192648   1.527   2.235   9.307 -1.0237  0.9690 -0.0776
30690SOL    HW292649   1.573   2.377   9.286  1.1413  0.2810 -0.2676
30691SOL     OW92650   6.100   1.299   1.578  0.0367  0.0239  0.2622
30691SOL    HW192651   6.107   1.342   1.664  2.2202  0.8169 -0.2694
30691SOL    HW292652   6.153   1.220   1.587  0.7944  0.4311 -0.5296
30692SOL     OW92653   6.729   2.990   6.118  0.2098  0.1778  0.1265
30692SOL    HW192654   6.646   2.943   6.113  0.8158 -0.8639 -0.7109
30692SOL    HW292655   6.790   2.936   6.067  1.6368  0.4089  1.4977
30693SOL     OW92656   3.904   8.788   3.754 -0.1782 -0.3775 -0.2053
30693SOL    HW192657   3.838   8.854   3.777  0.8230  0.4100  0.4851
30693SOL    HW292658   3.914   8.736   3.834 -1.7743 -2.1347 -1.0741
30694SOL     OW92659   8.209   5.270   9.534 -0.0267 -0.0501 -0.0062
30694SOL    HW192660   8.171   5.184   9.518  0.1088 -0.0236 -0.5021
30694SOL    HW292661   8.147   5.331   9.494  0.6277 -0.0207 -1.0263
30695SOL     OW92662   6.474   5.383   2.319  0.1421 -0.2546  0.4897
30695SOL    HW192663   6.394   5.411   2.363  0.2512 -0.3039  0.7235
30695SOL    HW292664   6.469   5.423   2.232 -0.8587 -1.4725 -0.0462
30696SOL     OW92665   5.572   7.448   0.246 -0.4533 -0.2710  0.1592
30696SOL    HW192666   5.527   7.377   0.199  0.7778 -2.1317  1.6600
30696SOL    HW292667   5.638   7.404   0.299 -0.0216  1.9733  1.6194
30697SOL     OW92668   7.535   9.795   5.573  0.1291  0.5353 -0.0212
30697SOL    HW192669   7.565   9.707   5.594 -1.9913  0.0761  1.4375
30697SOL    HW292670   7.536   9.842   5.657 -1.0299  1.1380 -0.3135
30698SOL     OW92671   5.459   1.706   2.413  0.0351 -0.0414  0.7747
30698SOL    HW192672   5.504   1.629   2.448 -0.3440 -1.3806 -1.4698
30698SOL    HW292673   5.366   1.684   2.418 -0.1520  0.8456  1.3307
30699SOL     OW92674   5.974   5.158   1.505  0.4369  0.0166 -0.2902
30699SOL    HW192675   6.030   5.125   1.576  0.1248  0.1674  0.0292
30699SOL    HW292676   5.889   5.170   1.546  0.5413  1.2399 -0.3905
30700SOL     OW92677   8.629   0.610   9.154  0.3540 -0.0281  0.1024
30700SOL    HW192678   8.547   0.614   9.202 -0.3509  0.7786 -1.1071
30700SOL    HW292679   8.677   0.687   9.181  0.2495  0.0654  0.0232
30701SOL     OW92680   5.847   6.145   8.519  0.4273 -0.5717  0.0283
30701SOL    HW192681   5.934   6.116   8.546  0.2231  0.3534  1.7753
30701SOL    HW292682   5.862   6.193   8.437  1.9622  1.5487  1.4307
30702SOL     OW92683   8.681   3.564   7.687 -0.4276  0.3893  0.1686
30702SOL    HW192684   8.625   3.547   7.763 -3.8802  0.1082 -2.2069
30702SOL    HW292685   8.719   3.478   7.666  0.5539  0.4676  1.4782
30703SOL     OW92686   4.335   7.693   3.465 -0.1753 -0.2876 -0.2420
30703SOL    HW192687   4.280   7.617   3.444 -1.1247  0.1410  0.5950
30703SOL    HW292688   4.396   7.699   3.391 -0.0773 -1.8523 -0.3320
30704SOL     OW92689   1.360   5.688   6.129  0.0448 -0.1708 -0.3070
30704SOL    HW192690   1.407   5.622   6.079 -0.0220 -0.7999  0.4395
30704SOL    HW292691   1.428   5.745   6.163  0.2340 -0.7670  0.3275
30705SOL     OW92692   9.296   2.110   3.155 -0.1684  0.0591  0.4763
30705SOL    HW192693   9.227   2.176   3.164 -1.4840 -1.3049  0.9373
30705SOL    HW292694   9.271   2.059   3.078  0.5129 -0.2679  0.4613
30706SOL     OW92695   4.834   2.647   0.470  0.0830 -0.1252 -1.0342
30706SOL    HW192696   4.896   2.671   0.539 -0.2720  0.9020 -1.0634
30706SOL    HW292697   4.885   2.589   0.413  0.0278 -1.9829  0.7060
30707SOL     OW92698   6.360   6.550   1.709 -0.0205 -0.5020 -0.3552
30707SOL    HW192699   6.416   6.499   1.768 -0.2907  0.5038  0.8128
30707SOL    HW292700   6.418   6.578   1.638  0.2075 -2.1111 -0.8309
30708SOL     OW92701   5.519   8.160   1.269 -0.2779  0.3375 -0.0276
30708SOL    HW192702   5.480   8.154   1.356  1.3868 -0.6372  0.7139
30708SOL    HW292703   5.602   8.206   1.284  0.7875 -1.2542 -0.8006
30709SOL     OW92704   5.036   5.892   1.068  0.4238  0.0207  0.1078
30709SOL    HW192705   5.023   5.958   1.137 -0.2616 -0.0883  0.0851
30709SOL    HW292706   5.115   5.921   1.022  0.4747  0.4902  0.4853
30710SOL     OW92707   4.020   1.492   2.325 -0.1629 -0.0323 -0.0814
30710SOL    HW192708   4.049   1.407   2.357  2.8689  0.8818 -0.0307
30710SOL    HW292709   3.961   1.472   2.253 -0.7090 -2.1388  0.8823
30711SOL     OW92710   2.559   2.818   7.422  0.0535 -0.5202  0.0096
30711SOL    HW192711   2.508   2.779   7.352  0.1558 -0.9679  0.1818
30711SOL    HW292712   2.650   2.813   7.392 -0.0574  1.2929 -0.7993
30712SOL     OW92713   4.723  -0.027   6.649  0.0714  0.1933  0.1466
30712SOL    HW192714   4.732   0.032   6.724  0.3197 -0.0789  0.3311
30712SOL    HW292715   4.787   0.004   6.586 -1.7431  1.9230 -0.9573
30713SOL     OW92716   9.533   8.068   7.454 -0.1223  0.0174 -0.2143
30713SOL    HW192717   9.504   8.140   7.511 -0.6236  2.5336 -3.3901
30713SOL    HW292718   9.463   8.003   7.462  0.1023 -0.0290  2.3852
30714SOL     OW92719   7.497   0.101   0.834 -0.0471  0.1053  0.0030
30714SOL    HW192720   7.488   0.025   0.776  1.0811  0.3279 -0.4876
30714SOL    HW292721   7.465   0.070   0.919 -1.9832 -0.1460 -0.7619
30715SOL     OW92722   5.742   9.358   8.738  0.1413 -0.0826 -0.2560
30715SOL    HW192723   5.819   9.322   8.782  1.3522 -1.7373 -3.4688
30715SOL    HW292724   5.677   9.288   8.743 -0.3534  0.4077  0.3651
30716SOL     OW92725   8.834   8.821   2.702  0.1566 -0.2880 -0.6150
30716SOL    HW192726   8.918   8.851   2.667  0.3717  0.3732  0.4440
30716SOL    HW292727   8.835   8.726   2.689  2.2033 -0.6628  1.7279
30717SOL     OW92728   8.829   6.741   9.878 -0.0035  0.7794 -0.2731
30717SOL    HW192729   8.913   6.722   9.836 -0.4317 -1.4954 -0.1947
30717SOL    HW292730   8.779   6.788   9.811  1.1433  1.8011 -0.4578
30718SOL     OW92731   8.677   6.135   6.040  0.4335  0.0760  0.0680
30718SOL    HW192732   8.764   6.113   6.008  0.1847 -1.4682  0.3815
30718SOL    HW292733   8.644   6.053   6.078 -0.9913  0.7397  0.3123
30719SOL     OW92734   0.061   3.347   8.113  0.6970 -0.1045  0.4598
30719SOL    HW192735   0.110   3.383   8.039  0.3491 -1.5299 -0.5145
30719SOL    HW292736  -0.024   3.392   8.109  0.5250 -0.4711 -0.2987
30720SOL     OW92737   7.289   0.084   1.133  0.6901  0.4708 -0.2383
30720SOL    HW192738   7.357   0.133   1.179  0.8639  0.1678 -0.1666
30720SOL    HW292739   7.212   0.141   1.136  0.7005  0.4568  0.4278
30721SOL     OW92740   0.212   5.467   6.364  0.3997 -0.3568  0.0465
30721SOL    HW192741   0.131   5.415   6.363  0.5423 -0.8676 -4.0229
30721SOL    HW292742   0.282   5.403   6.360  0.7672  0.0754 -0.7021
30722SOL     OW92743   0.152   8.004   8.679  0.3922 -0.0095 -0.1808
30722SOL    HW192744   0.196   7.976   8.759  1.4009  1.0039 -0.3544
30722SOL    HW292745   0.166   7.933   8.617  1.6208  0.1987 -0.1651
30723SOL     OW92746   8.167   4.473   8.383 -0.4218  0.3181  0.1307
30723SOL    HW192747   8.204   4.558   8.405 -2.3515  0.8722  1.4947
30723SOL    HW292748   8.078   4.475   8.420 -1.0315 -1.7441 -1.0647
30724SOL     OW92749   2.628   6.376   6.544  0.5447 -0.2038  0.3415
30724SOL    HW192750   2.721   6.396   6.554  0.6409 -0.9115  0.9411
30724SOL    HW292751   2.622   6.324   6.464  0.7145 -0.4613  0.4949
30725SOL     OW92752   7.498   0.102   6.646  0.1197 -0.3461  0.2680
30725SOL    HW192753   7.571   0.080   6.704 -0.6066 -0.9527  0.9670
30725SOL    HW292754   7.422   0.061   6.686 -0.5999  0.1994 -0.5034
30726SOL     OW92755   8.003   2.950   5.686 -0.1556  0.4735  0.3177
30726SOL    HW192756   7.961   2.884   5.740  0.6246 -1.3814 -1.2441
30726SOL    HW292757   7.990   2.920   5.596  3.3916  0.3680 -0.3073
30727SOL     OW92758   2.378   8.554   4.568  0.1831 -0.1207  0.0309
30727SOL    HW192759   2.319   8.555   4.493 -0.7199  2.0864  0.7131
30727SOL    HW292760   2.465   8.552   4.529 -0.1452  3.5899 -1.2783
30728SOL     OW92761   3.702   7.673   0.056 -0.0671  0.2985  0.4833
30728SOL    HW192762   3.717   7.711   0.143  2.2431 -0.0241  0.2998
30728SOL    HW292763   3.737   7.584   0.063  0.7934  0.5049 -0.9543
30729SOL     OW92764   0.614   4.152   5.278 -0.0690  0.0137  0.4228
30729SOL    HW192765   0.592   4.213   5.208 -2.6664 -2.3873 -1.0962
30729SOL    HW292766   0.709   4.157   5.287 -0.1072  3.9562  0.2484
30730SOL     OW92767   0.102   7.900   2.006  0.4244  0.4176  0.1203
30730SOL    HW192768   0.068   7.963   2.070  0.9835  0.8310  0.0230
30730SOL    HW292769   0.159   7.843   2.057  0.6503  0.5731  0.0426
30731SOL     OW92770   8.441   6.523   5.592 -0.1196 -0.2288 -0.1834
30731SOL    HW192771   8.406   6.525   5.503  1.4747  0.6796 -0.8528
30731SOL    HW292772   8.527   6.482   5.583  0.3992  0.5834  0.7820
30732SOL     OW92773   3.683   2.411   0.730  0.2563 -0.3415 -1.0477
30732SOL    HW192774   3.776   2.420   0.706  0.1576 -0.5250 -1.5131
30732SOL    HW292775   3.645   2.496   0.709  0.2648 -0.3567 -1.1293
30733SOL     OW92776   6.873   0.346   8.372 -0.5137  0.5874  0.0595
30733SOL    HW192777   6.839   0.401   8.302 -0.7660  0.2004 -0.1275
30733SOL    HW292778   6.804   0.346   8.438 -0.0984  1.3010  0.5078
30734SOL     OW92779   5.801   1.659   0.108  0.2529  0.1123 -0.0411
30734SOL    HW192780   5.715   1.647   0.067  1.2768 -0.6829 -2.1258
30734SOL    HW292781   5.858   1.600   0.058  2.0109  0.6491  1.2791
30735SOL     OW92782   2.097   4.518   4.713  0.2427 -0.4617  0.1566
30735SOL    HW192783   2.192   4.509   4.720  0.2270 -0.1840  0.8195
30735SOL    HW292784   2.083   4.611   4.699  0.1163 -0.6520 -1.1239
30736SOL     OW92785   9.098   4.134   1.012  0.2726 -0.5656  0.4683
30736SOL    HW192786   9.105   4.172   1.100  1.4761  1.5493 -0.4845
30736SOL    HW292787   9.188   4.112   0.988  0.2297  0.6033 -0.9152
30737SOL     OW92788   4.132   8.770   9.163 -0.1902 -0.0936 -0.4214
30737SOL    HW192789   4.186   8.829   9.216 -0.9987  1.3860 -1.1796
30737SOL    HW292790   4.193   8.703   9.132  0.8459  0.5705  0.1343
30738SOL     OW92791   0.419   3.181   6.397 -0.3458  0.2657  0.0137
30738SOL    HW192792   0.389   3.269   6.376  0.7302  0.3703 -1.2287
30738SOL    HW292793   0.491   3.195   6.459 -1.5121  0.1222  1.4437
30739SOL     OW92794   0.378   8.414   9.979 -0.2134 -0.0413  0.0855
30739SOL    HW192795   0.294   8.370   9.971  0.6386 -1.3776 -2.4414
30739SOL    HW292796   0.393   8.454   9.893  0.7107  2.1757  1.1892
30740SOL     OW92797   9.168   6.846   6.659  0.0796  0.5182 -0.6705
30740SOL    HW192798   9.242   6.816   6.712 -1.6146 -0.0149  1.5460
30740SOL    HW292799   9.207   6.876   6.577  2.8576  1.2210  0.7990
30741SOL     OW92800   9.029   1.794   2.080  0.4668  0.6901 -0.2263
30741SOL    HW192801   9.044   1.799   1.986 -2.5311 -0.7235 -0.9127
30741SOL    HW292802   9.029   1.700   2.099 -0.3776  0.8887  0.8717
30742SOL     OW92803   3.514   0.838   0.419 -0.1094 -0.1739  0.7170
30742SOL    HW192804   3.434   0.882   0.390 -0.7709 -2.5554 -1.4868
30742SOL    HW292805   3.483   0.760   0.465  0.9899 -0.2710  1.3337
30743SOL     OW92806   5.008   0.293   4.120  0.1039 -0.3063  0.5897
30743SOL    HW192807   5.075   0.277   4.186  0.4004  0.7004  0.5475
30743SOL    HW292808   5.057   0.309   4.039 -0.2028  0.0123  0.4651
30744SOL     OW92809   2.321   5.450   7.623 -0.5058 -0.0280 -0.5745
30744SOL    HW192810   2.370   5.382   7.578 -2.8824 -1.1720 -1.6228
30744SOL    HW292811   2.240   5.406   7.652 -1.2620  1.8907  0.4073
30745SOL     OW92812   6.799   9.900   2.024 -0.4986  0.1356 -0.5271
30745SOL    HW192813   6.742   9.880   1.950 -0.7941 -1.5825  0.1234
30745SOL    HW292814   6.739   9.913   2.098 -0.1045 -1.0169  0.0204
30746SOL     OW92815   6.394   9.045   9.503  0.7574  0.1337 -0.2045
30746SOL    HW192816   6.437   9.131   9.499  1.5159 -0.2842 -1.7240
30746SOL    HW292817   6.307   9.061   9.466  0.7695  0.3282 -0.1530
30747SOL     OW92818   3.781   2.769   3.403  0.4732 -0.2603 -0.2271
30747SOL    HW192819   3.806   2.775   3.495  1.6030 -1.1620 -0.4546
30747SOL    HW292820   3.701   2.821   3.397  0.3376 -0.2428  1.2745
30748SOL     OW92821   0.751   8.788   3.813  0.3608 -0.4559  0.9723
30748SOL    HW192822   0.742   8.693   3.799  0.2748 -0.4467  0.9672
30748SOL    HW292823   0.801   8.818   3.737 -1.3378 -0.1837 -0.0928
30749SOL     OW92824   8.707   0.816   9.846  0.0505  0.5914  0.0332
30749SOL    HW192825   8.785   0.806   9.792 -0.7018 -2.4120 -0.7129
30749SOL    HW292826   8.737   0.797   9.935  0.7433  2.8065  0.3391
30750SOL     OW92827   2.770   8.561   3.877 -0.0710 -0.2533  0.6042
30750SOL    HW192828   2.782   8.597   3.965  0.2489  0.1107  0.4146
30750SOL    HW292829   2.679   8.579   3.856  0.2967  1.2377  0.1714
30751SOL     OW92830   7.938   1.018   5.504  0.3427  0.0885 -0.0878
30751SOL    HW192831   7.913   0.946   5.446  1.3937 -0.6168  0.3080
30751SOL    HW292832   8.018   0.987   5.547  1.4269  1.9145 -0.6975
30752SOL     OW92833   0.528   3.874   3.139 -0.0189 -0.1436  0.2364
30752SOL    HW192834   0.483   3.842   3.060  0.3436  0.2482 -0.1359
30752SOL    HW292835   0.468   3.939   3.176 -0.4044 -0.6748  0.5565
30753SOL     OW92836   9.105   4.599   3.988  0.2458  0.5615  0.1714
30753SOL    HW192837   9.081   4.507   4.000 -1.8471  1.1234  0.6618
30753SOL    HW292838   9.030   4.648   4.020  1.2501  2.4665 -0.2293
30754SOL     OW92839   2.108   6.806   0.818 -0.3339 -0.3172 -0.4272
30754SOL    HW192840   2.094   6.826   0.910  0.2448 -0.0544 -0.3893
30754SOL    HW292841   2.125   6.712   0.816 -1.2456 -0.4909 -0.3803
30755SOL     OW92842   2.853   0.983   4.745  0.4079  0.5352 -0.3557
30755SOL    HW192843   2.902   1.057   4.710 -0.0124  0.7225 -0.5577
30755SOL    HW292844   2.786   0.965   4.679 -0.8424  1.3451  0.6416
30756SOL     OW92845   8.121   9.475   1.201 -0.1852  0.0573 -0.0779
30756SOL    HW192846   8.052   9.538   1.183 -0.8849 -0.6315  0.1476
30756SOL    HW292847   8.164   9.508   1.280  0.2831  0.9143 -0.6689
30757SOL     OW92848   5.346   4.241   2.706 -0.2130 -0.5721  0.1308
30757SOL    HW192849   5.378   4.321   2.749 -0.8536 -0.2307 -0.0036
30757SOL    HW292850   5.396   4.236   2.625  0.5434 -0.8630  0.6109
30758SOL     OW92851   1.392   0.768   5.546 -0.7063 -0.2791 -0.1198
30758SOL    HW192852   1.346   0.685   5.556 -0.1937 -0.5424  0.1576
30758SOL    HW292853   1.432   0.783   5.633 -0.2209 -0.1036 -0.3677
30759SOL     OW92854   0.230   9.509   6.021 -0.3194  0.2779 -0.1119
30759SOL    HW192855   0.196   9.420   6.032  2.4878 -0.7355  1.3257
30759SOL    HW292856   0.163   9.565   6.059 -1.2283 -1.4007  0.8806
30760SOL     OW92857   6.312   0.672   6.085 -0.2258 -0.3487 -0.6770
30760SOL    HW192858   6.237   0.650   6.140 -0.1391  4.6187  2.0777
30760SOL    HW292859   6.297   0.763   6.059  3.8539  0.2690 -1.6414
30761SOL     OW92860   4.193   4.748   0.044 -0.5265  0.0727 -0.4372
30761SOL    HW192861   4.126   4.735   0.112 -0.4667  0.1723 -0.3581
30761SOL    HW292862   4.247   4.669   0.048 -1.5416 -0.6960 -1.5359
30762SOL     OW92863   8.112   6.933   2.472  0.3407 -0.5169  0.0013
30762SOL    HW192864   8.081   7.011   2.519  0.4514 -0.7603  0.4787
30762SOL    HW292865   8.033   6.894   2.434  0.4632  0.8398 -1.8271
30763SOL     OW92866   1.647   7.795   6.697  0.3710 -0.4332 -0.1282
30763SOL    HW192867   1.580   7.777   6.763  0.9031 -0.1453  0.4998
30763SOL    HW292868   1.613   7.871   6.649 -1.0696 -1.9457 -1.6735
30764SOL     OW92869   0.409   7.585   0.252  0.1467 -0.1825 -0.5018
30764SOL    HW192870   0.460   7.530   0.193  0.0929  0.5164 -1.2225
30764SOL    HW292871   0.475   7.628   0.307  0.2924  0.0835 -0.8739
30765SOL     OW92872   5.836   0.979   0.214 -0.7368  0.0417 -0.1402
30765SOL    HW192873   5.909   1.020   0.167 -1.5119  1.7065  0.0208
30765SOL    HW292874   5.836   0.888   0.185  1.8915 -0.2451  0.4566
30766SOL     OW92875   7.304   6.992   9.878  0.2873 -0.4501 -0.3390
30766SOL    HW192876   7.252   6.939   9.938  1.1043  0.2474  1.0686
30766SOL    HW292877   7.265   7.079   9.882 -0.6063 -0.7313 -2.0762
30767SOL     OW92878   4.850   3.062   8.323  0.1138 -0.1503 -0.1668
30767SOL    HW192879   4.820   2.973   8.339  0.9703 -0.4776 -0.3510
30767SOL    HW292880   4.945   3.056   8.326  0.1777  0.8451  0.3059
30768SOL     OW92881   1.218   1.591   4.330 -0.5720  0.0923  1.0790
30768SOL    HW192882   1.149   1.637   4.376  1.1999  0.6384  3.3723
30768SOL    HW292883   1.254   1.530   4.395  0.2957 -1.0854 -0.4271
30769SOL     OW92884   2.196   5.715   2.042 -0.0945 -0.3827 -0.4157
30769SOL    HW192885   2.184   5.810   2.043  2.2628 -0.0167 -0.4912
30769SOL    HW292886   2.228   5.694   2.130  1.8984 -0.6517 -1.1452
30770SOL     OW92887   1.164   3.978   0.478 -0.1178  0.8662 -0.5312
30770SOL    HW192888   1.151   3.901   0.533 -0.0618  1.0215 -0.2988
30770SOL    HW292889   1.076   4.015   0.467 -0.5983 -0.7487 -2.9069
30771SOL     OW92890   7.341   5.231   1.133  0.9982 -0.4235 -0.6303
30771SOL    HW192891   7.312   5.290   1.064  2.7395  0.0525 -0.9950
30771SOL    HW292892   7.344   5.145   1.092  0.7377 -0.3793 -0.7496
30772SOL     OW92893   0.664   8.045   5.469  0.0711 -0.1334  0.6389
30772SOL    HW192894   0.587   8.096   5.444  0.0202 -0.2327  0.5938
30772SOL    HW292895   0.636   7.998   5.548  0.4840  0.7930  1.3554
30773SOL     OW92896   8.280   2.778   5.532  0.2521 -1.0155  0.9875
30773SOL    HW192897   8.308   2.790   5.623 -0.8520  2.3239  0.9995
30773SOL    HW292898   8.319   2.850   5.484  0.7226 -2.6428 -1.2585
30774SOL     OW92899   9.536   7.216   6.072  0.2461 -0.1070 -0.4171
30774SOL    HW192900   9.502   7.197   5.984 -0.2055  1.3900 -0.5901
30774SOL    HW292901   9.616   7.163   6.078 -1.1355 -2.3686 -0.6557
30775SOL     OW92902   1.603   3.703   8.376  0.1119  0.2833 -0.2343
30775SOL    HW192903   1.665   3.662   8.316  0.1440 -0.8509  0.5522
30775SOL    HW292904   1.653   3.773   8.417  1.1349 -1.0814  0.9284
30776SOL     OW92905   6.168   8.625   4.305 -0.5386 -0.3705  0.1077
30776SOL    HW192906   6.190   8.624   4.211  0.1247  0.2752  0.2448
30776SOL    HW292907   6.231   8.565   4.345 -0.6826 -0.4800  0.1713
30777SOL     OW92908   2.297   3.181   9.432 -0.0108 -0.4732 -0.1161
30777SOL    HW192909   2.322   3.265   9.469  0.0390  0.6164 -2.4287
30777SOL    HW292910   2.202   3.179   9.439  0.0625 -0.7749  0.9796
30778SOL     OW92911   1.357   5.064   8.579 -0.4421 -0.7643  0.3002
30778SOL    HW192912   1.312   5.097   8.502 -0.0005  0.9464  0.7219
30778SOL    HW292913   1.408   4.989   8.547  0.5799  0.5468 -1.3401
30779SOL     OW92914   9.704   3.396   2.426 -0.1462  0.6460 -0.1475
30779SOL    HW192915   9.669   3.345   2.500  2.6533  0.0238  0.8826
30779SOL    HW292916   9.763   3.460   2.467  1.8836 -0.0412 -1.8292
30780SOL     OW92917   7.431   7.058   0.498 -0.4397 -0.1157 -0.3856
30780SOL    HW192918   7.356   7.006   0.524  0.7190 -0.9804  1.4931
30780SOL    HW292919   7.419   7.142   0.543 -0.2907 -0.2486 -0.0967
30781SOL     OW92920   7.696   6.289   7.906  0.0499 -0.3648  0.0352
30781SOL    HW192921   7.674   6.302   7.813 -2.2199  0.8419  0.6774
30781SOL    HW292922   7.621   6.242   7.942  0.7132 -0.4375  1.3667
30782SOL     OW92923   6.753   1.629   8.205  0.2803 -0.1887 -0.1258
30782SOL    HW192924   6.764   1.705   8.147  2.5166 -1.1261 -1.0296
30782SOL    HW292925   6.745   1.667   8.293 -3.0203  1.2512 -0.8992
30783SOL     OW92926   0.916   6.599   7.653  0.8014  0.6484 -0.3173
30783SOL    HW192927   0.828   6.577   7.622 -0.4364  0.4556  2.9285
30783SOL    HW292928   0.973   6.535   7.611 -0.8736 -0.3442 -1.1779
30784SOL     OW92929   3.206   6.663   6.845  0.2546  0.0280  0.3253
30784SOL    HW192930   3.300   6.660   6.863  0.3528 -0.2656 -0.1993
30784SOL    HW292931   3.197   6.729   6.777  0.0126  0.4235  0.7354
30785SOL     OW92932   9.658   3.841   3.491 -0.0420  0.2659  0.3291
30785SOL    HW192933   9.724   3.800   3.435  0.1356 -2.7303  2.4719
30785SOL    HW292934   9.705   3.863   3.572 -1.4857 -1.9405  1.8959
30786SOL     OW92935   5.467   8.992   0.393 -0.4262 -0.0554 -0.2247
30786SOL    HW192936   5.536   8.986   0.459 -1.3622 -2.1463  0.6512
30786SOL    HW292937   5.395   9.037   0.438 -0.0840  1.0696 -0.7661
30787SOL     OW92938   8.057   7.515   1.764 -0.0192 -0.3433  0.0418
30787SOL    HW192939   8.137   7.516   1.712  1.2451  0.6292  1.9003
30787SOL    HW292940   8.044   7.423   1.784  1.8112 -0.3745  1.3571
30788SOL     OW92941   7.307   4.324   0.325 -0.8096  0.0903 -0.5695
30788SOL    HW192942   7.230   4.341   0.272 -0.5527  2.8497 -0.1795
30788SOL    HW292943   7.273   4.308   0.413 -0.9663  0.7585 -0.5088
30789SOL     OW92944   6.216   6.609   0.272 -0.0738  0.2792 -0.1804
30789SOL    HW192945   6.161   6.654   0.208 -0.4379  0.1843  0.0616
30789SOL    HW292946   6.156   6.549   0.316  0.0941  0.6209  0.5156
30790SOL     OW92947   3.790   7.929   8.355 -0.3137 -0.1553  0.2529
30790SOL    HW192948   3.705   7.966   8.331 -0.8924 -0.6561  1.4154
30790SOL    HW292949   3.847   8.005   8.366 -0.3334  0.1377 -1.4690
30791SOL     OW92950   2.856   7.873   8.662 -0.1873 -0.3072 -0.1261
30791SOL    HW192951   2.811   7.923   8.594  2.1556  0.7082 -1.0707
30791SOL    HW292952   2.857   7.931   8.738 -1.0027 -0.5919  0.1050
30792SOL     OW92953   1.890   5.072   6.838  0.3663  0.4169  0.3810
30792SOL    HW192954   1.911   5.165   6.830  0.2359  0.4232  0.0688
30792SOL    HW292955   1.878   5.057   6.932 -1.1219  1.0561  0.3162
30793SOL     OW92956   5.494   4.500   7.655 -0.0562 -0.4842 -0.0221
30793SOL    HW192957   5.477   4.452   7.574 -0.1397 -2.1040  0.9199
30793SOL    HW292958   5.412   4.494   7.704 -0.1762  0.9261  0.0048
30794SOL     OW92959   1.297   9.906   2.250 -0.4898  0.0706 -0.1157
30794SOL    HW192960   1.224   9.853   2.282 -0.5895  1.5001  2.2913
30794SOL    HW292961   1.269   9.937   2.164 -2.3401 -0.1596  0.3621
30795SOL     OW92962   1.400   6.036   6.003 -0.1832  0.7324 -0.3625
30795SOL    HW192963   1.447   6.112   6.037  2.0963 -0.9632  0.5669
30795SOL    HW292964   1.352   6.002   6.078  1.8652 -0.8563  0.3244
30796SOL     OW92965   2.508   1.764   3.624  0.1548  0.5385 -0.5430
30796SOL    HW192966   2.528   1.816   3.545 -0.3064  0.4235 -0.7379
30796SOL    HW292967   2.466   1.685   3.590  0.7139  0.1045 -0.2360
30797SOL     OW92968   9.552   5.006   4.348 -0.1914  0.4362  0.0636
30797SOL    HW192969   9.483   5.072   4.355 -0.1889  0.5449 -0.7562
30797SOL    HW292970   9.632   5.053   4.372 -0.5474 -0.0547  2.4505
30798SOL     OW92971   5.856   3.451   3.173  0.6567  0.3545 -0.0319
30798SOL    HW192972   5.796   3.391   3.218  0.6583  0.6518  0.3784
30798SOL    HW292973   5.917   3.480   3.242  0.4836  1.0399 -0.1608
30799SOL     OW92974   7.854   8.406   3.604 -0.3588 -0.0776 -0.4706
30799SOL    HW192975   7.816   8.335   3.656  0.4916  0.0386  0.3244
30799SOL    HW292976   7.947   8.406   3.627 -0.5132  2.0179  0.4349
30800SOL     OW92977   5.087   8.701   8.856  0.3238 -0.2313 -0.0682
30800SOL    HW192978   4.996   8.727   8.868  0.2445  1.1064 -2.8801
30800SOL    HW292979   5.082   8.620   8.805  0.7467 -1.0303  1.1003
30801SOL     OW92980   8.379   5.527   4.487 -0.4873 -0.3786  0.0128
30801SOL    HW192981   8.384   5.540   4.582 -0.8330 -1.6046  0.2207
30801SOL    HW292982   8.443   5.458   4.470 -1.9182 -1.6483 -0.3252
30802SOL     OW92983   8.088   5.517   2.994  0.4486  0.0318 -0.0818
30802SOL    HW192984   8.032   5.579   3.039 -1.6646 -2.9354  1.7626
30802SOL    HW292985   8.176   5.534   3.027  0.0011  2.1342  0.1325
30803SOL     OW92986   2.574   4.918   2.796  0.2696 -0.1664  0.5944
30803SOL    HW192987   2.573   4.927   2.701  2.3560  2.2188  0.6787
30803SOL    HW292988   2.487   4.948   2.824  0.5757  1.9475 -0.4841
30804SOL     OW92989   9.247   5.765   4.337 -0.0526 -0.2328  0.3630
30804SOL    HW192990   9.290   5.738   4.256  0.3129 -1.3702  0.9116
30804SOL    HW292991   9.156   5.782   4.312 -0.0127 -0.8459 -0.2332
30805SOL     OW92992   2.421   8.169   3.835  0.4154 -0.1564 -0.0969
30805SOL    HW192993   2.459   8.210   3.757 -0.2586 -1.3217 -1.0657
30805SOL    HW292994   2.454   8.079   3.833  0.9369 -0.0269  1.3595
30806SOL     OW92995   9.718   5.690   2.143  0.4050  0.6046 -0.0185
30806SOL    HW192996   9.726   5.723   2.233  0.1345  0.8166 -0.0694
30806SOL    HW292997   9.773   5.748   2.091  0.5279  0.5080  0.0027
30807SOL     OW92998   3.549   5.965   8.943  0.6468 -0.0389  0.6785
30807SOL    HW192999   3.506   6.005   8.867 -0.2502 -0.2966  1.0325
30807SOL    HW293000   3.600   5.893   8.906  0.0157 -0.3222  0.3387
30808SOL     OW93001   6.347   7.031   7.045 -0.2809 -0.1909 -0.0081
30808SOL    HW193002   6.348   7.088   7.122  0.1937 -0.4630  0.1949
30808SOL    HW293003   6.256   7.028   7.017 -0.4248  0.0550  0.4398
30809SOL     OW93004   9.389   6.679   7.162 -0.5027  0.5048 -0.0271
30809SOL    HW193005   9.438   6.761   7.160 -1.6040  1.1767 -0.5234
30809SOL    HW293006   9.434   6.625   7.227  0.5061  1.3278 -0.0266
30810SOL     OW93007   6.305   8.780   7.507 -0.1642  0.2981  0.4575
30810SOL    HW193008   6.285   8.744   7.421  0.7609  2.4475 -0.7152
30810SOL    HW293009   6.298   8.875   7.496  1.6587  0.7099  2.3098
30811SOL     OW93010   1.725   5.399   1.351  0.0034 -0.0091  0.9506
30811SOL    HW193011   1.751   5.310   1.375 -1.1783 -0.6854 -0.1028
30811SOL    HW293012   1.677   5.432   1.427 -1.9315 -1.3442  0.3863
30812SOL     OW93013   9.588   5.396   8.890 -0.6203 -0.2494  0.3384
30812SOL    HW193014   9.517   5.458   8.873 -0.3105  0.4405  1.4733
30812SOL    HW293015   9.648   5.443   8.948  1.0891 -0.6031 -1.0472
30813SOL     OW93016   5.605   6.336   0.473  0.4360 -0.8280  0.0123
30813SOL    HW193017   5.541   6.277   0.512 -1.1339  0.0789 -1.0617
30813SOL    HW293018   5.661   6.363   0.546  0.0838 -2.2446  0.8358
30814SOL     OW93019   4.360   9.478   7.341  0.1942  0.3655  0.2646
30814SOL    HW193020   4.305   9.556   7.332  1.4106  1.2349  0.0614
30814SOL    HW293021   4.350   9.432   7.257  0.4230  0.9714 -0.1062
30815SOL     OW93022   0.823   8.358   6.403  0.4957 -0.2851 -0.7616
30815SOL    HW193023   0.895   8.384   6.345  2.1035 -0.3532  1.1161
30815SOL    HW293024   0.849   8.271   6.434  0.9346  0.7142  1.8948
30816SOL     OW93025   9.098   1.180   9.212 -0.0978 -0.3888  0.4410
30816SOL    HW193026   9.011   1.140   9.205  0.2783 -0.9564 -1.7371
30816SOL    HW293027   9.128   1.187   9.121  0.9399  2.4988  0.8963
30817SOL     OW93028   1.970   7.653   8.916  0.4315 -0.9549 -1.2079
30817SOL    HW193029   1.991   7.589   8.984 -0.0152 -1.2646 -1.3641
30817SOL    HW293030   1.909   7.609   8.858 -1.5445  0.2815 -0.1712
30818SOL     OW93031   4.777   5.780   9.905  0.6121 -0.0488  0.4380
30818SOL    HW193032   4.729   5.861   9.924  2.3299  0.9361  0.8839
30818SOL    HW293033   4.716   5.710   9.925 -1.5252  1.0969 -1.5241
30819SOL     OW93034   8.691   0.448   4.987  0.1636  0.0136  0.4085
30819SOL    HW193035   8.634   0.391   5.039  0.7637 -1.3368 -0.3364
30819SOL    HW293036   8.767   0.393   4.967  0.8418  1.1469 -0.2244
30820SOL     OW93037   0.424   2.803   7.088 -0.7031 -0.2423  0.0521
30820SOL    HW193038   0.377   2.836   7.012  0.5348 -0.3199 -0.7706
30820SOL    HW293039   0.398   2.861   7.160 -1.1285  0.4441 -0.6447
30821SOL     OW93040   5.951   4.624   7.737 -0.0903 -0.3643 -0.0087
30821SOL    HW193041   5.983   4.571   7.664  0.9260  1.7349 -1.1644
30821SOL    HW293042   5.856   4.629   7.723  0.2393  1.1510 -2.0480
30822SOL     OW93043   1.404   1.387   0.752 -0.0885 -0.5237  0.3781
30822SOL    HW193044   1.491   1.377   0.712  0.3840 -0.7249  1.4272
30822SOL    HW293045   1.409   1.471   0.798 -0.3039 -0.7325  0.7856
30823SOL     OW93046   1.955   2.478   5.153 -0.4979  0.1302  0.6591
30823SOL    HW193047   1.907   2.546   5.105 -1.4696 -0.1730  1.1743
30823SOL    HW293048   2.025   2.452   5.094 -0.1940  1.4692  0.3867
30824SOL     OW93049   5.197   5.183   1.353  0.4024  0.4773 -0.5991
30824SOL    HW193050   5.133   5.162   1.421 -0.3146  1.4167 -0.9549
30824SOL    HW293051   5.280   5.192   1.399  0.1695 -0.1808 -0.0432
30825SOL     OW93052   7.827   1.560   5.660  0.2302 -0.3251  0.3368
30825SOL    HW193053   7.909   1.528   5.621  1.0793  2.1348 -0.0660
30825SOL    HW293054   7.772   1.581   5.585  0.1246  0.1900  0.5571
30826SOL     OW93055   2.271   5.359   1.123 -0.6121  0.2515  0.3332
30826SOL    HW193056   2.198   5.332   1.066 -0.4981  1.7281 -0.5570
30826SOL    HW293057   2.229   5.382   1.206 -1.1223  0.7978 -0.0738
30827SOL     OW93058   5.862   5.820  -0.010 -0.3122 -0.0103 -0.4329
30827SOL    HW193059   5.895   5.852   0.074  2.1132 -2.4415 -0.3077
30827SOL    HW293060   5.778   5.779   0.011 -1.0501  1.7562  0.2479
30828SOL     OW93061   0.593   4.850   1.297 -0.4149 -0.3597 -0.0870
30828SOL    HW193062   0.599   4.944   1.282 -1.2112 -0.0823  1.1802
30828SOL    HW293063   0.683   4.818   1.289  0.5764  1.1545  3.2586
30829SOL     OW93064   4.419   6.384   5.279  0.4475 -0.3678  0.5367
30829SOL    HW193065   4.448   6.335   5.202 -0.4426  0.8051 -0.5790
30829SOL    HW293066   4.488   6.369   5.344  0.8843 -1.9305 -0.2409
30830SOL     OW93067   1.473   4.917   3.799  0.7464 -0.1652 -0.1968
30830SOL    HW193068   1.500   4.910   3.891  2.3330  0.8988 -0.5391
30830SOL    HW293069   1.380   4.895   3.800  0.8069 -0.5352  1.6072
30831SOL     OW93070   6.020   3.879   0.401  0.0344 -0.5180  0.2240
30831SOL    HW193071   5.969   3.930   0.338 -0.3915 -0.7987  0.3413
30831SOL    HW293072   6.067   3.945   0.452 -0.1455 -0.2612  0.0646
30832SOL     OW93073   0.748   2.951   2.540  0.8135 -0.6644  0.5253
30832SOL    HW193074   0.711   2.947   2.452 -1.3540 -1.7965  1.4150
30832SOL    HW293075   0.681   2.994   2.594  2.4825  0.8667  1.4857
30833SOL     OW93076   2.214   2.884   9.252  0.4226  0.2691  0.0403
30833SOL    HW193077   2.138   2.841   9.293  0.0894  1.9943  1.3232
30833SOL    HW293078   2.177   2.955   9.200  1.0220 -0.4712 -1.4770
30834SOL     OW93079   6.684   4.726   6.457  0.4331  0.4953  0.3349
30834SOL    HW193080   6.753   4.775   6.412 -0.1173  1.6827  0.7214
30834SOL    HW293081   6.612   4.789   6.464 -0.5039 -0.5619  0.3820
30835SOL     OW93082   1.885   9.844   7.933  0.1348  0.1247 -0.3648
30835SOL    HW193083   1.910   9.801   8.014  0.8639 -0.0675 -0.6819
30835SOL    HW293084   1.801   9.885   7.952 -0.4149 -1.1451  0.0409
30836SOL     OW93085   1.588   3.468   3.340 -0.3675 -0.2286  0.4515
30836SOL    HW193086   1.619   3.378   3.351  0.6778  0.0915  0.2010
30836SOL    HW293087   1.666   3.518   3.313 -1.4528  0.2423 -2.1670
30837SOL     OW93088   8.397   0.625   6.403  0.4538 -0.1272 -0.0118
30837SOL    HW193089   8.428   0.608   6.491 -0.4992  0.0066  0.3613
30837SOL    HW293090   8.368   0.540   6.370  1.4245 -0.2972 -0.4528
30838SOL     OW93091   4.050   2.962   0.288 -0.8958 -0.1323  0.6443
30838SOL    HW193092   4.074   2.919   0.370  1.5443  0.0387  0.1016
30838SOL    HW293093   3.954   2.965   0.289 -1.0543 -2.9171  2.0217
30839SOL     OW93094   8.002   0.657   6.116  0.4010 -0.4699 -0.0653
30839SOL    HW193095   7.955   0.579   6.084 -0.3456  0.5713 -1.6144
30839SOL    HW293096   8.054   0.686   6.041  0.0873  0.9535  0.2527
30840SOL     OW93097   4.591   4.702   1.842 -0.1438 -0.5668 -0.0982
30840SOL    HW193098   4.584   4.744   1.756 -0.0363 -0.9469 -0.2921
30840SOL    HW293099   4.685   4.702   1.861 -0.0428 -1.6315 -0.5526
30841SOL     OW93100   9.549   1.159   7.433 -0.5830  0.1987 -0.3337
30841SOL    HW193101   9.636   1.156   7.473  0.4899 -1.1705 -2.6086
30841SOL    HW293102   9.561   1.210   7.353 -2.3828  1.7417  0.3067
30842SOL     OW93103   2.915   2.464   7.181 -0.2889  0.1885  0.2476
30842SOL    HW193104   2.917   2.430   7.091  1.3989  0.1667  0.2590
30842SOL    HW293105   2.947   2.392   7.235 -0.7910  0.3843  0.8168
30843SOL     OW93106   7.306   9.616   6.207  0.3898  0.4689 -0.0175
30843SOL    HW193107   7.210   9.620   6.209  0.4295  1.3179  1.2373
30843SOL    HW293108   7.327   9.531   6.246  0.1641  1.0846  1.5190
30844SOL     OW93109   5.588   4.707   3.870  0.6611  0.0610  0.2742
30844SOL    HW193110   5.506   4.756   3.873  1.4555  1.4092  0.6010
30844SOL    HW293111   5.615   4.712   3.778  0.5990 -0.0247  0.2506
30845SOL     OW93112   2.186   6.316   6.060  0.2728 -0.2339  0.5220
30845SOL    HW193113   2.247   6.388   6.076  0.3185 -0.1958  0.1928
30845SOL    HW293114   2.100   6.354   6.075  0.2880 -0.0608  0.1796
30846SOL     OW93115   6.328   5.076   1.368  0.0167  0.0558 -0.2678
30846SOL    HW193116   6.362   5.004   1.315  0.4800  0.3471 -0.3756
30846SOL    HW293117   6.252   5.107   1.319 -1.0775 -1.2865  0.5084
30847SOL     OW93118   4.379   3.611   7.038 -0.1469 -0.2855  0.1272
30847SOL    HW193119   4.395   3.703   7.021  0.2122  0.1397  2.4596
30847SOL    HW293120   4.285   3.599   7.023  0.2367 -0.2877 -2.9917
30848SOL     OW93121   0.872   9.359   0.800 -0.3595  0.3725 -0.2432
30848SOL    HW193122   0.843   9.286   0.746 -0.7188 -0.9703  1.6779
30848SOL    HW293123   0.792   9.403   0.827 -0.1915  0.8906 -0.5519
30849SOL     OW93124   2.042   7.889   7.985 -0.3959  0.7276  0.5193
30849SOL    HW193125   2.037   7.808   8.035 -1.0938  0.8637  0.6870
30849SOL    HW293126   2.125   7.884   7.938 -0.0982  0.2455  1.0864
30850SOL     OW93127   2.613   9.743   9.564 -0.3674  0.3556  0.6218
30850SOL    HW193128   2.670   9.736   9.487  0.5414  1.0595  1.2185
30850SOL    HW293129   2.549   9.673   9.552  0.2815 -0.0935 -0.3499
30851SOL     OW93130   2.444   4.369   1.869  0.0571  0.2287  0.1176
30851SOL    HW193131   2.392   4.408   1.799  1.3894  1.7349 -0.0948
30851SOL    HW293132   2.480   4.289   1.831 -0.3607  0.3010 -0.4463
30852SOL     OW93133   2.673   9.911   7.301 -0.0379  0.2641 -0.3663
30852SOL    HW193134   2.590   9.864   7.293 -0.1213  0.1343  1.0373
30852SOL    HW293135   2.735   9.859   7.250 -0.2271 -1.1734  0.8021
30853SOL     OW93136   2.475   7.059   6.103 -0.2383  0.7890 -0.1458
30853SOL    HW193137   2.548   7.104   6.145 -0.3611  0.5851  0.2858
30853SOL    HW293138   2.408   7.052   6.171  0.0031 -0.5728 -0.0220
30854SOL     OW93139   6.745   1.119   8.887  0.2270 -0.2343  0.5996
30854SOL    HW193140   6.692   1.039   8.884  2.0626 -1.5313  0.8738
30854SOL    HW293141   6.787   1.122   8.802 -2.0156  2.1247 -0.5650
30855SOL     OW93142   4.529   9.154   4.695 -0.4100  0.2458 -0.4242
30855SOL    HW193143   4.605   9.197   4.656  0.7998 -1.6110 -0.2385
30855SOL    HW293144   4.464   9.152   4.625  0.6692 -0.4595 -1.4367
30856SOL     OW93145   0.393   9.051   7.142  0.5575  0.8768  0.6694
30856SOL    HW193146   0.473   9.104   7.147  0.6558  0.7753  0.2541
30856SOL    HW293147   0.400   9.007   7.057 -0.7240  2.1150 -0.1121
30857SOL     OW93148   5.391   5.440   0.942 -0.1469 -0.4403 -0.4975
30857SOL    HW193149   5.355   5.357   0.909  1.4088 -0.1878 -3.1496
30857SOL    HW293150   5.478   5.417   0.975 -0.3624 -0.1032  0.3353
30858SOL     OW93151   1.458   5.367   9.832  0.4020  0.0990 -0.7251
30858SOL    HW193152   1.434   5.275   9.846  1.4934  0.0206  0.8455
30858SOL    HW293153   1.545   5.363   9.793  0.7203  0.4572 -0.0667
30859SOL     OW93154   4.787   6.019   3.199  0.0867 -0.0331 -0.0046
30859SOL    HW193155   4.842   6.007   3.121 -2.7762  0.3428 -2.2812
30859SOL    HW293156   4.714   6.072   3.168 -0.8006  0.8648  3.2327
30860SOL     OW93157   4.322   2.948   2.774 -0.0340 -0.4733  0.2003
30860SOL    HW193158   4.253   2.928   2.711 -1.3894  0.0533  1.4494
30860SOL    HW293159   4.275   2.979   2.851  1.6890  2.7843  0.1123
30861SOL     OW93160   4.868   0.511   9.833 -0.1960 -0.0414  0.1668
30861SOL    HW193161   4.789   0.475   9.875 -1.4367 -0.2125 -2.1280
30861SOL    HW293162   4.836   0.551   9.752  2.0852 -0.0656 -0.8273
30862SOL     OW93163   9.228   9.703   4.771 -0.1202 -0.1850 -0.8743
30862SOL    HW193164   9.189   9.629   4.819 -0.3453  1.4683  1.6843
30862SOL    HW293165   9.321   9.681   4.765 -0.0708 -0.3949  0.4654
30863SOL     OW93166   0.770   1.817   8.530  0.7100  0.0747 -0.4657
30863SOL    HW193167   0.688   1.817   8.579 -0.9995  1.4776 -3.0226
30863SOL    HW293168   0.813   1.898   8.556 -0.9273  1.6137 -2.2015
30864SOL     OW93169   8.362   2.296   9.698 -0.3971  0.1214 -0.2363
30864SOL    HW193170   8.432   2.361   9.687 -0.8297  0.3883 -1.6605
30864SOL    HW293171   8.370   2.268   9.789  1.2449  0.5121 -0.2200
30865SOL     OW93172   1.232   9.878   6.297 -0.0140 -0.0268  0.3204
30865SOL    HW193173   1.222   9.823   6.220 -2.1072 -0.7520  1.0490
30865SOL    HW293174   1.304   9.937   6.275  0.0870 -0.8520 -1.7816
30866SOL     OW93175   9.232   3.003   7.507  0.1736  0.1134  0.1554
30866SOL    HW193176   9.290   2.971   7.576  1.6484 -1.3211 -1.6814
30866SOL    HW293177   9.168   2.933   7.495 -1.0652  1.0239  1.0629
30867SOL     OW93178   1.769   6.208   7.593  0.3971  0.1245  0.0876
30867SOL    HW193179   1.690   6.249   7.560 -0.0998 -0.1149  0.9454
30867SOL    HW293180   1.755   6.114   7.582  1.0997  0.1217 -0.9202
30868SOL     OW93181   2.181   6.767   7.972 -0.1053  0.1878  0.4227
30868SOL    HW193182   2.158   6.859   7.981 -0.4048  0.1216  0.3593
30868SOL    HW293183   2.223   6.761   7.886 -2.2970 -0.1455 -0.7201
30869SOL     OW93184   1.633   4.884   3.190  0.2352 -0.3071 -0.3864
30869SOL    HW193185   1.557   4.875   3.247 -1.1399 -0.1401 -2.0956
30869SOL    HW293186   1.658   4.976   3.198 -0.3471 -0.1317 -0.5216
30870SOL     OW93187   3.276   8.783   3.749 -0.4961 -0.0060 -0.0835
30870SOL    HW193188   3.334   8.722   3.702 -0.7280 -0.6974  0.5086
30870SOL    HW293189   3.289   8.867   3.704 -0.5545 -0.5921 -1.2509
30871SOL     OW93190   1.059   6.430   2.035 -0.2882  0.1498  0.3669
30871SOL    HW193191   1.002   6.415   1.960  2.3812 -1.5194 -1.4476
30871SOL    HW293192   1.110   6.508   2.011  0.4856 -0.3117  0.5015
30872SOL     OW93193   2.405   2.885   8.898 -0.0010 -0.3940  0.6412
30872SOL    HW193194   2.397   2.904   8.992 -2.0956 -0.8274  0.6018
30872SOL    HW293195   2.361   2.800   8.888 -0.4617 -0.0057 -0.8307
30873SOL     OW93196   6.068   4.878   1.701  0.1573 -0.3406  0.2675
30873SOL    HW193197   6.016   4.812   1.654 -0.9335  1.5252 -1.2571
30873SOL    HW293198   6.091   4.835   1.784 -1.9595 -2.0286  0.0718
30874SOL     OW93199   9.374   7.030   8.372 -0.2973 -0.4453 -0.0159
30874SOL    HW193200   9.367   6.977   8.292 -1.4796  0.9680 -0.9046
30874SOL    HW293201   9.465   7.020   8.400  0.2429 -0.7077 -1.7430
30875SOL     OW93202   8.158   5.155   3.883  0.5625 -0.1614 -0.0036
30875SOL    HW193203   8.189   5.144   3.793  2.1296  1.5921  0.2488
30875SOL    HW293204   8.095   5.228   3.877 -0.0360 -0.6476  0.2128
30876SOL     OW93205   4.462   8.872   0.581 -0.5316 -0.2789 -0.2195
30876SOL    HW193206   4.476   8.887   0.487 -0.0218  0.3865 -0.0459
30876SOL    HW293207   4.545   8.897   0.622 -1.2852  1.0577  0.5642
30877SOL     OW93208   1.331   2.819   6.126 -1.0443  0.3118 -0.6012
30877SOL    HW193209   1.307   2.772   6.046 -0.8338 -1.6371  0.4009
30877SOL    HW293210   1.395   2.762   6.169  0.5205  2.3473 -0.0847
30878SOL     OW93211   2.868   6.128   7.960 -0.1219  0.0031  0.2221
30878SOL    HW193212   2.830   6.071   7.893 -1.6869 -0.0152  1.0698
30878SOL    HW293213   2.795   6.147   8.019  0.2514  2.9910 -0.0928
30879SOL     OW93214   7.515   4.909   7.229  0.1998 -0.7554  0.0938
30879SOL    HW193215   7.594   4.961   7.242 -1.7613  2.6889 -0.4015
30879SOL    HW293216   7.534   4.856   7.152  1.3408  1.7752 -1.5301
30880SOL     OW93217   7.122   9.186   4.798  0.1715  0.2950 -0.0423
30880SOL    HW193218   7.139   9.094   4.776  0.1472 -0.4592  2.7197
30880SOL    HW293219   7.206   9.218   4.832 -0.3131  0.7093  0.7774
30881SOL     OW93220   6.112   5.854   9.046  0.0396  0.1447 -0.6284
30881SOL    HW193221   6.017   5.854   9.037 -0.0236  0.5589  0.0118
30881SOL    HW293222   6.138   5.764   9.025 -0.6554 -0.4228  0.7750
30882SOL     OW93223   7.229   3.434   2.384  0.1876 -0.1862  0.1439
30882SOL    HW193224   7.234   3.527   2.406  4.1933  0.0856 -1.1262
30882SOL    HW293225   7.155   3.428   2.325  0.3278  2.4185 -0.4413
30883SOL     OW93226   5.288   8.325   9.958  0.3346  0.0503  0.4855
30883SOL    HW193227   5.218   8.364  10.012 -0.2385  0.0547 -0.2491
30883SOL    HW293228   5.253   8.241   9.931  0.9742 -0.3353  0.8248
30884SOL     OW93229   7.598   1.443   9.741  0.4956 -0.2927  0.4606
30884SOL    HW193230   7.577   1.391   9.663  0.6311  0.0754  0.1798
30884SOL    HW293231   7.604   1.378   9.811 -2.0547 -0.4187  0.6754
30885SOL     OW93232   2.810   8.775   7.985  0.1429 -0.2338 -0.0566
30885SOL    HW193233   2.845   8.817   8.064  0.7775 -1.0467  0.1028
30885SOL    HW293234   2.763   8.698   8.018 -0.2209 -0.1689 -0.4180
30886SOL     OW93235   5.473   8.798   1.943 -0.0464  0.2647  0.6184
30886SOL    HW193236   5.379   8.796   1.959 -0.4976  0.8098 -1.5703
30886SOL    HW293237   5.481   8.833   1.854  2.1816 -0.5929  0.4168
30887SOL     OW93238   6.433   2.232   8.372 -0.1630  0.7676 -0.3278
30887SOL    HW193239   6.472   2.149   8.399 -0.0232  0.6075 -0.9870
30887SOL    HW293240   6.365   2.207   8.309  1.6737  1.2219 -2.6693
30888SOL     OW93241   9.480   3.630   1.763 -1.0795  0.1757 -0.3770
30888SOL    HW193242   9.471   3.711   1.712 -0.9378  0.7758  0.5368
30888SOL    HW293243   9.423   3.643   1.838 -0.5982 -0.3292  0.0751
30889SOL     OW93244   9.606   0.055   3.397 -0.2003 -0.6361  0.8125
30889SOL    HW193245   9.607   0.041   3.492  0.3266  0.0355  0.9133
30889SOL    HW293246   9.560  -0.022   3.362  1.7474 -2.1537  1.3994
30890SOL     OW93247   8.499   5.397   5.831  0.4380 -0.0606 -0.1812
30890SOL    HW193248   8.415   5.370   5.867  1.1844 -0.6882  1.1701
30890SOL    HW293249   8.498   5.366   5.741 -0.7285 -0.1483 -0.1501
30891SOL     OW93250   7.169   5.844   3.360 -0.2586  0.0282  0.1761
30891SOL    HW193251   7.155   5.887   3.276 -1.1790 -2.8455 -1.3058
30891SOL    HW293252   7.237   5.779   3.342 -0.6099 -0.7711  1.6054
30892SOL     OW93253   9.509   9.717   4.799  0.3815  0.1437 -0.3017
30892SOL    HW193254   9.505   9.667   4.718  1.6605  0.1449 -0.3775
30892SOL    HW293255   9.507   9.808   4.771 -0.7939  0.1645 -0.2220
30893SOL     OW93256   8.332   3.630   0.654  0.0134 -0.0175 -0.1188
30893SOL    HW193257   8.420   3.666   0.651  0.8493 -1.9422  0.0210
30893SOL    HW293258   8.323   3.580   0.573  0.6428 -3.2128  1.6507
30894SOL     OW93259   6.881   3.543   5.623  0.2970 -0.0952 -0.4249
30894SOL    HW193260   6.831   3.482   5.677  0.4435  1.2824  1.3870
30894SOL    HW293261   6.901   3.616   5.682  1.6934  0.8646 -1.9878
30895SOL     OW93262   8.212   3.789   1.577  0.6548  0.4318  0.0357
30895SOL    HW193263   8.223   3.765   1.485 -1.7485  1.7943 -0.6682
30895SOL    HW293264   8.135   3.740   1.605  0.7096  0.8954  1.0106
30896SOL     OW93265   9.842   1.208   5.649 -0.0391  0.0320  0.0055
30896SOL    HW193266   9.813   1.263   5.576  0.2340 -0.5376 -0.5472
30896SOL    HW293267   9.937   1.217   5.649  0.1174 -1.3159 -0.8363
30897SOL     OW93268   5.446   1.483   9.784 -0.1055 -0.4292  0.6664
30897SOL    HW193269   5.516   1.545   9.760  1.1021 -1.5621  1.1449
30897SOL    HW293270   5.482   1.433   9.857 -0.6670 -2.3479 -0.3191
30898SOL     OW93271   1.268   5.815   6.505 -0.1178  0.2763  0.1396
30898SOL    HW193272   1.200   5.879   6.526  0.7528  0.3961  3.0967
30898SOL    HW293273   1.243   5.737   6.555  1.0466 -0.2214 -0.0231
30899SOL     OW93274   8.428   7.749   4.209  0.1538  0.1389 -0.0488
30899SOL    HW193275   8.419   7.665   4.253  0.6586  0.8937  1.5630
30899SOL    HW293276   8.489   7.732   4.137 -0.9113 -1.1825 -0.6730
30900SOL     OW93277   1.606   0.262   6.526  0.6976 -0.6494 -0.2323
30900SOL    HW193278   1.527   0.317   6.529  0.8633 -0.3406 -1.2196
30900SOL    HW293279   1.597   0.203   6.601 -0.1860 -0.2257  0.0067
30901SOL     OW93280   8.383   5.208   0.396 -0.4742 -0.3779  0.1449
30901SOL    HW193281   8.447   5.274   0.370 -0.1561 -0.2549  1.1900
30901SOL    HW293282   8.378   5.149   0.321 -0.1070  0.3353 -0.4557
30902SOL     OW93283   2.171   9.400   4.224  0.3343  0.2308  0.3820
30902SOL    HW193284   2.248   9.445   4.188  0.6032 -0.4897  0.0307
30902SOL    HW293285   2.158   9.325   4.166 -1.0976  0.7523 -0.0064
30903SOL     OW93286   2.459   7.019   1.310  0.2929 -0.0283  0.5059
30903SOL    HW193287   2.455   7.047   1.401 -1.5893  1.5855  0.0130
30903SOL    HW293288   2.542   7.053   1.277  0.3857  0.5172  1.2863
30904SOL     OW93289   8.017   8.802   0.496  0.3241 -0.3439  0.2500
30904SOL    HW193290   7.970   8.807   0.413  0.4362  2.1686  0.2543
30904SOL    HW293291   8.106   8.775   0.472  1.0147  2.5206 -0.8516
30905SOL     OW93292   4.121   5.494   7.028  0.5156 -0.7568  0.6833
30905SOL    HW193293   4.064   5.432   6.982  2.3205 -1.7974 -0.3112
30905SOL    HW293294   4.100   5.482   7.121  0.1153 -2.1495  0.4357
30906SOL     OW93295   2.301   4.192   3.409 -0.0691 -0.2522 -0.3089
30906SOL    HW193296   2.391   4.180   3.438  0.2337 -1.2674 -1.6053
30906SOL    HW293297   2.261   4.106   3.419 -1.0886  0.3135  0.7942
30907SOL     OW93298   6.553   5.372   6.896  0.3123 -0.2908 -0.0531
30907SOL    HW193299   6.544   5.299   6.957 -1.9307 -0.2302 -0.2178
30907SOL    HW293300   6.468   5.377   6.852  1.2993  0.7687 -1.9454
30908SOL     OW93301   6.948   4.189   3.581 -0.4408 -0.2756  0.2114
30908SOL    HW193302   6.980   4.261   3.636  0.1549  0.0518 -0.5338
30908SOL    HW293303   6.915   4.233   3.502 -0.7082 -0.7776  0.0389
30909SOL     OW93304   9.717   8.396   1.408  0.2369  0.2616  0.0224
30909SOL    HW193305   9.628   8.419   1.435 -0.2877 -0.8307 -0.7032
30909SOL    HW293306   9.707   8.362   1.320  1.4504  0.5289 -0.2310
30910SOL     OW93307   7.993   3.992   7.098  1.0445  0.1986  0.1811
30910SOL    HW193308   7.913   4.014   7.147  0.3250 -0.7014 -0.5387
30910SOL    HW293309   8.063   3.998   7.163  0.8925  3.9482  0.2024
30911SOL     OW93310   6.650   7.519   1.348  0.3017  0.0248 -0.4657
30911SOL    HW193311   6.693   7.563   1.422 -0.2083  0.2548 -0.3073
30911SOL    HW293312   6.722   7.502   1.286  0.4376  1.5222 -0.7544
30912SOL     OW93313   7.038   2.380   8.143  0.6374 -0.1027  0.3880
30912SOL    HW193314   7.084   2.463   8.154 -0.1704  0.1023  3.0788
30912SOL    HW293315   6.946   2.405   8.134  0.6695 -0.6321 -1.8883
30913SOL     OW93316   8.969   4.375   5.399  0.2408 -0.6700  0.3511
30913SOL    HW193317   8.964   4.279   5.395  0.3844 -0.6591 -0.1976
30913SOL    HW293318   8.987   4.401   5.309 -0.7406 -0.0704  0.3200
30914SOL     OW93319   8.797   3.329   6.107  0.2368 -0.4601 -0.0451
30914SOL    HW193320   8.803   3.315   6.202  1.9305  0.0226 -0.0571
30914SOL    HW293321   8.727   3.394   6.097  1.0465  0.6166  1.0139
30915SOL     OW93322   5.123   5.858   9.055 -0.3059  0.2367 -0.0395
30915SOL    HW193323   5.080   5.775   9.076 -0.3656 -0.3043 -2.0659
30915SOL    HW293324   5.050   5.920   9.043 -0.3825  0.0399 -0.6202
30916SOL     OW93325   3.236   7.123   1.776 -0.2690 -0.1705 -0.3263
30916SOL    HW193326   3.299   7.074   1.723  0.8098  1.7281 -0.8978
30916SOL    HW293327   3.216   7.201   1.723 -1.5799  0.2371  0.7254
30917SOL     OW93328   1.861   6.430   3.001 -0.9036  0.2557  0.1117
30917SOL    HW193329   1.889   6.460   2.915 -0.5337  2.6571  1.0138
30917SOL    HW293330   1.768   6.410   2.990 -0.8373  0.4291 -0.8686
30918SOL     OW93331   2.436   0.169   0.675  0.3135 -0.5415  0.0621
30918SOL    HW193332   2.343   0.195   0.673  0.3527 -0.1598  1.8339
30918SOL    HW293333   2.471   0.199   0.591 -1.2385 -0.9985 -0.7919
30919SOL     OW93334   8.485   0.296   6.060  0.0442  0.4191 -0.2524
30919SOL    HW193335   8.456   0.205   6.050 -0.4718  0.3436  1.6056
30919SOL    HW293336   8.562   0.302   6.004 -0.5012 -0.8662 -1.2026
30920SOL     OW93337   1.884   4.713   6.408 -0.4161  0.7687  0.9093
30920SOL    HW193338   1.914   4.759   6.330 -0.0806  1.1295  1.2461
30920SOL    HW293339   1.935   4.751   6.479  0.5743 -0.8012  1.0863
30921SOL     OW93340   0.688   3.098   1.846  0.1380  0.3068 -0.0397
30921SOL    HW193341   0.649   3.019   1.809  0.5416 -0.3111  0.8308
30921SOL    HW293342   0.615   3.142   1.890 -0.2022  0.7135 -0.9739
30922SOL     OW93343   7.245   4.885   7.630 -0.1641  0.1840 -0.6533
30922SOL    HW193344   7.158   4.906   7.596 -0.7123  2.0814  1.5928
30922SOL    HW293345   7.300   4.875   7.553 -1.8822  1.3954 -2.1092
30923SOL     OW93346   1.298   7.991   7.194 -0.2879  0.0706  0.4579
30923SOL    HW193347   1.383   7.951   7.212 -0.0219  0.3868 -0.0916
30923SOL    HW293348   1.252   7.986   7.278  0.3719  0.1440  0.8353
30924SOL     OW93349   3.727   9.599   4.513  0.0915 -0.2969 -0.1822
30924SOL    HW193350   3.717   9.639   4.427  0.3866 -0.2102 -0.1775
30924SOL    HW293351   3.679   9.516   4.507 -1.3327  0.4693  0.1049
30925SOL     OW93352   4.777   4.300   4.733 -0.0761 -0.0316 -0.5548
30925SOL    HW193353   4.707   4.313   4.669 -0.7333 -0.5485  0.0446
30925SOL    HW293354   4.736   4.254   4.805  0.7896  0.0375  0.0051
30926SOL     OW93355   1.744   5.948   2.104  0.0016 -0.4335  0.0572
30926SOL    HW193356   1.761   5.867   2.152 -1.3264 -1.0297 -0.4331
30926SOL    HW293357   1.676   5.992   2.155  0.4658  0.2223  0.1300
30927SOL     OW93358   3.841   7.180   8.595 -0.0540 -0.1433  0.6029
30927SOL    HW193359   3.849   7.268   8.631  0.4103  1.2648 -2.5580
30927SOL    HW293360   3.924   7.137   8.616  0.3913  0.7689  0.7573
30928SOL     OW93361   6.082   2.528   4.917 -0.0832 -0.0752  0.2994
30928SOL    HW193362   5.988   2.543   4.906 -0.2224 -0.1353  1.3484
30928SOL    HW293363   6.121   2.563   4.836 -1.1983 -2.3371 -1.3281
30929SOL     OW93364   9.708   3.539   4.384 -0.3022 -0.0856 -0.4373
30929SOL    HW193365   9.765   3.478   4.338 -1.3436 -0.2843 -1.5053
30929SOL    HW293366   9.663   3.485   4.450  0.4952  0.0153  0.2090
30930SOL     OW93367   9.626   1.301   1.708 -0.4826 -0.1072 -0.3702
30930SOL    HW193368   9.628   1.357   1.631  0.7310 -0.6205 -0.7326
30930SOL    HW293369   9.705   1.247   1.701 -1.5204 -1.7380  0.0654
30931SOL     OW93370   3.549   3.300   5.068  0.4146 -0.0011 -0.1054
30931SOL    HW193371   3.579   3.330   4.982 -2.1926  1.4023 -0.6215
30931SOL    HW293372   3.610   3.341   5.130  0.5822  1.4099 -1.1535
30932SOL     OW93373   9.570   8.092   0.895 -0.3196 -0.0392 -0.9426
30932SOL    HW193374   9.654   8.132   0.875  1.3149 -2.6088  0.1683
30932SOL    HW293375   9.556   8.028   0.825 -2.0982  1.2581 -1.8609
30933SOL     OW93376   3.581   9.400   7.815  0.2063 -0.2263 -0.2564
30933SOL    HW193377   3.561   9.349   7.737  0.6780 -1.5411  0.4495
30933SOL    HW293378   3.650   9.351   7.859  0.0236  0.5305  0.9360
30934SOL     OW93379   8.164   1.788   2.567 -0.1107  0.8606  0.4182
30934SOL    HW193380   8.132   1.869   2.528 -1.0534 -0.7363 -2.4180
30934SOL    HW293381   8.245   1.769   2.521  0.5546  0.5764  1.6543
30935SOL     OW93382   1.232   5.194   6.008 -0.1573  0.1914  0.0679
30935SOL    HW193383   1.190   5.278   5.986 -0.0194  0.3335  0.3399
30935SOL    HW293384   1.226   5.143   5.927  0.4082  0.7325 -0.3298
30936SOL     OW93385   4.331   6.754   4.594  0.0431  0.1484 -0.1085
30936SOL    HW193386   4.297   6.840   4.569  0.3490 -0.5998 -3.5827
30936SOL    HW293387   4.268   6.691   4.558  0.3222 -1.1527  1.5227
30937SOL     OW93388   3.860   1.386   2.116  0.0887 -0.4422 -0.2942
30937SOL    HW193389   3.803   1.332   2.171  1.7858 -0.1295  1.8736
30937SOL    HW293390   3.869   1.334   2.035 -1.3467 -1.5835  0.2189
30938SOL     OW93391   7.888   6.082   5.580 -0.0602 -0.5839  0.4058
30938SOL    HW193392   7.894   6.103   5.673 -0.4738 -1.8861  0.7554
30938SOL    HW293393   7.797   6.101   5.557  0.0568 -0.2085  0.2508
30939SOL     OW93394   2.943   9.097   2.617 -0.0588 -0.6804 -0.1711
30939SOL    HW193395   2.976   9.182   2.646  3.9289 -2.6012  1.7069
30939SOL    HW293396   2.968   9.092   2.525  0.8190 -0.2703  0.0293
30940SOL     OW93397   1.456   7.811   2.133  0.0903  0.3822 -0.0058
30940SOL    HW193398   1.387   7.828   2.196 -1.0276  0.5757 -1.2415
30940SOL    HW293399   1.492   7.726   2.159 -1.2334 -0.1655  0.1286
30941SOL     OW93400   1.856   3.559   2.415  0.1297 -0.1134  0.5971
30941SOL    HW193401   1.891   3.647   2.400 -1.5764  0.7198  1.2533
30941SOL    HW293402   1.931   3.501   2.403  1.2062  1.3888 -0.2555
30942SOL     OW93403   7.169   9.894   1.556  0.5000 -0.2398 -0.0776
30942SOL    HW193404   7.151   9.875   1.647 -0.4475 -0.1176 -0.2294
30942SOL    HW293405   7.248   9.844   1.535 -0.8028 -2.4492  0.0600
30943SOL     OW93406   1.663   3.487   2.835  0.4677  0.5288  0.1321
30943SOL    HW193407   1.657   3.398   2.868 -1.7079  0.4140 -0.3880
30943SOL    HW293408   1.627   3.542   2.905  0.9524  0.8988  0.0985
30944SOL     OW93409   4.649   0.391   4.728 -0.1498  0.0448  0.2891
30944SOL    HW193410   4.744   0.389   4.724 -0.1580 -1.5022 -3.4551
30944SOL    HW293411   4.623   0.300   4.742 -0.9974 -0.0606 -1.6198
30945SOL     OW93412   5.991   1.168   4.930  0.3343 -0.0671  0.1475
30945SOL    HW193413   5.967   1.152   4.839  0.3708  0.7651 -0.0126
30945SOL    HW293414   6.066   1.110   4.945  0.1665 -0.3964 -0.2705
30946SOL     OW93415   8.167   6.054   4.092 -0.3470 -0.4634  0.4138
30946SOL    HW193416   8.127   6.034   4.176 -0.0650 -4.4234 -0.2065
30946SOL    HW293417   8.260   6.035   4.105 -0.3255 -1.3005 -0.7738
30947SOL     OW93418   6.613   1.708   7.866  0.0476 -0.2275 -0.3520
30947SOL    HW193419   6.661   1.747   7.793  1.8516  1.5655  1.6528
30947SOL    HW293420   6.577   1.782   7.915  0.3513 -1.2218  1.4945
30948SOL     OW93421   7.963   5.840   1.954 -0.0260 -0.7211  0.1123
30948SOL    HW193422   8.016   5.918   1.941  1.6120 -1.4554  1.8863
30948SOL    HW293423   7.880   5.873   1.987  0.5604  0.2904  0.6271
30949SOL     OW93424   1.964   8.165   6.898 -0.6512 -0.1806 -0.4008
30949SOL    HW193425   1.954   8.166   6.994  0.2405 -1.9902 -0.2576
30949SOL    HW293426   2.009   8.248   6.879  0.6006 -0.5078  0.9405
30950SOL     OW93427   2.772   7.987   2.192  0.1479 -0.0825  0.0390
30950SOL    HW193428   2.740   8.003   2.103 -0.9849 -0.6158  0.3222
30950SOL    HW293429   2.778   8.074   2.231  1.3761  0.2171 -0.7782
30951SOL     OW93430   1.278   8.309   6.606 -0.3401 -0.4561  0.0519
30951SOL    HW193431   1.270   8.389   6.553 -1.8280  0.0719  1.0100
30951SOL    HW293432   1.361   8.319   6.651  0.0813 -0.0448 -0.7871
30952SOL     OW93433   8.078   3.468   3.457  0.4479 -0.4845  0.3314
30952SOL    HW193434   8.064   3.390   3.402 -1.2746  0.2729 -0.3941
30952SOL    HW293435   8.168   3.461   3.487  0.2062 -2.9884  0.6471
30953SOL     OW93436   8.773   3.696   1.579  0.4481 -0.7603 -0.3217
30953SOL    HW193437   8.679   3.699   1.564  0.5222 -2.1436 -1.3029
30953SOL    HW293438   8.808   3.768   1.527 -0.1132  0.2933  0.7147
30954SOL     OW93439   5.419   6.430   5.012 -0.2693  0.1569 -0.1974
30954SOL    HW193440   5.340   6.376   5.009 -0.7800  0.8600  0.0680
30954SOL    HW293441   5.437   6.450   4.920 -0.2224 -0.2580 -0.2794
30955SOL     OW93442   3.759   8.055   5.247  0.1695 -0.0515 -0.6529
30955SOL    HW193443   3.757   8.145   5.216 -0.3215 -0.2208 -1.1325
30955SOL    HW293444   3.678   8.046   5.299  1.1631  0.3418  1.0362
30956SOL     OW93445   1.292   0.626   2.838 -0.1577  0.0907 -0.3563
30956SOL    HW193446   1.321   0.665   2.920 -1.2945 -2.8749  1.6146
30956SOL    HW293447   1.230   0.689   2.802 -1.4158  0.5368  2.3130
30957SOL     OW93448   7.384   2.290   1.580 -0.0939 -0.6496  0.1945
30957SOL    HW193449   7.474   2.300   1.548 -0.1063 -0.4104  0.2323
30957SOL    HW293450   7.392   2.234   1.657 -0.0386 -1.0597 -0.1049
30958SOL     OW93451   9.867   3.038   8.009  0.4191 -0.2918  0.0368
30958SOL    HW193452   9.778   3.011   8.032  0.5223  0.4475  1.3857
30958SOL    HW293453   9.876   3.126   8.046  1.5103 -0.1257 -0.6003
30959SOL     OW93454   5.937   8.257   5.233 -0.1394 -0.6225 -0.1964
30959SOL    HW193455   5.977   8.174   5.208 -1.1949 -0.9728 -0.8035
30959SOL    HW293456   5.945   8.312   5.155  0.1922 -0.2932  0.0670
30960SOL     OW93457   6.759   2.949   8.775  0.8511 -0.1781  0.0923
30960SOL    HW193458   6.716   3.033   8.762  0.1219 -0.2602  1.8250
30960SOL    HW293459   6.737   2.899   8.696  0.7043  0.9900 -0.6282
30961SOL     OW93460   1.418   8.724   1.805  0.2519  0.1171  0.2023
30961SOL    HW193461   1.456   8.655   1.859 -0.4534 -1.2983 -1.0098
30961SOL    HW293462   1.327   8.730   1.835  0.0070 -0.2934 -0.4378
30962SOL     OW93463   0.272   4.522   3.449  0.6958  0.1876  0.8817
30962SOL    HW193464   0.327   4.576   3.392 -1.3606  0.0845 -1.4003
30962SOL    HW293465   0.208   4.584   3.485 -0.3414 -0.3376 -0.0094
30963SOL     OW93466   7.315   9.370   6.309 -0.0775 -0.0159 -0.0010
30963SOL    HW193467   7.259   9.292   6.316 -1.5238  1.1147  2.6302
30963SOL    HW293468   7.404   9.335   6.302 -0.6080 -1.9677  1.7915
30964SOL     OW93469   5.137   6.994   2.452 -0.2913  0.0996  0.3576
30964SOL    HW193470   5.046   7.022   2.456 -0.6208 -0.9906  1.4249
30964SOL    HW293471   5.141   6.935   2.377 -0.4953  0.0906  0.3536
30965SOL     OW93472   2.580   3.056   4.525 -0.3277  0.2744 -0.1131
30965SOL    HW193473   2.501   3.035   4.476  0.0801 -0.3034 -0.5301
30965SOL    HW293474   2.566   3.015   4.611  0.0649 -0.9651 -0.6135
30966SOL     OW93475   2.002   9.366   5.644  0.1189  0.4333 -0.5817
30966SOL    HW193476   1.998   9.305   5.571 -0.1781 -0.2727  0.0190
30966SOL    HW293477   2.012   9.452   5.602 -1.1496  0.1629 -1.5014
30967SOL     OW93478   1.570   6.508   2.658 -0.0421  0.0028 -0.4349
30967SOL    HW193479   1.541   6.420   2.681 -0.2187  0.0119 -0.6304
30967SOL    HW293480   1.495   6.564   2.677 -0.4244 -0.0686 -1.6453
30968SOL     OW93481   4.264   2.732   6.365  0.1762 -0.1247 -0.0896
30968SOL    HW193482   4.178   2.733   6.325 -1.2043  0.0743  2.6722
30968SOL    HW293483   4.307   2.812   6.331 -0.4975 -0.4536 -1.8144
30969SOL     OW93484   3.093   5.238   6.022  0.2422 -0.0514 -0.2801
30969SOL    HW193485   3.041   5.175   5.972  0.3522 -0.2401 -0.1602
30969SOL    HW293486   3.179   5.238   5.980  0.1794  0.1737 -0.4073
30970SOL     OW93487   4.766   6.596   7.646 -0.1155  0.0399  0.0108
30970SOL    HW193488   4.802   6.594   7.735 -0.5065 -2.1255  0.1774
30970SOL    HW293489   4.835   6.559   7.591  0.1622  1.4567 -0.6517
30971SOL     OW93490   2.224   3.197   5.208 -0.3680  0.4338 -0.4750
30971SOL    HW193491   2.257   3.233   5.126  2.0392  0.5679  0.4695
30971SOL    HW293492   2.262   3.253   5.276 -1.0533 -0.6021  0.8147
30972SOL     OW93493   2.885   0.199   3.880  0.2287  0.5455 -0.3628
30972SOL    HW193494   2.902   0.194   3.974 -2.8883  2.5877  0.4775
30972SOL    HW293495   2.867   0.109   3.854 -1.7272  0.2405  1.7348
30973SOL     OW93496   4.559   6.335   2.096  0.1283 -0.7232 -0.3221
30973SOL    HW193497   4.486   6.364   2.151  0.8293 -0.4115  0.4666
30973SOL    HW293498   4.580   6.411   2.042 -0.5555 -1.0260 -1.0181
30974SOL     OW93499   7.728   1.245   8.210 -0.1537 -0.3432  0.7991
30974SOL    HW193500   7.779   1.184   8.263 -0.3732 -0.1254  1.2675
30974SOL    HW293501   7.653   1.268   8.266 -0.2622  0.0691  0.4864
30975SOL     OW93502   2.984   1.380   8.437  0.3400 -0.3167 -0.0004
30975SOL    HW193503   2.949   1.455   8.388  1.7772  1.0340  0.9302
30975SOL    HW293504   3.067   1.360   8.394 -1.6154 -3.9189 -2.6107
30976SOL     OW93505   4.981   2.259   9.510  0.0724 -0.6968 -0.6226
30976SOL    HW193506   5.026   2.334   9.471  2.7458 -1.1308  1.3849
30976SOL    HW293507   4.953   2.207   9.434 -0.0334  1.2692 -2.0159
30977SOL     OW93508   8.200   8.945   4.892  0.2000  0.0885  0.3337
30977SOL    HW193509   8.272   8.915   4.947 -0.6714 -1.0966  0.8765
30977SOL    HW293510   8.162   8.865   4.856  0.0322  0.7804 -1.0828
30978SOL     OW93511   8.481   7.876   2.973 -0.5207  0.2877 -0.4549
30978SOL    HW193512   8.518   7.791   2.950 -0.9098 -0.3202  1.0435
30978SOL    HW293513   8.540   7.912   3.039  1.2404  2.5297 -3.0055
30979SOL     OW93514   0.270   2.347   0.192  0.3327 -0.1680  0.0292
30979SOL    HW193515   0.318   2.283   0.140 -0.4594 -0.9607  0.2474
30979SOL    HW293516   0.333   2.381   0.255  1.1020  0.2356 -0.9308
30980SOL     OW93517   0.491   6.334   4.835 -0.4513 -0.1081 -0.1930
30980SOL    HW193518   0.407   6.381   4.832 -0.8510 -0.7303  0.7622
30980SOL    HW293519   0.546   6.387   4.893 -1.1845 -1.1966  1.5876
30981SOL     OW93520   9.605   8.273   1.862 -0.3027  0.3115  0.2067
30981SOL    HW193521   9.645   8.346   1.815  1.5422 -0.9669 -0.3263
30981SOL    HW293522   9.636   8.195   1.816 -3.8014 -0.8470 -0.4989
30982SOL     OW93523   0.065   0.300   2.508 -0.0501 -0.3729  0.3191
30982SOL    HW193524   0.127   0.251   2.562 -0.2712 -0.2593  0.6812
30982SOL    HW293525   0.057   0.384   2.552  0.9358  0.2924 -0.7392
30983SOL     OW93526   9.052   6.522   2.596  0.5625 -0.4198 -0.0051
30983SOL    HW193527   8.963   6.546   2.570  0.0030 -1.9629  0.4085
30983SOL    HW293528   9.079   6.593   2.656  0.2523  0.8937 -1.3589
30984SOL     OW93529   6.047   8.137   8.273  0.3573  0.3969 -0.2909
30984SOL    HW193530   6.045   8.136   8.369  0.2624 -0.9628 -0.2890
30984SOL    HW293531   5.996   8.214   8.249  1.7302  1.6985  0.7597
30985SOL     OW93532   3.642   4.596   5.236 -0.1675 -0.3106 -0.2973
30985SOL    HW193533   3.625   4.660   5.306  0.2246 -0.9495  0.4049
30985SOL    HW293534   3.686   4.646   5.168  1.0493 -0.0154  0.6683
30986SOL     OW93535   0.032   6.279   7.179 -0.2942  0.1667 -0.0738
30986SOL    HW193536   0.027   6.252   7.087 -1.4211  2.4836 -0.7877
30986SOL    HW293537  -0.050   6.248   7.218 -0.2691  0.0481 -0.1147
30987SOL     OW93538   3.411   5.035   9.407  0.3215  0.5574  0.1703
30987SOL    HW193539   3.421   4.943   9.431  1.7866  0.1089 -1.8586
30987SOL    HW293540   3.488   5.078   9.444  1.8415  0.1226 -2.3013
30988SOL     OW93541   7.694   1.842   0.586  0.0390  0.2965 -0.0433
30988SOL    HW193542   7.740   1.882   0.512  0.6817 -0.6913 -0.1942
30988SOL    HW293543   7.688   1.749   0.564  1.1261 -0.1967  1.5722
30989SOL     OW93544   1.656   2.801   5.023 -0.7514  0.2620 -0.2900
30989SOL    HW193545   1.684   2.871   4.964 -0.8341  1.0647  0.5975
30989SOL    HW293546   1.587   2.841   5.077 -1.2262 -0.6882 -0.1819
30990SOL     OW93547   6.544   5.041   1.021 -0.3043 -0.0866 -0.4046
30990SOL    HW193548   6.503   5.017   1.104  1.8446  0.9570  1.0257
30990SOL    HW293549   6.557   4.957   0.976  0.1919 -0.8681  1.1364
30991SOL     OW93550   8.242   8.633   2.709 -0.0497 -0.0298 -0.3598
30991SOL    HW193551   8.213   8.721   2.686 -2.2162 -0.6109 -0.0634
30991SOL    HW293552   8.194   8.575   2.649  2.2826 -1.0068 -1.4238
30992SOL     OW93553   8.158   9.519   0.431  0.3929 -0.1438  0.1019
30992SOL    HW193554   8.248   9.498   0.454  0.7231  1.7480  0.7188
30992SOL    HW293555   8.161   9.544   0.339  0.8076  1.3193  0.4818
30993SOL     OW93556   6.938   1.913   7.486 -0.9086 -0.1008 -0.6469
30993SOL    HW193557   6.909   1.971   7.557 -2.0715  0.1878 -1.3145
30993SOL    HW293558   7.020   1.951   7.456 -0.0429 -0.6082  0.9581
30994SOL     OW93559   9.953   0.168   6.085  0.4712 -0.1094  0.0348
30994SOL    HW193560   9.956   0.157   5.990 -1.6342  1.3297 -0.2739
30994SOL    HW293561   9.900   0.247   6.098 -0.2808 -0.9228  2.4207
30995SOL     OW93562   4.453   3.394   8.320 -0.4620 -0.2600  0.1635
30995SOL    HW193563   4.394   3.331   8.362 -0.8870 -1.0031 -1.4445
30995SOL    HW293564   4.533   3.345   8.304 -0.5488 -0.2050 -0.4785
30996SOL     OW93565   6.848   3.015   2.733 -0.0758 -0.3115  0.2180
30996SOL    HW193566   6.759   2.995   2.763  0.1403 -1.6309 -0.0008
30996SOL    HW293567   6.835   3.060   2.649 -0.5738  0.9253  0.9149
30997SOL     OW93568   9.846   1.682   3.891 -0.2652  0.2535 -0.1588
30997SOL    HW193569   9.903   1.624   3.841 -1.2741 -0.7341 -0.2140
30997SOL    HW293570   9.850   1.649   3.981 -0.0074  0.7801  0.0274
30998SOL     OW93571   5.742   8.165   2.429  0.4277  0.2469 -0.1807
30998SOL    HW193572   5.761   8.122   2.345  0.9016  2.8180 -1.4657
30998SOL    HW293573   5.763   8.257   2.414 -1.2000  1.0847  2.2386
30999SOL     OW93574   6.343   9.124   0.729  0.7210 -0.3320 -0.3373
30999SOL    HW193575   6.434   9.101   0.711  1.4555  2.0803 -0.0766
30999SOL    HW293576   6.344   9.219   0.738 -2.3170  0.1158 -3.0006
31000SOL     OW93577   6.423   6.172   3.849  0.2607  0.5625  0.4876
31000SOL    HW193578   6.500   6.137   3.895  0.5076  0.1455 -0.2291
31000SOL    HW293579   6.354   6.171   3.916  1.0815  1.7632  1.3884
31001SOL     OW93580   2.279   0.195   5.305  1.1493 -0.3419  0.7760
31001SOL    HW193581   2.243   0.170   5.390 -0.7535  1.0026  0.4515
31001SOL    HW293582   2.239   0.280   5.287  0.7987 -0.9828 -1.8493
31002SOL     OW93583   4.623   2.394   2.232 -0.1521  0.2247  0.0384
31002SOL    HW193584   4.718   2.388   2.233 -0.1677 -0.3379  1.4906
31002SOL    HW293585   4.593   2.306   2.256 -1.0964 -0.0386 -1.9267
31003SOL     OW93586   9.366   7.448   1.949 -0.2122  0.0348  0.6234
31003SOL    HW193587   9.351   7.496   1.868 -0.2754 -2.6980 -1.1099
31003SOL    HW293588   9.456   7.470   1.974 -1.0850  3.1244  1.5381
31004SOL     OW93589   5.295   9.767   3.781  0.2196 -0.4317  0.1018
31004SOL    HW193590   5.288   9.830   3.852  0.2427 -1.6114  1.1936
31004SOL    HW293591   5.368   9.711   3.807  0.0214 -1.0738 -0.7011
31005SOL     OW93592   3.721   4.145   5.061 -0.1065  0.6530  0.0467
31005SOL    HW193593   3.779   4.102   5.124  0.0465  0.7065 -0.0577
31005SOL    HW293594   3.779   4.193   5.003 -0.3261  1.7175  0.6830
31006SOL     OW93595   0.815   6.244   2.546 -0.0078 -0.7073 -0.1461
31006SOL    HW193596   0.756   6.307   2.586  0.0704 -0.1924 -0.8251
31006SOL    HW293597   0.856   6.292   2.473  2.4422 -0.5118  1.2407
31007SOL     OW93598   6.203   9.610   0.762  0.3279  0.3998 -0.1910
31007SOL    HW193599   6.231   9.700   0.778  0.4894  0.4071 -0.5032
31007SOL    HW293600   6.114   9.605   0.798  0.4020  0.6225  0.0199
31008SOL     OW93601   5.129   5.145   4.778 -0.3574 -0.7322 -0.1413
31008SOL    HW193602   5.197   5.091   4.736 -0.2464 -1.1150  0.5183
31008SOL    HW293603   5.178   5.203   4.836 -0.6376 -1.7413  1.1635
31009SOL     OW93604   5.063   3.744   6.114  0.0607 -0.1873  0.6732
31009SOL    HW193605   5.067   3.823   6.060 -1.7235 -0.3050  0.3071
31009SOL    HW293606   5.065   3.777   6.204  0.2971  0.2100  0.5264
31010SOL     OW93607   1.239   5.126   1.849 -0.2240 -0.1093  0.5531
31010SOL    HW193608   1.331   5.101   1.859  0.2195  1.2598  0.0641
31010SOL    HW293609   1.192   5.062   1.902  0.9169 -1.3988  0.0979
31011SOL     OW93610   6.483   4.354   8.885  0.4040 -0.0028  0.2178
31011SOL    HW193611   6.512   4.376   8.796  2.5067 -1.8282  0.3779
31011SOL    HW293612   6.531   4.414   8.942  0.0860  0.2600  0.2125
31012SOL     OW93613   2.107   0.003   4.123 -0.5887 -0.0231  0.4496
31012SOL    HW193614   2.040   0.034   4.062  0.2898 -0.3067 -0.7114
31012SOL    HW293615   2.190   0.028   4.081  0.1287 -2.7836  0.0614
31013SOL     OW93616   6.422   1.896   9.391  0.1625  0.4088 -0.5565
31013SOL    HW193617   6.410   1.879   9.485  0.6442 -0.2950 -0.6185
31013SOL    HW293618   6.415   1.991   9.383 -1.5254  0.3616 -0.0462
31014SOL     OW93619   5.115   4.211   3.762  0.3656  0.9327  0.7486
31014SOL    HW193620   5.096   4.236   3.671  1.7631  1.6912  0.6437
31014SOL    HW293621   5.030   4.182   3.796 -0.1727  0.5482 -0.8115
31015SOL     OW93622   4.778   1.713   6.084  0.6989  0.3384 -0.5431
31015SOL    HW193623   4.767   1.732   5.991  0.4431  0.9259 -0.3955
31015SOL    HW293624   4.692   1.683   6.113  1.3340 -2.2250 -1.0156
31016SOL     OW93625   4.151   2.365   6.296  0.1874  0.2893  0.0404
31016SOL    HW193626   4.200   2.293   6.335  0.9508  0.5763 -0.3750
31016SOL    HW293627   4.180   2.442   6.345  1.3569  0.6985 -1.2337
31017SOL     OW93628   2.372   5.049   5.965 -0.2978  0.1462 -0.4116
31017SOL    HW193629   2.408   5.114   5.905 -0.9158 -0.1869 -1.1555
31017SOL    HW293630   2.442   4.986   5.977  0.6150  1.3632  0.9808
31018SOL     OW93631   5.642   2.312   8.493  0.0913 -0.1327  0.0336
31018SOL    HW193632   5.590   2.371   8.438 -0.4573 -0.9265 -0.3012
31018SOL    HW293633   5.707   2.274   8.433  0.0326 -0.3585  0.1119
31019SOL     OW93634   4.392   4.480   9.269  0.1404 -0.1785  0.1112
31019SOL    HW193635   4.428   4.474   9.357  0.3984 -1.5467 -0.0751
31019SOL    HW293636   4.436   4.411   9.220 -1.1018 -0.4238 -0.6947
31020SOL     OW93637   6.741   2.642   0.493  0.3229  0.1902  0.6025
31020SOL    HW193638   6.776   2.653   0.582 -0.0990 -0.6882  0.8909
31020SOL    HW293639   6.672   2.576   0.503  0.5926 -0.2728 -0.4574
31021SOL     OW93640   0.546   8.008   9.904  0.5319 -0.0243  0.3353
31021SOL    HW193641   0.549   8.075   9.972  0.2844  2.6521 -2.0848
31021SOL    HW293642   0.498   7.935   9.943  0.9448  1.1121  3.1541
31022SOL     OW93643   2.038   0.818   3.295 -0.3736  0.0162 -0.0878
31022SOL    HW193644   2.008   0.893   3.244 -4.1536 -1.8118 -0.9311
31022SOL    HW293645   2.106   0.777   3.242  0.4993  1.7714 -0.4103
31023SOL     OW93646   0.037   4.238   8.021 -0.2345  0.3995  0.0828
31023SOL    HW193647   0.031   4.276   8.109  2.7840  1.1598  0.0908
31023SOL    HW293648   0.077   4.152   8.036  0.4312  0.5894 -0.5167
31024SOL     OW93649   9.357   4.102   6.443  0.4893  0.0393 -0.4591
31024SOL    HW193650   9.303   4.073   6.370  0.5844  1.3325 -1.0709
31024SOL    HW293651   9.384   4.191   6.419  1.3013  0.1318  0.7167
31025SOL     OW93652   2.453   3.523   8.263  0.1642  0.4028 -0.7583
31025SOL    HW193653   2.535   3.547   8.305 -0.1464  1.6763 -0.8430
31025SOL    HW293654   2.429   3.599   8.210  0.0937 -0.8276 -2.5866
31026SOL     OW93655   1.912   1.174   2.898  0.3084  0.4599  0.1738
31026SOL    HW193656   1.832   1.227   2.897 -0.7561 -1.0516 -0.2085
31026SOL    HW293657   1.912   1.131   2.812 -0.3117 -2.0975  1.3465
31027SOL     OW93658   3.361   2.386   2.386  0.0268  0.2594 -0.3165
31027SOL    HW193659   3.448   2.368   2.352 -0.0230  1.4338 -1.1275
31027SOL    HW293660   3.316   2.302   2.384  0.3078  0.1262 -2.3878
31028SOL     OW93661   3.654   6.774   7.372  0.0930 -0.4415 -0.1006
31028SOL    HW193662   3.724   6.810   7.426 -0.9231 -2.7946  3.1149
31028SOL    HW293663   3.698   6.712   7.314  0.8993 -0.2086  0.2492
31029SOL     OW93664   0.322   4.557   2.953  0.7488  0.3809 -0.3619
31029SOL    HW193665   0.386   4.506   3.003  1.3058  0.7438 -0.6917
31029SOL    HW293666   0.360   4.564   2.866  1.1356  2.1155 -0.0934
31030SOL     OW93667   6.934   9.231   0.831  0.1345  0.4835 -0.0615
31030SOL    HW193668   6.887   9.311   0.805  0.2820  0.3782 -0.6665
31030SOL    HW293669   6.983   9.206   0.753 -0.2513 -0.4525 -0.0115
31031SOL     OW93670   6.966   7.198   6.045  0.0774 -0.1823  0.0265
31031SOL    HW193671   6.926   7.247   5.974  3.5608  0.4266 -1.7161
31031SOL    HW293672   6.986   7.263   6.112  1.5677  0.2339 -0.7899
31032SOL     OW93673   6.810   3.975   7.845 -0.3853  0.1620 -0.0248
31032SOL    HW193674   6.866   3.934   7.780 -1.0248  0.0858 -0.5348
31032SOL    HW293675   6.775   3.903   7.896  0.2346  0.2318  0.5105
31033SOL     OW93676   7.117   2.444   7.498  0.0641 -0.1447 -0.0608
31033SOL    HW193677   7.127   2.538   7.513  0.2167 -0.2909  0.8357
31033SOL    HW293678   7.206   2.412   7.486 -0.0000 -0.1544 -0.5200
31034SOL     OW93679   5.383   7.454   5.040  0.2716  0.0774  1.0516
31034SOL    HW193680   5.350   7.464   4.950  2.8499  0.2719  0.0539
31034SOL    HW293681   5.424   7.538   5.059  1.6544 -0.6991  1.5689
31035SOL     OW93682   4.093   7.552   6.691  0.3709  0.5399  0.4314
31035SOL    HW193683   4.130   7.474   6.648 -2.0305 -0.7559  0.5355
31035SOL    HW293684   4.165   7.586   6.744  1.8594 -0.9152 -0.5296
31036SOL     OW93685   2.795   4.861   6.809  0.2200 -0.4300 -0.1067
31036SOL    HW193686   2.726   4.802   6.840  0.0913 -0.5594 -0.6375
31036SOL    HW293687   2.788   4.859   6.714 -0.7169  1.5761 -0.1195
31037SOL     OW93688   9.233   1.725   8.425 -0.2767 -0.5668  0.1552
31037SOL    HW193689   9.156   1.766   8.385 -1.3748 -0.4234  2.2459
31037SOL    HW293690   9.306   1.782   8.402 -1.1984  0.6271  0.0821
31038SOL     OW93691   0.834   4.404   1.325 -0.3258  0.7164 -0.5367
31038SOL    HW193692   0.866   4.318   1.296 -0.9328 -0.1038  1.0941
31038SOL    HW293693   0.777   4.433   1.255 -1.1708 -0.8440 -0.5469
31039SOL     OW93694   6.927   5.306   1.440  0.2401 -0.2066  0.4898
31039SOL    HW193695   6.972   5.358   1.507  1.4787  0.6104 -0.9347
31039SOL    HW293696   6.835   5.332   1.448  0.2568 -0.5794  2.2571
31040SOL     OW93697   3.256   6.158   9.642 -0.1887 -0.2059  0.1825
31040SOL    HW193698   3.336   6.209   9.627 -0.0510 -0.8283 -1.3406
31040SOL    HW293699   3.217   6.148   9.555 -1.1478 -1.1851  0.7006
31041SOL     OW93700   3.272   6.433   6.370 -0.7871  0.3488 -0.0096
31041SOL    HW193701   3.182   6.451   6.397 -1.1377 -1.4061  0.1136
31041SOL    HW293702   3.326   6.470   6.441 -1.4988 -0.0851  0.7731
31042SOL     OW93703   2.848   5.857   4.027  1.1960 -0.3562  0.2492
31042SOL    HW193704   2.777   5.794   4.014  0.8220  0.0327  0.3557
31042SOL    HW293705   2.916   5.808   4.073  0.2470 -0.2649  1.8153
31043SOL     OW93706   5.116   2.628   6.323  0.1597 -0.3970 -0.1805
31043SOL    HW193707   5.070   2.589   6.397 -2.0589  0.6714 -0.9013
31043SOL    HW293708   5.209   2.610   6.339 -0.2841 -0.4571  2.6702
31044SOL     OW93709   0.048   6.287   5.920  0.1211  0.1104  0.8912
31044SOL    HW193710  -0.042   6.278   5.889  0.0041  0.3717  1.1410
31044SOL    HW293711   0.062   6.382   5.926  0.2702  0.0676  1.2565
31045SOL     OW93712   6.434   4.095   6.421 -0.7815 -0.1716 -0.0975
31045SOL    HW193713   6.464   4.074   6.510  0.5617 -0.4071 -0.5897
31045SOL    HW293714   6.472   4.026   6.366 -0.8472  0.4835 -0.9826
31046SOL     OW93715   7.055   0.406   6.267 -0.1591 -0.2218 -0.9388
31046SOL    HW193716   6.980   0.390   6.324 -1.7663  3.9661 -1.5699
31046SOL    HW293717   7.018   0.409   6.178  1.2220 -0.5106 -1.5611
31047SOL     OW93718   6.507   4.779   0.088 -0.0310  0.0475 -0.6619
31047SOL    HW193719   6.484   4.872   0.091  0.3318  0.1324 -0.0881
31047SOL    HW293720   6.603   4.779   0.089  0.0944 -0.2691 -3.6837
31048SOL     OW93721   0.501   7.312   9.211  0.4329 -0.2201  0.5291
31048SOL    HW193722   0.499   7.234   9.265 -0.3705  0.2240  1.1504
31048SOL    HW293723   0.507   7.385   9.273 -1.5155  0.3588  0.1067
31049SOL     OW93724   5.382   7.470   1.098 -0.0379  0.2946  0.3555
31049SOL    HW193725   5.454   7.533   1.103  0.0817  0.2321 -0.5080
31049SOL    HW293726   5.422   7.386   1.122 -0.2670  0.5691  1.8331
31050SOL     OW93727   7.885   2.922   7.531 -0.2855 -0.4665  0.1983
31050SOL    HW193728   7.881   3.016   7.514 -0.8898 -0.6215 -0.5739
31050SOL    HW293729   7.899   2.915   7.626  0.5347  0.4018  0.1487
31051SOL     OW93730   6.675   3.160   7.882  0.0731 -0.4570 -0.2423
31051SOL    HW193731   6.636   3.171   7.968  1.6037 -2.0647  0.7017
31051SOL    HW293732   6.733   3.085   7.890  1.6328  0.4390 -2.1943
31052SOL     OW93733   0.492   2.593   0.417 -0.3167 -0.0019 -0.0203
31052SOL    HW193734   0.437   2.610   0.340 -1.2333 -0.1758  0.5864
31052SOL    HW293735   0.447   2.522   0.463  1.4641 -1.5852 -0.5555
31053SOL     OW93736   5.679   7.261   1.444 -0.3213 -0.0927  0.1631
31053SOL    HW193737   5.710   7.260   1.354  0.7461  0.9074  0.4906
31053SOL    HW293738   5.596   7.308   1.440  0.1276  0.6827 -0.1847
31054SOL     OW93739   9.539   8.879   9.123  0.2216 -0.4776 -0.1528
31054SOL    HW193740   9.555   8.800   9.174 -0.9759  0.3251  1.5287
31054SOL    HW293741   9.615   8.886   9.065  0.2741 -2.9281 -0.4691
31055SOL     OW93742   5.816   0.905   8.940 -0.4476 -0.0561 -0.1268
31055SOL    HW193743   5.771   0.981   8.975  0.8950  1.6664 -1.8998
31055SOL    HW293744   5.756   0.868   8.876 -0.5433  0.4234 -0.3177
31056SOL     OW93745   4.308   0.639   9.491  0.0230 -0.2853  0.7125
31056SOL    HW193746   4.224   0.602   9.519 -0.6330  1.7668  1.6770
31056SOL    HW293747   4.292   0.733   9.488  1.9852  0.0615 -0.2734
31057SOL     OW93748   5.051   5.760   5.501 -0.1069  0.1586  0.1256
31057SOL    HW193749   5.075   5.842   5.543 -1.6677  1.2176 -0.8935
31057SOL    HW293750   4.970   5.734   5.544 -1.6312  1.1650 -1.9255
31058SOL     OW93751   3.754   6.190   7.509 -0.4081  0.6007 -0.0434
31058SOL    HW193752   3.671   6.221   7.544 -1.4220 -0.9563 -0.9878
31058SOL    HW293753   3.791   6.137   7.580  0.0900  1.7353  0.5840
31059SOL     OW93754   1.404   1.073   1.975  0.5661  0.2525 -0.0851
31059SOL    HW193755   1.366   1.026   1.900 -0.4342 -0.9285  1.1123
31059SOL    HW293756   1.497   1.077   1.956  0.2797  0.3292 -1.5783
31060SOL     OW93757   0.455   0.074   6.009  0.1428 -0.2185  0.2145
31060SOL    HW193758   0.411   0.027   5.939 -0.9360 -0.0071  0.7125
31060SOL    HW293759   0.390   0.076   6.080  1.1094 -0.2058  1.1132
31061SOL     OW93760   6.605   2.733   2.806  0.3654  0.0145  0.2615
31061SOL    HW193761   6.692   2.755   2.839 -0.4996  1.5426  1.6869
31061SOL    HW293762   6.608   2.638   2.792  1.4603 -0.4100  2.8352
31062SOL     OW93763   1.451   5.906   2.543 -0.0986  0.1160  0.3285
31062SOL    HW193764   1.527   5.848   2.540 -0.5578 -0.6878  2.5108
31062SOL    HW293765   1.395   5.869   2.611 -1.9385  1.3215 -0.4469
31063SOL     OW93766   1.976   7.991   2.032 -0.1371 -0.0577  0.4746
31063SOL    HW193767   1.940   7.913   2.075  0.9966 -2.6576 -2.8354
31063SOL    HW293768   1.907   8.020   1.973 -0.6268  1.7253  1.8260
31064SOL     OW93769   0.581   7.712   4.993  0.3299 -0.5108 -0.2234
31064SOL    HW193770   0.533   7.669   4.922 -0.1116  0.6756 -0.6558
31064SOL    HW293771   0.659   7.747   4.951 -0.5987  1.3927 -0.4325
31065SOL     OW93772   8.398   4.486  -0.024  0.2788  0.1066 -0.4944
31065SOL    HW193773   8.446   4.497   0.059 -0.1010  1.6639 -0.4517
31065SOL    HW293774   8.306   4.495   0.001 -0.0434 -2.0951 -0.7011
31066SOL     OW93775   3.449   9.390   9.661  0.5507 -0.0921  0.0686
31066SOL    HW193776   3.492   9.347   9.734 -0.1318  0.9702  1.1511
31066SOL    HW293777   3.416   9.472   9.699  2.1377  1.5953 -1.9655
31067SOL     OW93778   9.456   0.621   3.356 -0.0794  0.2134 -0.3081
31067SOL    HW193779   9.369   0.658   3.369 -0.6115 -0.5604 -1.5824
31067SOL    HW293780   9.483   0.652   3.269  1.0803  0.7321  0.2055
31068SOL     OW93781   1.602   8.552   6.470 -0.7244  0.0432  0.2625
31068SOL    HW193782   1.694   8.575   6.484 -0.5352 -1.1868  1.1662
31068SOL    HW293783   1.589   8.566   6.376  0.6145 -0.5093 -0.0357
31069SOL     OW93784   0.072   5.685   3.249  0.4196  0.3181  0.6487
31069SOL    HW193785   0.126   5.706   3.172  0.4276 -0.6340  0.3795
31069SOL    HW293786   0.126   5.712   3.324  0.9334  0.1054  0.3591
31070SOL     OW93787   9.711   4.334   8.738  0.5876  0.5535 -0.5710
31070SOL    HW193788   9.692   4.317   8.645  2.2635  0.3146 -0.9046
31070SOL    HW293789   9.805   4.348   8.741  0.4496  1.4314  0.9903
31071SOL     OW93790   8.583   3.702   3.464 -0.1968  0.3223  0.0075
31071SOL    HW193791   8.608   3.666   3.379 -0.1720 -0.1910  0.2249
31071SOL    HW293792   8.628   3.786   3.469 -1.9117  1.3872 -1.4035
31072SOL     OW93793   6.036   7.623   0.840  0.1440  0.3531  0.0421
31072SOL    HW193794   5.991   7.644   0.922 -0.2411 -0.3190  0.0059
31072SOL    HW293795   6.091   7.700   0.823 -1.9982  1.8297 -0.6288
31073SOL     OW93796   6.319   3.001   2.934  0.2033 -0.4619  0.2971
31073SOL    HW193797   6.283   3.041   2.854 -0.7843 -0.9776  0.4691
31073SOL    HW293798   6.304   2.907   2.922  1.4919 -0.6925  0.3943
31074SOL     OW93799   0.050   1.116   3.796 -0.0047  0.6297 -0.3581
31074SOL    HW193800   0.081   1.025   3.803 -0.0298  0.7263  1.1312
31074SOL    HW293801   0.130   1.167   3.789  0.0082  0.5087 -1.2865
31075SOL     OW93802   8.698   2.002   9.211  0.3075 -0.2382 -0.4402
31075SOL    HW193803   8.674   2.091   9.236  2.1606  0.4536 -0.9042
31075SOL    HW293804   8.616   1.953   9.209 -1.1308  2.0745 -2.6824
31076SOL     OW93805   4.754   9.420   5.335 -0.7133 -0.6180 -0.0201
31076SOL    HW193806   4.742   9.513   5.356  1.0539 -0.1196 -1.0150
31076SOL    HW293807   4.710   9.373   5.405 -2.7418  0.9632 -0.1455
31077SOL     OW93808   5.276   9.302   3.937  0.0136 -0.3248  0.1461
31077SOL    HW193809   5.367   9.287   3.911 -0.3072 -0.4068 -0.9842
31077SOL    HW293810   5.236   9.343   3.860 -0.2020  2.4801  1.6274
31078SOL     OW93811   5.585   0.377   4.434 -0.1280  0.0839  0.0679
31078SOL    HW193812   5.563   0.327   4.512 -0.0496  1.8806  1.2956
31078SOL    HW293813   5.664   0.335   4.400  0.3260 -0.2315  1.4547
31079SOL     OW93814   1.915   6.338   3.270 -0.1689 -0.1352 -0.3304
31079SOL    HW193815   1.844   6.275   3.273 -1.0400  0.7946 -0.6413
31079SOL    HW293816   1.917   6.368   3.179  0.3600  0.1325 -0.2334
31080SOL     OW93817   0.392   5.532   0.894  0.0071 -0.1637  0.5746
31080SOL    HW193818   0.357   5.479   0.966 -1.9028 -0.1155 -0.2384
31080SOL    HW293819   0.351   5.496   0.815  0.3191  1.1715 -0.2388
31081SOL     OW93820   5.504   2.471   1.292 -0.1187 -0.1687 -0.0397
31081SOL    HW193821   5.414   2.495   1.270  0.5143  1.0379 -1.5653
31081SOL    HW293822   5.552   2.554   1.290  1.5388 -1.0763 -2.1086
31082SOL     OW93823   6.187   6.493   1.418  0.5535  0.7881  0.1943
31082SOL    HW193824   6.169   6.579   1.381 -0.0831 -0.0133 -1.4270
31082SOL    HW293825   6.204   6.437   1.343  1.6860 -0.3612  1.2600
31083SOL     OW93826   0.898   7.508   9.040  0.1795 -0.3161  0.1231
31083SOL    HW193827   0.901   7.602   9.059  0.0799 -0.3517  0.3134
31083SOL    HW293828   0.972   7.493   8.981 -0.0696 -0.0352 -0.2669
31084SOL     OW93829   4.072   3.921   0.418  0.1800  0.3109  0.5128
31084SOL    HW193830   4.113   3.941   0.503 -1.0725  0.7620  1.0291
31084SOL    HW293831   4.068   4.005   0.373 -0.9315  0.4299  0.8160
31085SOL     OW93832   0.471   0.502   4.748  0.0765  1.1757  0.2172
31085SOL    HW193833   0.515   0.573   4.795  1.3119 -0.2992  1.3771
31085SOL    HW293834   0.514   0.499   4.662  1.2426  0.7144  0.8059
31086SOL     OW93835   9.561   6.518   4.671 -0.1292  0.6532  0.5395
31086SOL    HW193836   9.546   6.568   4.591  0.0072 -0.4584 -0.1977
31086SOL    HW293837   9.562   6.426   4.643 -0.8957  0.1899  1.9336
31087SOL     OW93838   6.011   5.609   0.214 -0.0451 -0.0729  0.1859
31087SOL    HW193839   5.945   5.679   0.210  0.2101  0.1390 -2.4291
31087SOL    HW293840   6.058   5.625   0.296  0.5265  3.3425 -0.6252
31088SOL     OW93841   5.463   5.161   7.486 -0.0460  0.2157  0.1189
31088SOL    HW193842   5.497   5.086   7.438 -0.5355  0.9089 -1.3686
31088SOL    HW293843   5.439   5.224   7.418  0.4080  1.7544  1.3262
31089SOL     OW93844   2.973   3.670   5.759 -0.5010 -0.0666  0.3823
31089SOL    HW193845   3.017   3.644   5.841  1.5521  0.3216 -0.5220
31089SOL    HW293846   2.970   3.590   5.707 -0.2819  0.0389  0.2048
31090SOL     OW93847   3.118   7.105   5.639  0.1741  0.1009 -0.3506
31090SOL    HW193848   3.208   7.137   5.645  0.2422  0.0050 -0.8523
31090SOL    HW293849   3.064   7.182   5.654  0.3388  0.3065 -0.8077
31091SOL     OW93850   7.183   2.494   1.563  0.1099  0.5063 -0.5509
31091SOL    HW193851   7.248   2.424   1.570 -0.5809 -0.0727  0.2138
31091SOL    HW293852   7.196   2.547   1.642  0.5158  1.1609 -1.0416
31092SOL     OW93853   0.371   0.313   1.570  0.0773 -0.0769  0.3969
31092SOL    HW193854   0.383   0.244   1.636 -0.8840 -1.3346 -0.6830
31092SOL    HW293855   0.459   0.349   1.558  0.5145 -0.7484  1.3669
31093SOL     OW93856   3.183   2.293   7.458  0.7824 -0.2706  0.1167
31093SOL    HW193857   3.161   2.353   7.529 -2.8037 -0.0666 -0.9807
31093SOL    HW293858   3.213   2.214   7.502  1.4921  0.8393  1.7126
31094SOL     OW93859   1.488   3.156   2.638 -0.0428  0.3487  0.2723
31094SOL    HW193860   1.581   3.172   2.623  0.5765 -1.3060  1.9666
31094SOL    HW293861   1.445   3.238   2.615  1.9769  1.6127  0.7781
31095SOL     OW93862   8.892   1.689   1.225 -0.0296  0.4035 -0.1566
31095SOL    HW193863   8.915   1.762   1.283 -1.2815  0.5534  0.1944
31095SOL    HW293864   8.971   1.636   1.220 -0.1741 -0.2248  2.5891
31096SOL     OW93865   3.100   5.017   0.542  0.2803  0.4596  0.0075
31096SOL    HW193866   3.126   4.936   0.499 -0.0362  1.0424 -1.3307
31096SOL    HW293867   3.020   5.044   0.498  0.1805  1.3210  0.6743
31097SOL     OW93868   0.405   9.849   1.992 -0.2258  0.1206 -0.0359
31097SOL    HW193869   0.336   9.811   1.938  0.0589  1.6956 -1.6011
31097SOL    HW293870   0.379   9.939   2.006 -0.0380 -0.1055  2.1272
31098SOL     OW93871   7.712   4.473   1.823  0.2659 -0.7736  0.1965
31098SOL    HW193872   7.789   4.515   1.784 -0.3037 -0.7091 -0.8835
31098SOL    HW293873   7.691   4.402   1.763 -0.0371 -1.2962  0.9174
31099SOL     OW93874   1.427   3.382   9.247 -0.2482  0.3769 -0.1321
31099SOL    HW193875   1.393   3.421   9.167 -0.9490  0.5427  0.2420
31099SOL    HW293876   1.505   3.434   9.268  0.2336  0.0113 -0.9752
31100SOL     OW93877   6.910   3.330   7.300 -0.5297 -0.4358 -0.6963
31100SOL    HW193878   6.860   3.261   7.257  0.9355 -1.8036 -0.3108
31100SOL    HW293879   7.001   3.312   7.276  0.1326 -0.1086  1.3620
31101SOL     OW93880   4.062   3.428   2.645  0.2613  0.3340 -0.1024
31101SOL    HW193881   4.111   3.508   2.625  0.7710  0.0393 -0.0777
31101SOL    HW293882   4.127   3.358   2.633  0.3867  0.0740  1.8305
31102SOL     OW93883   7.463   5.957   9.794 -0.8528  0.1336 -0.1197
31102SOL    HW193884   7.518   5.980   9.869 -2.0527 -1.3807  1.3065
31102SOL    HW293885   7.491   6.017   9.725  2.9309 -0.8744  0.3112
31103SOL     OW93886   6.825   2.994   9.246 -0.5340 -0.5332 -0.1613
31103SOL    HW193887   6.776   3.043   9.180 -2.3344 -1.6430  0.2737
31103SOL    HW293888   6.791   2.905   9.240  2.0608 -1.5795 -0.3517
31104SOL     OW93889   0.365   0.250   4.415  0.7310  0.3303 -0.2701
31104SOL    HW193890   0.393   0.212   4.331  0.2479 -0.9770  0.1237
31104SOL    HW293891   0.408   0.196   4.481 -0.4350  0.0670  0.3152
31105SOL     OW93892   2.740   9.871   2.335  0.0023  0.1286 -0.6083
31105SOL    HW193893   2.738   9.921   2.254 -1.6700  0.9118 -0.1191
31105SOL    HW293894   2.707   9.784   2.311  0.1756  0.1428 -0.8965
31106SOL     OW93895   6.082   8.099   0.602  0.4141  0.0233  0.0896
31106SOL    HW193896   6.078   8.016   0.651  0.2743  0.0653  0.1505
31106SOL    HW293897   6.163   8.093   0.552  1.8941  1.0344  2.2311
31107SOL     OW93898   5.791   7.807   7.863  0.8288 -0.2915  0.1172
31107SOL    HW193899   5.862   7.762   7.818  0.8046  0.1942 -0.4109
31107SOL    HW293900   5.808   7.900   7.849 -0.4258 -0.1805 -0.8344
31108SOL     OW93901   8.320   6.046   7.631  0.0685  0.1143 -0.1448
31108SOL    HW193902   8.270   6.119   7.668  0.4442  1.0788 -1.4722
31108SOL    HW293903   8.411   6.068   7.649  0.2210  0.3059 -1.1087
31109SOL     OW93904   9.569   2.588   9.625  0.0239 -0.0125  1.0110
31109SOL    HW193905   9.557   2.494   9.612  0.0509 -0.0205  1.0452
31109SOL    HW293906   9.663   2.603   9.614 -0.2548  0.3818 -1.4661
31110SOL     OW93907   7.289   7.551   1.999  0.4493  0.4543  0.2822
31110SOL    HW193908   7.292   7.614   2.071  0.0580  0.6982  0.0847
31110SOL    HW293909   7.366   7.496   2.013  0.8512  1.0366  0.3996
31111SOL     OW93910   0.586   8.424   5.474  0.4075 -0.6553 -0.3745
31111SOL    HW193911   0.621   8.512   5.489  0.3796 -0.8038  0.6377
31111SOL    HW293912   0.510   8.419   5.533 -0.5384 -0.8100 -1.5575
31112SOL     OW93913   7.829   7.013   7.569 -0.6711  0.4036 -0.3656
31112SOL    HW193914   7.743   7.054   7.558 -0.3101  1.0491 -0.8317
31112SOL    HW293915   7.888   7.086   7.587 -0.3415 -0.1127  0.7444
31113SOL     OW93916   4.982   8.507   7.136 -0.1442 -0.0440  0.0401
31113SOL    HW193917   5.064   8.538   7.099  1.7130 -4.1338  0.2939
31113SOL    HW293918   5.000   8.496   7.229 -1.5308  0.4553  0.3971
31114SOL     OW93919   8.432   0.893   1.582 -0.3223  0.0224 -0.4790
31114SOL    HW193920   8.385   0.943   1.515  0.3195 -1.5677 -2.1718
31114SOL    HW293921   8.422   0.802   1.557 -1.1512 -0.7656  2.3389
31115SOL     OW93922   0.251   3.411   0.633  0.5737  0.5278 -0.7244
31115SOL    HW193923   0.336   3.376   0.607  0.6149  0.2859 -0.2612
31115SOL    HW293924   0.212   3.343   0.687 -0.6920 -0.1446 -2.3996
31116SOL     OW93925   0.773   1.198   1.069  0.0212  0.1267  0.7886
31116SOL    HW193926   0.833   1.236   1.134 -1.3265  0.1937  2.0570
31116SOL    HW293927   0.801   1.236   0.986  1.1992  0.8074  1.4572
31117SOL     OW93928   3.470   6.629   5.547  0.0067  0.2393  0.2869
31117SOL    HW193929   3.421   6.711   5.547 -0.9042 -0.2724 -0.5950
31117SOL    HW293930   3.407   6.564   5.514  0.8514 -0.7168  0.5019
31118SOL     OW93931   7.298   2.733   6.192 -0.2363 -0.0485  0.1462
31118SOL    HW193932   7.393   2.728   6.183 -0.3554  0.0977 -1.2877
31118SOL    HW293933   7.265   2.653   6.152 -0.8067  0.8217 -1.1885
31119SOL     OW93934   5.059   7.451   0.509 -0.0265  0.4061 -0.2462
31119SOL    HW193935   4.995   7.521   0.501 -0.5193  0.2503  1.7546
31119SOL    HW293936   5.041   7.411   0.594  3.5926  1.2231  1.0935
31120SOL     OW93937   5.622   5.253   0.192 -0.0895 -0.0508  0.3127
31120SOL    HW193938   5.587   5.249   0.281  1.9385  0.1681  1.1563
31120SOL    HW293939   5.579   5.180   0.147 -2.0487  0.5428  1.0775
31121SOL     OW93940   9.107   9.517   8.211  0.4039  0.3320 -0.5186
31121SOL    HW193941   9.113   9.612   8.208  1.1495  0.2898 -0.5876
31121SOL    HW293942   9.025   9.497   8.166  0.5454  0.9089 -1.0498
31122SOL     OW93943   2.364   0.550   9.460  0.1934  0.4746 -0.1711
31122SOL    HW193944   2.315   0.629   9.483 -0.0247  0.4914 -0.7064
31122SOL    HW293945   2.420   0.577   9.387 -1.7589 -0.5227 -2.1295
31123SOL     OW93946   5.683   2.381   4.702  0.3187 -0.1655  0.5141
31123SOL    HW193947   5.742   2.454   4.719  0.6116 -0.3763  0.4177
31123SOL    HW293948   5.738   2.303   4.714 -0.3454 -0.4318  2.1622
31124SOL     OW93949   7.434   4.995   8.131  0.0415  0.3112 -0.4693
31124SOL    HW193950   7.485   4.921   8.161 -0.4210  0.1710 -0.0081
31124SOL    HW293951   7.368   4.957   8.073  0.6878  0.5355 -1.3631
31125SOL     OW93952   3.698   9.469   8.310  0.4400 -0.1503  0.2733
31125SOL    HW193953   3.768   9.449   8.372  0.9521  0.0594 -0.2325
31125SOL    HW293954   3.661   9.552   8.341  1.1031  0.2700 -0.0549
31126SOL     OW93955   3.477   2.025   3.420  0.3073 -0.8320  0.4007
31126SOL    HW193956   3.403   2.025   3.359  0.6618  1.2291 -0.0954
31126SOL    HW293957   3.445   1.977   3.496 -1.2115 -0.7990 -0.1886
31127SOL     OW93958   7.310   8.434   6.825 -0.2933 -0.0713 -0.4252
31127SOL    HW193959   7.324   8.508   6.766 -0.7485 -0.2636 -0.7774
31127SOL    HW293960   7.299   8.475   6.911  1.1385  0.1625 -0.3246
31128SOL     OW93961   6.944   0.385   1.637  0.0031  0.1954  0.7800
31128SOL    HW193962   6.968   0.412   1.548 -0.8551  1.4865  0.9132
31128SOL    HW293963   6.851   0.364   1.631 -0.0398  0.2146  1.3611
31129SOL     OW93964   5.432   3.709   5.863  0.4107 -0.0868 -0.5824
31129SOL    HW193965   5.352   3.695   5.812 -0.7790  0.9330  0.9187
31129SOL    HW293966   5.421   3.654   5.941  0.1871  1.5866  0.6147
31130SOL     OW93967   5.830   7.719   9.167  0.0644 -0.0483 -0.2663
31130SOL    HW193968   5.836   7.733   9.261 -2.5399  0.8468 -0.1507
31130SOL    HW293969   5.861   7.802   9.129 -0.8277  0.3689 -0.1061
31131SOL     OW93970   4.835   2.995   3.624 -0.4612 -0.0334 -0.6428
31131SOL    HW193971   4.921   2.963   3.600 -0.4124 -1.9741  1.7473
31131SOL    HW293972   4.778   2.918   3.620 -1.1957  0.3099  1.5800
31132SOL     OW93973   0.545   6.457   1.934  0.6864 -0.1997  0.3402
31132SOL    HW193974   0.557   6.409   2.016  0.1290  1.0675  1.1951
31132SOL    HW293975   0.485   6.529   1.957  0.6987  0.3087 -1.1272
31133SOL     OW93976   1.589   2.401   6.690  0.0290 -0.7300  0.4118
31133SOL    HW193977   1.639   2.320   6.681 -0.0435 -0.5643 -2.8721
31133SOL    HW293978   1.628   2.445   6.765  2.6157 -2.1093  0.0086
31134SOL     OW93979   7.076   6.932   3.650 -0.1252 -0.3676  0.2121
31134SOL    HW193980   7.097   6.843   3.622  1.6869 -0.5717  1.9325
31134SOL    HW293981   7.075   6.983   3.570  2.2823 -1.3556 -0.5371
31135SOL     OW93982   3.892   2.115   8.048 -0.1847  0.4467  0.4016
31135SOL    HW193983   3.798   2.134   8.056 -0.1643  0.2967  1.0684
31135SOL    HW293984   3.935   2.195   8.078 -0.1038  0.0345  1.4178
31136SOL     OW93985   8.135   5.361   1.958  0.2502  0.1489  0.1036
31136SOL    HW193986   8.176   5.426   2.016 -1.2572  0.9823  0.2921
31136SOL    HW293987   8.169   5.382   1.871  0.9723  0.1897  0.3869
31137SOL     OW93988   2.364   1.864   4.015  0.7354  0.4256  0.5805
31137SOL    HW193989   2.308   1.937   4.042  0.9414  0.9802 -0.4572
31137SOL    HW293990   2.450   1.903   4.005  0.7880  0.0961 -0.2666
31138SOL     OW93991   9.582   8.454   2.074  0.2095  0.1400  0.0408
31138SOL    HW193992   9.592   8.532   2.019  0.8188 -0.2178 -0.3659
31138SOL    HW293993   9.566   8.383   2.012  0.1779 -0.1451  0.3761
31139SOL     OW93994   9.770   3.308   0.761  0.6350  0.2325 -0.3147
31139SOL    HW193995   9.780   3.288   0.668  0.9465  0.3485 -0.3076
31139SOL    HW293996   9.779   3.224   0.805  1.2530  0.2870 -0.3346
31140SOL     OW93997   8.322   0.820   4.087 -0.2819  0.3393 -0.0446
31140SOL    HW193998   8.310   0.725   4.092 -1.0692  0.4531  0.5197
31140SOL    HW293999   8.407   0.836   4.128 -0.6602 -0.0241  0.9187
31141SOL     OW94000   8.570   2.260   1.980 -0.3870 -1.3062  0.0922
31141SOL    HW194001   8.489   2.216   1.954 -1.4852 -0.8190  2.4144
31141SOL    HW294002   8.543   2.350   1.998  0.5021 -1.2963  1.5307
31142SOL     OW94003   4.538   7.702   4.676 -0.0045  0.3102 -0.3122
31142SOL    HW194004   4.490   7.759   4.736 -0.0148  0.1790 -0.1932
31142SOL    HW294005   4.502   7.615   4.692  1.3790 -0.0767  0.9517
31143SOL     OW94006   3.526   9.552   1.778  0.0870  0.3061  0.2934
31143SOL    HW194007   3.510   9.536   1.871  1.8384  2.8032  1.1539
31143SOL    HW294008   3.461   9.618   1.754 -0.7435 -0.7534 -0.4713
31144SOL     OW94009   2.614   3.252   1.796 -0.3027 -0.2614 -0.1648
31144SOL    HW194010   2.613   3.208   1.881 -0.1953 -0.0824 -0.0700
31144SOL    HW294011   2.544   3.318   1.802  1.1943  1.3441  0.6435
31145SOL     OW94012   9.294   7.144   1.047  0.8437 -0.1813  0.2594
31145SOL    HW194013   9.237   7.209   1.007 -1.2404 -0.7374  2.1231
31145SOL    HW294014   9.272   7.062   1.001  2.0473  0.0307 -0.7483
31146SOL     OW94015   8.784   2.633   9.865  0.6593 -0.2624 -0.5576
31146SOL    HW194016   8.873   2.598   9.871  0.6830  0.0371  2.2625
31146SOL    HW294017   8.797   2.726   9.845  1.0909  0.0390  0.9951
31147SOL     OW94018   0.736   5.282   5.197 -0.0857  0.5496 -0.3335
31147SOL    HW194019   0.725   5.199   5.153  0.7259 -0.2594  0.9069
31147SOL    HW294020   0.778   5.339   5.133 -0.3120 -0.1082 -1.0676
31148SOL     OW94021   8.391   1.853   2.348  0.2058 -0.3072  1.1493
31148SOL    HW194022   8.456   1.886   2.409  1.5160 -0.4028 -0.1329
31148SOL    HW294023   8.328   1.924   2.337  1.3153  0.6412  0.7458
31149SOL     OW94024   4.661   7.941   8.485  0.0194  0.2367 -0.2445
31149SOL    HW194025   4.571   7.912   8.502 -0.2313  0.6881 -0.7802
31149SOL    HW294026   4.713   7.899   8.554 -0.6680  0.3679  0.3642
31150SOL     OW94027   9.131   1.922   5.490  0.2523  0.6289  0.1860
31150SOL    HW194028   9.150   1.914   5.397 -0.0045 -0.2549  0.1972
31150SOL    HW294029   9.110   2.014   5.502 -0.5620  0.5978 -0.8070
31151SOL     OW94030   8.682   7.844   9.313  0.2046  0.3102  0.1038
31151SOL    HW194031   8.626   7.790   9.257 -0.6752 -0.0183  1.2611
31151SOL    HW294032   8.689   7.928   9.267  1.1731 -0.5762 -1.4708
31152SOL     OW94033   8.131   3.545   1.817 -0.3863 -0.1286 -0.0436
31152SOL    HW194034   8.157   3.464   1.774 -0.2768  1.1997 -2.7110
31152SOL    HW294035   8.213   3.583   1.849 -0.4160 -0.9367  1.0339
31153SOL     OW94036   3.831   3.849   7.473  0.5085 -0.7976  0.4736
31153SOL    HW194037   3.858   3.847   7.381  0.8299  0.7789  0.5088
31153SOL    HW294038   3.758   3.910   7.476  1.1979  0.0200  1.4235
31154SOL     OW94039   5.333   0.330   5.037 -0.1372  0.7772 -0.1763
31154SOL    HW194040   5.289   0.259   5.083  0.5897  0.4473  0.0318
31154SOL    HW294041   5.321   0.310   4.944 -1.5957  1.4363 -0.1575
31155SOL     OW94042   6.376   9.147   6.605 -0.3833  0.0687  0.3192
31155SOL    HW194043   6.457   9.194   6.626  0.7962 -1.0155 -1.4743
31155SOL    HW294044   6.333   9.201   6.539  0.4105 -0.7556 -0.9144
31156SOL     OW94045   6.918   8.453   2.266 -0.6027 -0.3511  0.6015
31156SOL    HW194046   6.983   8.522   2.276  0.1084 -0.9229  0.0819
31156SOL    HW294047   6.866   8.456   2.346 -1.4665  1.6685  0.0167
31157SOL     OW94048   3.339   2.910   2.894  0.3075 -0.2668 -0.4216
31157SOL    HW194049   3.364   3.001   2.908 -1.0244  0.3289 -1.6978
31157SOL    HW294050   3.349   2.869   2.981 -0.0267  1.3192  0.4025
31158SOL     OW94051   2.104   1.056   0.134 -0.1514  0.1644 -0.4268
31158SOL    HW194052   2.015   1.076   0.106  0.3644 -0.9257 -3.2146
31158SOL    HW294053   2.153   1.135   0.115  0.0736 -0.3654 -2.2550
31159SOL     OW94054   7.433   6.258   1.147 -0.4368  0.0721 -0.3931
31159SOL    HW194055   7.386   6.326   1.195  2.1336  0.4757  1.8233
31159SOL    HW294056   7.492   6.307   1.089 -1.3499 -0.3987 -1.7788
31160SOL     OW94057   5.642   0.128   5.908 -0.1522 -0.5247  0.0213
31160SOL    HW194058   5.639   0.199   5.844  0.1886 -0.0135  0.5623
31160SOL    HW294059   5.725   0.085   5.893 -0.6423 -1.2291 -0.7405
31161SOL     OW94060   0.669   9.858   4.710 -0.0204 -0.2552 -0.4247
31161SOL    HW194061   0.588   9.906   4.694 -0.8790 -1.2844  0.6700
31161SOL    HW294062   0.653   9.771   4.675  1.7733  0.3413 -3.0084
31162SOL     OW94063   6.519   4.899   2.642 -0.1636  0.1455  0.4616
31162SOL    HW194064   6.609   4.892   2.609  0.2669  1.2569  1.3185
31162SOL    HW294065   6.521   4.977   2.699 -2.5053  2.3012 -2.1422
31163SOL     OW94066   1.959   3.045   4.396 -0.4843  0.1637  0.9620
31163SOL    HW194067   2.016   3.057   4.319  0.7955 -1.9764  1.5005
31163SOL    HW294068   1.898   2.977   4.369 -0.9095  0.3691  1.4048
31164SOL     OW94069   1.758   7.834   8.279 -0.1544 -0.0520 -0.0624
31164SOL    HW194070   1.844   7.797   8.257 -0.5211 -0.7520 -0.3514
31164SOL    HW294071   1.768   7.868   8.368  0.5472  0.2780 -0.2626
31165SOL     OW94072   7.324   2.436   3.277  0.1830 -0.0935 -0.6453
31165SOL    HW194073   7.341   2.342   3.283  0.6559 -0.0154 -0.7988
31165SOL    HW294074   7.319   2.465   3.368  2.3839  0.1602 -0.5650
31166SOL     OW94075   2.045   1.399   6.109 -1.4127  0.0426 -1.1441
31166SOL    HW194076   2.004   1.439   6.186 -0.9768  0.8160 -1.3107
31166SOL    HW294077   2.088   1.472   6.064 -0.0942 -0.7067 -1.1347
31167SOL     OW94078   6.766   0.569   4.280 -0.0386 -0.6855  0.2987
31167SOL    HW194079   6.829   0.514   4.326  0.6117  0.3885  0.7493
31167SOL    HW294080   6.805   0.584   4.194  0.9570  0.9352  0.9733
31168SOL     OW94081   3.201   7.490   6.936 -0.0980  0.1339  0.1108
31168SOL    HW194082   3.204   7.394   6.932  0.4488  0.1361  0.3207
31168SOL    HW294083   3.266   7.519   6.871 -0.6370  0.3723 -0.3275
31169SOL     OW94084   8.586   3.698   9.268  0.0047  0.0332 -0.1887
31169SOL    HW194085   8.631   3.749   9.201  0.8886  0.4990  0.7264
31169SOL    HW294086   8.610   3.607   9.249  0.4406  0.1836 -0.3730
31170SOL     OW94087   6.458   3.814   9.801 -0.1685  0.4259 -0.2471
31170SOL    HW194088   6.508   3.832   9.722 -0.1938  0.2639 -0.2998
31170SOL    HW294089   6.398   3.888   9.809 -0.5385  0.1747 -0.6761
31171SOL     OW94090   0.466   4.837   6.147 -0.1311 -0.4186  0.3316
31171SOL    HW194091   0.463   4.804   6.057  2.3444  2.3554 -0.9092
31171SOL    HW294092   0.374   4.853   6.169 -0.8283 -1.4685 -1.5594
31172SOL     OW94093   6.510   1.577   3.998  0.0087 -0.1980 -0.0743
31172SOL    HW194094   6.484   1.667   3.980  1.3911  0.3071  0.3566
31172SOL    HW294095   6.577   1.584   4.066  1.6849 -1.3678 -1.5065
31173SOL     OW94096   3.220   5.229   8.116 -0.3143  0.3093 -0.2023
31173SOL    HW194097   3.196   5.179   8.038 -1.3668  1.0627 -0.3958
31173SOL    HW294098   3.192   5.175   8.190  1.1625 -0.6439 -0.3060
31174SOL     OW94099   4.813   2.451   5.937  0.3846  0.2544 -0.3696
31174SOL    HW194100   4.742   2.443   5.874 -1.7593 -1.7511  2.0625
31174SOL    HW294101   4.800   2.537   5.977 -2.7130 -1.1390  2.0562
31175SOL     OW94102   3.442   9.530   1.280  0.5442  0.2585 -0.1647
31175SOL    HW194103   3.372   9.480   1.323  1.6447 -0.9580  0.2946
31175SOL    HW294104   3.519   9.517   1.336  1.5636  0.1614 -1.5261
31176SOL     OW94105   0.263   6.262   5.274 -0.2116 -0.0435 -0.4514
31176SOL    HW194106   0.272   6.180   5.322 -0.6766  0.0638 -0.1728
31176SOL    HW294107   0.185   6.303   5.310 -0.1333  0.4024 -0.7688
31177SOL     OW94108   0.651   3.151   2.356 -0.1981 -0.0520  0.8976
31177SOL    HW194109   0.600   3.231   2.345  1.4231  1.1876  1.9068
31177SOL    HW294110   0.711   3.150   2.281  0.9028  0.5999  1.7369
31178SOL     OW94111   4.173   4.578   7.395 -0.0320  0.2077  0.0549
31178SOL    HW194112   4.232   4.561   7.468 -1.6125  2.0161  1.8610
31178SOL    HW294113   4.228   4.569   7.317  1.9924 -0.6296  1.5025
31179SOL     OW94114   7.768   1.053   5.860  0.1454  0.6097  0.3867
31179SOL    HW194115   7.750   1.147   5.863  0.3085  0.7204 -1.3663
31179SOL    HW294116   7.697   1.017   5.807  0.6047 -0.1335  0.2682
31180SOL     OW94117   0.182   1.700   3.084 -0.3589 -0.1478 -0.6039
31180SOL    HW194118   0.257   1.687   3.025 -0.3959 -0.3471 -0.6073
31180SOL    HW294119   0.178   1.794   3.097  0.0919 -0.1573 -0.3524
31181SOL     OW94120   5.972   1.271   4.502 -0.1525 -0.3425  0.5695
31181SOL    HW194121   5.979   1.315   4.587 -1.1016  0.9490  0.0223
31181SOL    HW294122   6.044   1.309   4.451 -1.1149  0.8240  0.0215
31182SOL     OW94123   4.976   4.666   3.831  0.2035 -0.2631  0.0404
31182SOL    HW194124   4.890   4.640   3.865  0.2172  0.2220  0.4463
31182SOL    HW294125   5.000   4.744   3.881  1.0484 -0.6058  0.1978
31183SOL     OW94126   4.614   9.736   1.246  0.0867  0.3957 -0.3882
31183SOL    HW194127   4.614   9.680   1.324  0.4852  0.8238 -0.0734
31183SOL    HW294128   4.617   9.825   1.281  1.3453  0.5720 -0.8875
31184SOL     OW94129   8.046   1.616   4.751  0.3026  0.5410 -0.5948
31184SOL    HW194130   8.007   1.602   4.665  0.0077 -1.6109 -0.1757
31184SOL    HW294131   8.138   1.590   4.740  0.3489  0.6034 -0.3604
31185SOL     OW94132   2.380   0.672   6.488  0.7312 -0.1596  0.3131
31185SOL    HW194133   2.287   0.662   6.509  0.4007  0.2680 -0.8625
31185SOL    HW294134   2.410   0.583   6.470  0.1903 -0.1680 -0.6483
31186SOL     OW94135   7.508   4.499   1.558  0.0506 -0.4086 -0.1530
31186SOL    HW194136   7.574   4.436   1.531  1.3483 -0.5842  2.9746
31186SOL    HW294137   7.461   4.456   1.629 -0.8914  1.1257  0.2148
31187SOL     OW94138   9.891   2.985   7.259  0.1689  0.5529  0.2623
31187SOL    HW194139   9.814   3.039   7.275 -1.2130 -1.5422  1.1664
31187SOL    HW294140   9.960   3.025   7.312 -0.5111  1.9918  0.0989
31188SOL     OW94141   7.057   2.077   5.250 -0.3793 -0.2668  0.8934
31188SOL    HW194142   7.116   2.007   5.277 -0.3205  0.0087  1.4730
31188SOL    HW294143   7.109   2.157   5.256 -0.4812 -0.1541  0.3441
31189SOL     OW94144   7.884   7.073   6.362  0.9780 -0.2597  0.0326
31189SOL    HW194145   7.947   7.069   6.433 -0.6293 -0.4248  1.5107
31189SOL    HW294146   7.822   7.003   6.380  0.0524  0.2314 -1.0639
31190SOL     OW94147   1.385   4.627   8.680  0.3525  0.1800  0.5822
31190SOL    HW194148   1.473   4.613   8.716  0.2600  0.2896  0.8548
31190SOL    HW294149   1.326   4.599   8.750  0.1693  0.8275  0.6931
31191SOL     OW94150   7.166   6.145   8.455 -0.3006 -0.3314 -0.3712
31191SOL    HW194151   7.259   6.168   8.466 -0.3075  0.0739 -1.0867
31191SOL    HW294152   7.149   6.082   8.525  0.2309  0.4052  0.4573
31192SOL     OW94153   7.963   2.237   8.461  0.0044  0.0866  0.3701
31192SOL    HW194154   7.979   2.236   8.366 -0.9943  1.1122  0.1705
31192SOL    HW294155   7.982   2.148   8.489  1.0044 -0.0628 -0.6750
31193SOL     OW94156   7.227   7.784   7.924 -0.9283 -0.2152 -0.0980
31193SOL    HW194157   7.293   7.847   7.895 -1.6711  1.0343  0.8039
31193SOL    HW294158   7.270   7.734   7.994  0.0878 -1.6373 -1.6761
31194SOL     OW94159   3.700   8.593   4.961 -0.1568  0.1659  0.9959
31194SOL    HW194160   3.704   8.639   5.045 -1.4488  0.8930  0.6895
31194SOL    HW294161   3.607   8.581   4.945 -0.0075  1.1657 -0.9224
31195SOL     OW94162   7.217   9.771   9.906  0.7584 -0.0431 -0.1426
31195SOL    HW194163   7.271   9.722   9.843  1.3191  0.9614 -0.4892
31195SOL    HW294164   7.281   9.807   9.968  0.1094 -1.9705  1.7300
31196SOL     OW94165   9.432   6.062   6.064  0.3037 -0.3855 -0.7224
31196SOL    HW194166   9.450   6.149   6.100  1.2392 -0.9874  0.3349
31196SOL    HW294167   9.387   6.079   5.981 -0.9369  1.0784  0.1853
31197SOL     OW94168   0.025   0.833   3.882 -0.2221 -0.6396  0.1338
31197SOL    HW194169   0.080   0.782   3.821  0.3226  0.1005 -0.0104
31197SOL    HW294170   0.040   0.792   3.967  3.0657  1.3677  0.7234
31198SOL     OW94171   5.815   3.505   5.008 -0.2266 -0.0031 -0.0337
31198SOL    HW194172   5.740   3.501   5.068  0.0692 -0.6030  0.3089
31198SOL    HW294173   5.776   3.525   4.923 -0.6690  0.7152  0.3236
31199SOL     OW94174   3.566   3.492   1.394 -0.0529 -0.3272 -0.3375
31199SOL    HW194175   3.646   3.540   1.417  0.9039 -2.1408  0.3294
31199SOL    HW294176   3.542   3.445   1.474  0.6135 -3.0260 -1.5875
31200SOL     OW94177   5.993   7.873   6.103 -0.1674  0.0174 -0.1183
31200SOL    HW194178   6.041   7.840   6.027 -0.3525  1.2451 -0.7874
31200SOL    HW294179   5.941   7.798   6.133 -0.3306 -0.3944 -1.3821
31201SOL     OW94180   5.365   5.363   5.554  0.2151  0.0310  0.1264
31201SOL    HW194181   5.395   5.351   5.464 -1.4861 -1.0625 -0.3459
31201SOL    HW294182   5.292   5.425   5.547  0.1950  0.0866  0.7805
31202SOL     OW94183   9.214   3.744   1.538  0.1201  0.0179 -0.4373
31202SOL    HW194184   9.253   3.829   1.557  0.0622  0.1549 -0.9197
31202SOL    HW294185   9.195   3.706   1.624  0.2970  0.4214 -0.2202
31203SOL     OW94186   1.979   0.188   1.520  0.6351 -0.2667  0.7173
31203SOL    HW194187   1.903   0.190   1.462  1.2042 -1.4539 -0.1261
31203SOL    HW294188   2.055   0.188   1.461  1.3231  1.3083  1.5468
31204SOL     OW94189   5.329   8.113   8.114 -0.5172 -0.0920 -0.4702
31204SOL    HW194190   5.267   8.088   8.045  0.7240 -0.6220 -1.4377
31204SOL    HW294191   5.378   8.033   8.132 -0.1198  0.3107  0.2784
31205SOL     OW94192   5.663   1.611   6.750 -0.1473  0.0695 -0.6551
31205SOL    HW194193   5.662   1.526   6.795  1.4932 -0.6112 -1.8139
31205SOL    HW294194   5.616   1.595   6.668 -0.1229  0.3636 -0.7274
31206SOL     OW94195   0.646   9.448   0.494 -0.3029  0.3191  0.0654
31206SOL    HW194196   0.580   9.514   0.515  1.1151  0.8524  3.6661
31206SOL    HW294197   0.730   9.490   0.515  0.9371 -1.4725 -0.9747
31207SOL     OW94198   8.493   1.555   2.531 -0.3365  0.1749  0.4297
31207SOL    HW194199   8.450   1.522   2.609 -0.5175 -0.0793  0.2229
31207SOL    HW294200   8.553   1.622   2.563 -0.6821  0.3331  0.7452
31208SOL     OW94201   8.389   6.828   8.407 -0.0217 -0.3100 -0.1067
31208SOL    HW194202   8.380   6.902   8.468 -1.9512  1.2914 -2.1907
31208SOL    HW294203   8.470   6.847   8.360 -0.8142  0.8539 -1.0458
31209SOL     OW94204   6.228   4.012   9.561 -0.0490 -0.4337 -0.3870
31209SOL    HW194205   6.141   4.046   9.539  0.4904  1.4700  0.1447
31209SOL    HW294206   6.239   4.034   9.654  0.9057 -0.8648 -0.3843
31210SOL     OW94207   0.779   6.500   0.166  0.3314  0.5857  0.3355
31210SOL    HW194208   0.777   6.503   0.262  1.1851  1.4028  0.3417
31210SOL    HW294209   0.870   6.520   0.144  0.6902 -1.7723 -0.5931
31211SOL     OW94210   8.479   5.267   2.065  0.4307 -0.8204  0.2102
31211SOL    HW194211   8.513   5.356   2.066 -0.3181 -0.4425  3.1908
31211SOL    HW294212   8.504   5.232   1.980  0.8820  2.1622 -0.9918
31212SOL     OW94213   0.800   1.352   5.320  0.5479  0.1400  0.1027
31212SOL    HW194214   0.808   1.442   5.287  1.9486  0.4034  1.0683
31212SOL    HW294215   0.847   1.299   5.256  1.0973  0.3205  0.3471
31213SOL     OW94216   0.594   3.100   1.168 -0.4267  0.1871  0.4721
31213SOL    HW194217   0.502   3.104   1.143 -0.8883 -1.0985  1.8345
31213SOL    HW294218   0.640   3.145   1.097 -2.0040  0.0362 -0.6989
31214SOL     OW94219   7.191   6.084   5.145 -0.4114 -0.5017 -0.6176
31214SOL    HW194220   7.247   6.028   5.200 -1.1755 -1.1935 -0.5295
31214SOL    HW294221   7.232   6.171   5.150 -0.2024 -0.6569  0.6608
31215SOL     OW94222   5.732   7.304   0.401  0.2303  0.2727  0.3054
31215SOL    HW194223   5.813   7.305   0.349 -0.2975  0.6581 -0.5280
31215SOL    HW294224   5.727   7.215   0.435  1.0599  0.2747  0.4527
31216SOL     OW94225   3.503   5.121   1.884  0.1078  0.1186 -0.0688
31216SOL    HW194226   3.513   5.130   1.978  1.3280  2.5913 -0.3728
31216SOL    HW294227   3.430   5.179   1.862  0.5917  0.4815 -0.7651
31217SOL     OW94228   3.291   4.302   7.408  0.2879 -0.2572  0.2728
31217SOL    HW194229   3.367   4.260   7.367 -0.2823 -1.6249  0.5731
31217SOL    HW294230   3.298   4.394   7.382  1.2982 -0.6202 -0.8407
31218SOL     OW94231   3.819   3.744   2.198 -0.3281 -0.1135  0.2960
31218SOL    HW194232   3.781   3.656   2.196 -1.0274  0.1899 -1.2002
31218SOL    HW294233   3.744   3.803   2.191  0.2163  0.5777  0.1710
31219SOL     OW94234   4.513   2.076   4.729 -0.4813 -0.0751 -0.1087
31219SOL    HW194235   4.580   2.131   4.770  0.0415 -1.5558  1.1155
31219SOL    HW294236   4.482   2.020   4.800 -0.7323 -1.6216 -1.3874
31220SOL     OW94237   3.487   0.656   9.365  0.3728 -0.3915 -0.6171
31220SOL    HW194238   3.479   0.739   9.413  2.3738  1.4859 -3.2501
31220SOL    HW294239   3.438   0.670   9.284 -2.7996 -3.4263  0.4777
31221SOL     OW94240   3.020   6.129   7.526  0.2168 -0.3386 -0.4611
31221SOL    HW194241   3.059   6.181   7.595  1.4832 -0.4167 -1.0886
31221SOL    HW294242   3.085   6.060   7.508 -0.5972 -1.0084 -0.9209
31222SOL     OW94243   4.396   8.087   8.191 -0.2477  0.7505  0.3747
31222SOL    HW194244   4.381   8.103   8.098  0.0650 -0.0029  0.1894
31222SOL    HW294245   4.489   8.103   8.203 -0.0282 -0.3935  0.2857
31223SOL     OW94246   5.541   7.841   7.529 -0.0457 -0.0194  0.2723
31223SOL    HW194247   5.603   7.911   7.550  0.5487 -0.2174 -0.7720
31223SOL    HW294248   5.556   7.775   7.596  1.3723 -0.3616 -0.3315
31224SOL     OW94249   1.546   3.460   4.504  0.7504 -0.1554 -0.6010
31224SOL    HW194250   1.508   3.395   4.445  0.9594 -0.2772 -0.6046
31224SOL    HW294251   1.492   3.457   4.582  0.1735  0.3558 -0.9752
31225SOL     OW94252   2.101   2.177   1.709  0.2710  0.2460 -0.0441
31225SOL    HW194253   2.016   2.218   1.719 -0.2338 -0.5190 -0.9887
31225SOL    HW294254   2.124   2.191   1.617  1.3509  0.7863  0.2950
31226SOL     OW94255   6.297   7.426   7.043 -0.6504 -0.1077 -0.2071
31226SOL    HW194256   6.214   7.379   7.051 -1.3306  1.2838  1.5318
31226SOL    HW294257   6.278   7.514   7.075  1.9706 -0.3021  2.2271
31227SOL     OW94258   5.911   8.651   3.172 -0.0827  0.2437 -0.0152
31227SOL    HW194259   5.835   8.596   3.155  0.8831 -1.0461 -0.3404
31227SOL    HW294260   5.983   8.589   3.187  0.8293  1.4166  0.6750
31228SOL     OW94261   3.719   1.047   1.434  0.2686  0.0343 -0.0706
31228SOL    HW194262   3.705   1.091   1.517 -0.2546 -1.2577  0.5542
31228SOL    HW294263   3.635   1.055   1.388  0.9009  1.7551 -1.0027
31229SOL     OW94264   9.783   0.587   5.122 -0.0520  0.1136  0.4724
31229SOL    HW194265   9.822   0.518   5.176  0.1383 -0.0452  0.1370
31229SOL    HW294266   9.743   0.539   5.048 -0.5660  0.3026  0.6218
31230SOL     OW94267   9.524   0.274   9.837  0.0061  0.4722 -0.0731
31230SOL    HW194268   9.434   0.297   9.814 -0.6536 -0.4527  1.4781
31230SOL    HW294269   9.554   0.346   9.893  0.3860  0.9676 -0.8929
31231SOL     OW94270   0.489   9.418   9.925 -0.4723  0.4922 -0.4461
31231SOL    HW194271   0.464   9.336   9.882  0.4488  0.7638 -1.5557
31231SOL    HW294272   0.425   9.429   9.995  0.9138 -2.5265  1.4698
31232SOL     OW94273   5.923   8.764   5.033  0.3342 -0.4748 -0.0581
31232SOL    HW194274   5.957   8.843   5.075 -1.5220  0.3147  0.0672
31232SOL    HW294275   5.883   8.715   5.104 -0.6054 -0.3469 -0.4746
31233SOL     OW94276   8.488   2.841   6.326  0.0240  0.1425 -0.1342
31233SOL    HW194277   8.582   2.828   6.324  0.1125  0.6784  0.3865
31233SOL    HW294278   8.464   2.855   6.234  0.6329  1.1933 -0.1531
31234SOL     OW94279   2.703   4.709   6.573 -0.6194  0.1846 -0.9604
31234SOL    HW194280   2.784   4.658   6.584  0.0868  0.8490 -2.6800
31234SOL    HW294281   2.633   4.649   6.598  0.1754 -1.6964 -2.8628
31235SOL     OW94282   1.472   6.443   0.272  0.2143  0.0841  0.2485
31235SOL    HW194283   1.558   6.481   0.254  0.3937 -0.5610 -0.2964
31235SOL    HW294284   1.457   6.462   0.365  0.7872  0.5154  0.2595
31236SOL     OW94285   4.938   6.476   5.975 -0.1313 -0.4128  0.6730
31236SOL    HW194286   4.914   6.557   5.930  0.0193 -0.7781 -0.0843
31236SOL    HW294287   4.882   6.474   6.053 -1.2649 -0.3508 -0.1165
31237SOL     OW94288   1.021   2.387   1.333 -0.6336  0.1758 -0.5478
31237SOL    HW194289   0.938   2.434   1.338 -0.2081  1.0769 -1.4989
31237SOL    HW294290   1.028   2.342   1.417 -1.6856  0.7588 -0.1246
31238SOL     OW94291   5.360   4.606   0.449 -0.0330  0.3249 -0.1154
31238SOL    HW194292   5.455   4.615   0.463  0.0971 -0.2744 -0.5801
31238SOL    HW294293   5.345   4.512   0.452 -0.4094  0.3405 -1.3563
31239SOL     OW94294   9.412   9.436   7.266 -0.5341  0.0990 -0.2457
31239SOL    HW194295   9.446   9.351   7.236 -0.3862  0.3144 -0.7035
31239SOL    HW294296   9.487   9.496   7.259 -0.3838  0.0756  0.9565
31240SOL     OW94297   9.392   8.468   5.151 -0.4170 -0.3489 -0.1752
31240SOL    HW194298   9.468   8.419   5.182 -0.0084  0.5350  0.2291
31240SOL    HW294299   9.407   8.478   5.057  0.5326  0.7819  0.0781
31241SOL     OW94300   0.696   4.741   2.332  0.0522 -0.7760  0.5385
31241SOL    HW194301   0.677   4.667   2.274 -0.5087  0.2700 -0.6766
31241SOL    HW294302   0.613   4.758   2.377 -0.0902 -0.3185  0.1170
31242SOL     OW94303   6.920   3.778   5.780  0.1464 -0.2505  0.5736
31242SOL    HW194304   6.982   3.825   5.836 -1.0530  0.8623  1.0139
31242SOL    HW294305   6.844   3.835   5.775 -0.5573 -1.2360 -0.5889
31243SOL     OW94306   6.165   4.817   1.346 -0.0026 -0.5529  0.0817
31243SOL    HW194307   6.156   4.778   1.433  1.7554  1.1166  1.1034
31243SOL    HW294308   6.238   4.769   1.306  0.1157 -0.3886  0.0998
31244SOL     OW94309   0.074   8.539   8.711 -0.2603  0.1404 -0.5147
31244SOL    HW194310   0.090   8.446   8.726  0.6487  0.6224  2.1258
31244SOL    HW294311   0.098   8.580   8.794  1.1455  2.9530 -2.1937
31245SOL     OW94312   4.401   4.171   6.666 -0.4134 -0.0286 -0.7089
31245SOL    HW194313   4.454   4.097   6.637 -0.8183 -0.1678 -1.1053
31245SOL    HW294314   4.400   4.230   6.590 -1.2793 -0.2819 -0.8998
31246SOL     OW94315   9.339   3.509   8.940  0.3072 -0.4777 -0.9526
31246SOL    HW194316   9.262   3.484   8.990 -0.0432 -0.7005 -1.5992
31246SOL    HW294317   9.411   3.504   9.004 -0.2703  0.2148 -0.2253
31247SOL     OW94318   7.178   5.462   3.141  0.2205  0.3030 -0.2592
31247SOL    HW194319   7.196   5.413   3.061  1.8719 -0.4521  0.5367
31247SOL    HW294320   7.110   5.411   3.185  1.7209 -1.1955  0.4230
31248SOL     OW94321   8.509   6.869   5.161 -0.6354  0.2427 -0.7027
31248SOL    HW194322   8.534   6.780   5.185 -0.8639  0.2287 -0.5179
31248SOL    HW294323   8.525   6.874   5.067  0.4165  0.3495 -0.5253
31249SOL     OW94324   0.571   8.739   5.346  0.3435  0.1915 -0.2506
31249SOL    HW194325   0.624   8.687   5.286 -0.6509 -0.0282 -0.9559
31249SOL    HW294326   0.620   8.737   5.429  0.5689 -1.4692 -0.3920
31250SOL     OW94327   8.666   0.237   6.624  0.5687  0.3582  0.1075
31250SOL    HW194328   8.571   0.227   6.632  0.3239 -0.2606 -2.5315
31250SOL    HW294329   8.680   0.331   6.618  0.0802  0.4343  0.1049
31251SOL     OW94330   6.583   4.379   4.531  0.5329 -0.4529 -0.3150
31251SOL    HW194331   6.505   4.346   4.575 -1.1164  0.6714 -2.2253
31251SOL    HW294332   6.631   4.301   4.505  0.0887 -1.1646  0.9125
31252SOL     OW94333   7.333   0.643   8.763 -0.1826 -0.2579  0.2045
31252SOL    HW194334   7.296   0.729   8.743  0.2925 -0.2527 -0.7209
31252SOL    HW294335   7.260   0.582   8.746 -0.3467 -0.0862  0.2882
31253SOL     OW94336   0.446   1.645   3.671 -0.0993 -0.4899 -0.1025
31253SOL    HW194337   0.444   1.631   3.576 -2.1969 -0.6692 -0.0741
31253SOL    HW294338   0.400   1.728   3.684 -1.9911 -1.6409  0.8934
31254SOL     OW94339   8.815   1.057   2.400 -0.2679  0.0948  0.1715
31254SOL    HW194340   8.777   1.050   2.312 -0.0989 -0.5918  0.1475
31254SOL    HW294341   8.795   1.146   2.428  0.4438  0.6151 -0.9188
31255SOL     OW94342   4.174   6.051   0.958  0.0854  0.6168 -0.4740
31255SOL    HW194343   4.227   5.975   0.980 -1.3833  0.1145  1.6710
31255SOL    HW294344   4.222   6.125   0.996 -0.9494  0.0873  2.0842
31256SOL     OW94345   6.232   7.431   9.499  0.2042  0.3505  0.3055
31256SOL    HW194346   6.284   7.364   9.543  0.4060  0.8793  0.8822
31256SOL    HW294347   6.180   7.472   9.568  0.2144  0.9117 -0.0070
31257SOL     OW94348   3.794   7.272   3.235  0.0231  0.0049  0.1466
31257SOL    HW194349   3.808   7.239   3.147 -0.2306 -1.0200  0.4804
31257SOL    HW294350   3.714   7.325   3.229  0.0879  0.0580 -0.2631
31258SOL     OW94351   2.868   1.810   3.061  0.8118 -0.1512  0.3693
31258SOL    HW194352   2.823   1.888   3.029  0.9780  0.5122  1.6890
31258SOL    HW294353   2.813   1.778   3.132  0.4315 -1.6176 -0.5249
31259SOL     OW94354   3.712   8.061   7.535  0.0342 -0.1375 -0.5799
31259SOL    HW194355   3.680   8.148   7.556  0.7065  0.3907 -1.6365
31259SOL    HW294356   3.641   8.002   7.560 -0.8557  0.8049 -0.8291
31260SOL     OW94357   1.098   5.879   2.632 -0.0596  0.0805  0.3906
31260SOL    HW194358   1.053   5.899   2.549  1.7545  0.2126 -0.6085
31260SOL    HW294359   1.071   5.949   2.691  0.3794  1.3042 -0.7894
31261SOL     OW94360   2.368   9.272   4.681  0.5694 -0.1199 -0.2647
31261SOL    HW194361   2.458   9.267   4.648  0.6158  1.4123 -0.4457
31261SOL    HW294362   2.375   9.254   4.774  1.0131 -0.3370 -0.3368
31262SOL     OW94363   1.446   8.819   3.665 -0.2477  0.1753 -0.2830
31262SOL    HW194364   1.498   8.891   3.702  0.7421 -0.6174 -0.1104
31262SOL    HW294365   1.415   8.770   3.741 -1.5261  0.7961 -0.3659
31263SOL     OW94366   0.673   4.457   2.565  0.4836  0.3463  0.2729
31263SOL    HW194367   0.729   4.413   2.501  0.0994 -0.2199  0.3233
31263SOL    HW294368   0.722   4.536   2.588  1.6521 -0.5196  0.9001
31264SOL     OW94369   6.529   4.470   3.641  0.2002 -0.1181  0.1179
31264SOL    HW194370   6.553   4.562   3.638  0.9789 -0.3404 -1.3431
31264SOL    HW294371   6.553   4.442   3.729  0.1775  1.0026  0.4995
31265SOL     OW94372   4.926   8.408   0.649  0.0317 -0.1286 -0.0906
31265SOL    HW194373   4.967   8.332   0.690 -0.0848 -0.0180  0.2360
31265SOL    HW294374   4.975   8.422   0.568  1.2353  0.5387  0.7150
31266SOL     OW94375   0.989   6.997   1.927  0.2411 -0.0762  0.2072
31266SOL    HW194376   1.041   6.990   1.847 -0.0229 -1.3889  0.1318
31266SOL    HW294377   0.928   7.069   1.910 -0.3708 -0.8736 -1.1172
31267SOL     OW94378   3.870   8.044   2.281 -0.1949  0.2092 -0.9210
31267SOL    HW194379   3.837   8.095   2.207 -0.8615  0.6591 -0.3245
31267SOL    HW294380   3.915   8.107   2.336  1.6010 -0.3809 -1.6630
31268SOL     OW94381   5.014   5.622   1.314 -0.0827  0.0133 -0.4027
31268SOL    HW194382   4.997   5.675   1.391  0.6118 -0.0024 -0.2317
31268SOL    HW294383   4.970   5.668   1.242  0.7663  0.9957 -0.3111
31269SOL     OW94384   7.941   6.709   2.882  0.4688  0.8046 -0.5905
31269SOL    HW194385   7.984   6.699   2.796 -2.0822 -0.4999 -1.8112
31269SOL    HW294386   7.916   6.620   2.907 -1.1976  1.4580  0.2086
31270SOL     OW94387   9.651   5.572   6.077 -0.6045  0.8081  0.2590
31270SOL    HW194388   9.613   5.634   6.139  2.3012  1.0728  1.9686
31270SOL    HW294389   9.647   5.488   6.122  0.0451  0.7085  0.1473
31271SOL     OW94390   7.380   3.409   2.843  0.1266 -0.1831  0.4155
31271SOL    HW194391   7.438   3.333   2.849 -1.5743 -1.5977 -0.1887
31271SOL    HW294392   7.352   3.410   2.752  1.3725  2.2052 -0.0100
31272SOL     OW94393   2.235   0.083   8.311 -0.5127  0.0479  0.5245
31272SOL    HW194394   2.323   0.100   8.343 -0.6000 -1.8146  1.9178
31272SOL    HW294395   2.200   0.170   8.290  1.2795  0.9096  0.8841
31273SOL     OW94396   6.413   0.996   8.147  0.0974  0.2803  0.0235
31273SOL    HW194397   6.403   1.028   8.057  1.5341  0.3091 -0.1575
31273SOL    HW294398   6.446   1.072   8.195  2.1835 -0.4722 -0.1049
31274SOL     OW94399   6.357   5.895   5.157  0.6273 -0.2240  0.2561
31274SOL    HW194400   6.404   5.946   5.091 -0.0890 -1.5100 -1.2867
31274SOL    HW294401   6.265   5.919   5.146  0.6119  0.4229  1.6014
31275SOL     OW94402   8.647   0.645   2.713 -0.1800  0.2936  0.2425
31275SOL    HW194403   8.639   0.585   2.639 -1.0073 -0.7145  1.1174
31275SOL    HW294404   8.662   0.731   2.673  0.4811 -0.3897 -1.0509
31276SOL     OW94405   1.474   0.519   3.493 -0.1769 -0.3875  0.4695
31276SOL    HW194406   1.433   0.572   3.425  0.8594 -0.9967 -0.6756
31276SOL    HW294407   1.416   0.528   3.569 -1.0787  0.7396 -0.3160
31277SOL     OW94408   8.961   3.466   9.245  0.2876  0.9779 -0.1341
31277SOL    HW194409   8.999   3.536   9.299  1.4636  1.2580 -1.2887
31277SOL    HW294410   9.035   3.429   9.197 -0.7194  0.7659 -1.5880
31278SOL     OW94411   5.914   3.903   5.847  0.0130  0.1680  0.7763
31278SOL    HW194412   5.819   3.889   5.845 -0.3208  1.9626  1.7661
31278SOL    HW294413   5.944   3.880   5.759 -1.1239 -1.6427  0.8041
31279SOL     OW94414   6.653   1.907   0.671 -0.1136 -0.0325 -0.0240
31279SOL    HW194415   6.695   1.992   0.687 -0.5006  0.0516  0.5517
31279SOL    HW294416   6.576   1.907   0.728  1.3010 -1.8487  2.0114
31280SOL     OW94417   7.746   5.557   1.128 -0.0526  0.0719 -0.7470
31280SOL    HW194418   7.675   5.495   1.142  0.3079 -0.5621 -1.6675
31280SOL    HW294419   7.702   5.639   1.105 -0.5052  0.0066 -0.1605
31281SOL     OW94420   6.235   0.906   3.532  0.0147 -0.1453 -0.0037
31281SOL    HW194421   6.186   0.987   3.544  1.0161  0.1529  2.6804
31281SOL    HW294422   6.174   0.837   3.557  0.0585  0.0174  0.5679
31282SOL     OW94423   0.179   9.182   5.377  0.2720 -0.0539  0.0412
31282SOL    HW194424   0.115   9.110   5.375  0.8603 -0.5823  0.0823
31282SOL    HW294425   0.244   9.157   5.312  0.0341  0.8717 -0.5728
31283SOL     OW94426   7.337   4.172   9.060 -0.1423  0.5325 -0.5355
31283SOL    HW194427   7.336   4.102   9.126 -0.5555  1.3666  0.3750
31283SOL    HW294428   7.278   4.142   8.992  0.1590 -0.2773 -0.4549
31284SOL     OW94429   9.717   3.872   3.032  0.5282 -0.1185 -0.1425
31284SOL    HW194430   9.749   3.821   2.958 -2.3834 -2.7316  0.1688
31284SOL    HW294431   9.714   3.808   3.104  0.0724  1.4622  1.2959
31285SOL     OW94432   9.012   5.703   7.541  0.6264  0.6405 -0.2012
31285SOL    HW194433   9.013   5.741   7.453 -0.1732  0.0951 -0.4587
31285SOL    HW294434   9.100   5.719   7.575  0.4744  2.2848 -0.4860
31286SOL     OW94435   7.494   0.405   6.468  0.3852 -0.4538 -0.2497
31286SOL    HW194436   7.476   0.447   6.552  1.5084  0.3970 -0.4134
31286SOL    HW294437   7.408   0.386   6.431 -0.1332  0.6828  0.3378
31287SOL     OW94438   1.007   2.943   0.253 -0.1751  0.0858 -0.2125
31287SOL    HW194439   1.103   2.935   0.247 -0.0820 -0.4222  1.5833
31287SOL    HW294440   0.980   2.870   0.308 -1.7734 -0.5265 -1.6980
31288SOL     OW94441   5.121   6.785   3.155 -0.0874 -0.0770  0.7422
31288SOL    HW194442   5.169   6.758   3.234  1.5840  1.9133  0.4748
31288SOL    HW294443   5.095   6.703   3.114 -0.0485 -1.1782  2.7755
31289SOL     OW94444   9.512   3.931   8.483 -0.7087  0.0258 -0.0566
31289SOL    HW194445   9.541   3.840   8.490  1.1024  0.2396 -3.0881
31289SOL    HW294446   9.570   3.979   8.543 -1.0046 -0.6752  0.8038
31290SOL     OW94447   6.414   9.355   3.235 -0.3835  0.0902 -0.3795
31290SOL    HW194448   6.430   9.261   3.235  2.5237  0.4733 -1.8444
31290SOL    HW294449   6.358   9.370   3.159  1.3333 -0.2619 -1.7891
31291SOL     OW94450   2.380   9.262   5.707 -0.1103  0.0183  0.4868
31291SOL    HW194451   2.374   9.282   5.614 -0.8840  1.4225  0.8060
31291SOL    HW294452   2.289   9.262   5.737  0.2189  1.3788  1.5743
31292SOL     OW94453   3.082   7.552   8.313  0.3383 -0.1377 -0.0757
31292SOL    HW194454   3.136   7.484   8.352  0.7089 -0.5955 -1.3370
31292SOL    HW294455   2.999   7.508   8.294  0.2668 -0.0024 -0.0763
31293SOL     OW94456   7.194   5.569   7.044 -0.2569  0.0184  0.4312
31293SOL    HW194457   7.226   5.484   7.073 -0.0189 -0.1743 -0.3756
31293SOL    HW294458   7.100   5.556   7.030 -0.9846  0.8456  3.7733
31294SOL     OW94459   2.090   8.849   0.659  0.1241  0.3137  0.0921
31294SOL    HW194460   2.067   8.886   0.573 -0.5889  1.2864  0.6815
31294SOL    HW294461   2.074   8.921   0.721 -0.4048 -0.7029  1.1649
31295SOL     OW94462   2.531   7.672   0.540 -1.1316 -0.2964 -0.5634
31295SOL    HW194463   2.462   7.722   0.497  0.2567 -0.4236 -3.1379
31295SOL    HW294464   2.565   7.614   0.472  3.2937  1.6029 -0.3113
31296SOL     OW94465   6.062   1.984   4.301 -0.2682  0.0567 -1.0024
31296SOL    HW194466   5.986   1.927   4.292  0.4005 -0.9657 -0.4337
31296SOL    HW294467   6.118   1.961   4.227  0.4286 -0.7279 -0.2551
31297SOL     OW94468   6.688   2.173   7.527  0.1800 -0.5434 -0.3836
31297SOL    HW194469   6.677   2.166   7.622  1.1211  0.6041 -0.1608
31297SOL    HW294470   6.777   2.206   7.516 -1.1250  3.2095 -1.4283
31298SOL     OW94471   3.346   2.624   2.519  0.0630  0.1368 -0.3102
31298SOL    HW194472   3.360   2.550   2.460 -1.1018 -0.6085  0.3421
31298SOL    HW294473   3.254   2.619   2.544  0.0855  1.5182  0.1419
31299SOL     OW94474   4.372   8.445   3.550 -0.2237 -0.1889  0.1911
31299SOL    HW194475   4.353   8.460   3.457  0.7663  4.1178  0.4767
31299SOL    HW294476   4.465   8.420   3.551  0.4217  1.9477 -0.0006
31300SOL     OW94477   9.815   1.198   7.184  0.1060 -0.3950 -0.3780
31300SOL    HW194478   9.869   1.218   7.107  0.3994 -0.3389 -0.1588
31300SOL    HW294479   9.725   1.212   7.154  0.2926  1.3606 -0.2146
31301SOL     OW94480   5.635   5.812   1.614  0.0430 -0.0236 -0.1550
31301SOL    HW194481   5.562   5.757   1.642  0.3579 -1.1873 -1.4848
31301SOL    HW294482   5.703   5.797   1.680 -0.9161  1.1489  1.1473
31302SOL     OW94483   9.401   4.211   5.266 -0.3356 -0.4150  0.0394
31302SOL    HW194484   9.497   4.208   5.255 -0.1725 -2.0515  1.5594
31302SOL    HW294485   9.383   4.147   5.334 -2.6023 -0.5032 -0.5963
31303SOL     OW94486   9.630   4.276   0.002  0.1424  0.0445 -0.1142
31303SOL    HW194487   9.617   4.365   0.034 -1.1622 -0.3525  0.5453
31303SOL    HW294488   9.723   4.258   0.017 -0.0115  0.5678  1.7277
31304SOL     OW94489   8.200   3.321   4.996 -0.3193 -0.2858  0.0072
31304SOL    HW194490   8.203   3.415   5.012  0.8286 -0.4043  0.5841
31304SOL    HW294491   8.138   3.288   5.062 -0.9178  0.0807 -0.3591
31305SOL     OW94492   5.673   3.993   2.734  0.0525  0.0077  0.0014
31305SOL    HW194493   5.704   4.041   2.657  0.2110 -0.5117 -0.2606
31305SOL    HW294494   5.602   3.938   2.702  0.4304 -0.5610  0.1284
31306SOL     OW94495   5.128   6.732   8.399 -0.2160  0.0590 -0.6507
31306SOL    HW194496   5.218   6.762   8.387 -0.3627  0.7977  0.0037
31306SOL    HW294497   5.130   6.681   8.479 -0.7131  1.6429  0.4215
31307SOL     OW94498   8.005   6.233   2.550 -0.0365  0.5040  0.4540
31307SOL    HW194499   8.098   6.235   2.530 -0.2456  1.3696 -0.5493
31307SOL    HW294500   7.990   6.146   2.588  1.1915  0.4099  0.7552
31308SOL     OW94501   7.285   0.888   2.530  0.4359 -0.2982  0.6700
31308SOL    HW194502   7.194   0.864   2.511  0.6334  0.3563 -1.3898
31308SOL    HW294503   7.337   0.829   2.476  1.1416  0.6546  0.2820
31309SOL     OW94504   1.861   8.411   3.305  0.3510  0.2627  0.8298
31309SOL    HW194505   1.902   8.349   3.244  0.4369  1.1317 -0.0165
31309SOL    HW294506   1.767   8.396   3.294  0.3750  0.1620  0.7568
31310SOL     OW94507   2.329   5.412   8.217  0.3005  0.6240  0.3176
31310SOL    HW194508   2.298   5.325   8.239 -1.7078  1.3431  0.5218
31310SOL    HW294509   2.389   5.435   8.289 -0.0621 -0.1281  0.8722
31311SOL     OW94510   4.788   7.959   1.837 -0.5879  0.3038 -0.2083
31311SOL    HW194511   4.834   7.970   1.921 -0.7023 -0.1262 -0.0856
31311SOL    HW294512   4.696   7.965   1.860 -0.6550 -0.7390 -0.1517
31312SOL     OW94513   1.510   9.741   4.407 -0.3963  0.2114  0.0606
31312SOL    HW194514   1.477   9.769   4.321  0.6170  1.1517 -0.0329
31312SOL    HW294515   1.605   9.751   4.401 -0.3437  0.7402  1.4405
31313SOL     OW94516   8.701   3.079   7.608 -0.7917  0.1144 -0.0937
31313SOL    HW194517   8.701   2.983   7.599 -0.2171  0.1996 -1.0897
31313SOL    HW294518   8.672   3.111   7.523 -2.9881  0.8148  0.8460
31314SOL     OW94519   9.164   9.467   7.198  0.1230 -0.0499 -0.4210
31314SOL    HW194520   9.249   9.451   7.237  0.4128  2.1156 -0.0448
31314SOL    HW294521   9.183   9.512   7.116 -0.6350 -0.7749 -1.0174
31315SOL     OW94522   5.733   2.899   7.181 -0.7460  0.1157  0.1844
31315SOL    HW194523   5.805   2.895   7.118 -0.2314  1.3760  0.6681
31315SOL    HW294524   5.655   2.880   7.129 -0.1740 -0.3549 -0.5269
31316SOL     OW94525   8.119   4.335   1.178 -0.1606 -0.0323  0.5457
31316SOL    HW194526   8.056   4.390   1.131 -1.4366  0.1951  2.3949
31316SOL    HW294527   8.192   4.324   1.117 -0.2927  2.8751 -0.2795
31317SOL     OW94528   3.392   8.296   8.160 -0.3016 -0.3920  0.4315
31317SOL    HW194529   3.423   8.207   8.178  0.7180 -0.1384  0.0066
31317SOL    HW294530   3.365   8.330   8.245  1.4795 -0.2976  0.9848
31318SOL     OW94531   0.046   7.517   6.164 -0.1826 -0.4122  0.2848
31318SOL    HW194532   0.074   7.441   6.113  0.7094  0.5612 -0.7327
31318SOL    HW294533  -0.036   7.490   6.205  0.5930 -2.2500  0.7246
31319SOL     OW94534   2.190   9.163   6.942  0.5200 -0.4520 -0.6599
31319SOL    HW194535   2.099   9.175   6.969  0.4146 -0.7832 -0.8562
31319SOL    HW294536   2.234   9.127   7.019  1.0394  1.9038  0.2317
31320SOL     OW94537   8.409   5.260   3.976 -0.3551  0.3718 -0.4204
31320SOL    HW194538   8.364   5.291   3.898 -0.9375 -0.3791 -0.3833
31320SOL    HW294539   8.357   5.187   4.008  0.5017 -0.0670  0.0223
31321SOL     OW94540   0.044   1.064   7.656 -0.0949  0.4033 -0.2988
31321SOL    HW194541   0.095   1.115   7.594  0.3456 -0.5404 -0.7448
31321SOL    HW294542  -0.023   1.021   7.602  0.4827 -0.6665 -0.2050
31322SOL     OW94543   5.503   4.180   9.272  0.5977  0.2331 -0.0096
31322SOL    HW194544   5.443   4.189   9.347  2.0692  0.1259  1.2169
31322SOL    HW294545   5.496   4.264   9.227 -0.5055  0.2100  0.0695
31323SOL     OW94546   3.253   9.068   3.702  0.2558  0.1987 -0.3875
31323SOL    HW194547   3.205   9.091   3.622  0.0613 -0.3951 -0.4462
31323SOL    HW294548   3.186   9.071   3.770 -0.0755 -1.4237 -0.5909
31324SOL     OW94549   8.771   7.595   5.969 -0.0727 -0.2340  0.4467
31324SOL    HW194550   8.836   7.533   6.003  1.6261  0.6387 -0.9955
31324SOL    HW294551   8.707   7.604   6.039  0.4869 -2.3762  1.3240
31325SOL     OW94552   8.302   7.271   9.020 -0.1088 -0.0228  0.0934
31325SOL    HW194553   8.390   7.249   9.051 -0.4132 -2.0744 -0.3547
31325SOL    HW294554   8.316   7.311   8.934  0.3841 -0.7280 -0.1644
31326SOL     OW94555   9.600   7.908   6.189  0.1036  0.3036  0.6403
31326SOL    HW194556   9.534   7.896   6.121  0.4659  0.6053  0.2356
31326SOL    HW294557   9.668   7.843   6.168 -0.6994 -0.9924  1.8620
31327SOL     OW94558   1.755   7.826   8.954 -0.0511  0.1801 -0.2306
31327SOL    HW194559   1.821   7.757   8.949  0.6753  0.5988  2.1479
31327SOL    HW294560   1.805   7.907   8.966 -0.9514  0.5640  1.1749
31328SOL     OW94561   2.646   4.107   5.093  0.1465 -0.0235  0.0668
31328SOL    HW194562   2.700   4.183   5.071 -0.3380  1.7032  3.9014
31328SOL    HW294563   2.699   4.032   5.068  4.3209  1.5348  3.0377
31329SOL     OW94564   7.570   8.515   2.992 -0.2827  0.4709  0.0497
31329SOL    HW194565   7.640   8.558   3.040 -0.8105  1.6423 -0.2063
31329SOL    HW294566   7.598   8.424   2.985  0.9076  0.7925  0.4970
31330SOL     OW94567   1.401   1.833   3.742  0.3492 -0.4175 -0.1063
31330SOL    HW194568   1.355   1.897   3.688  0.0645 -0.4843  0.0528
31330SOL    HW294569   1.391   1.866   3.832 -1.3320 -1.5816  0.1897
31331SOL     OW94570   3.959   4.456   7.033 -0.1867  0.5998 -0.1217
31331SOL    HW194571   4.002   4.535   7.064  1.1251  0.1099 -0.6174
31331SOL    HW294572   3.917   4.482   6.951  0.4674  0.7154 -0.4202
31332SOL     OW94573   3.785   1.014   9.869 -1.0548  0.2523  0.1067
31332SOL    HW194574   3.839   1.015   9.949 -0.4530 -0.4795 -0.2810
31332SOL    HW294575   3.786   1.105   9.839 -1.6071  0.6175  1.1345
31333SOL     OW94576   3.475   3.349   1.079  0.0654  0.1041  0.6787
31333SOL    HW194577   3.438   3.323   0.994  2.2061  0.6711 -0.4913
31333SOL    HW294578   3.483   3.444   1.073  0.1016  0.1629  1.6049
31334SOL     OW94579   9.647   4.989   5.810 -0.4143 -0.5867  0.1955
31334SOL    HW194580   9.564   4.955   5.843 -0.4630 -0.8226 -0.1646
31334SOL    HW294581   9.623   5.048   5.739 -0.2912 -0.3662  0.3349
31335SOL     OW94582   0.243   5.696   8.485  0.3169 -0.3104 -0.2820
31335SOL    HW194583   0.169   5.757   8.483 -0.4960 -1.1143  2.1978
31335SOL    HW294584   0.296   5.725   8.559  0.6341 -1.8054  0.0997
31336SOL     OW94585   1.733   4.623   0.513  0.2322  0.4211 -0.0417
31336SOL    HW194586   1.715   4.574   0.594 -0.9371 -2.1218 -1.7002
31336SOL    HW294587   1.663   4.688   0.508 -0.1007  0.1241  0.6483
31337SOL     OW94588   7.271   9.247   4.272  0.2203  0.5715  0.3486
31337SOL    HW194589   7.337   9.183   4.299  0.7448  1.1103  0.3902
31337SOL    HW294590   7.297   9.271   4.183 -0.3319  0.2784  0.1038
31338SOL     OW94591   5.992   8.773   0.426  0.3494 -0.4310 -0.6819
31338SOL    HW194592   6.045   8.814   0.495  0.2985 -0.3313 -0.7014
31338SOL    HW294593   5.917   8.736   0.472  0.9286 -1.4398 -0.5267
31339SOL     OW94594   5.525   4.403   4.721 -0.1255 -0.3905  0.6219
31339SOL    HW194595   5.441   4.359   4.711 -0.0172 -0.1716 -2.2384
31339SOL    HW294596   5.588   4.331   4.728 -0.3484 -0.6177  0.3584
31340SOL     OW94597   0.025   7.741   6.745  0.0862 -0.5896  0.3896
31340SOL    HW194598  -0.023   7.761   6.826 -5.3922 -1.7084 -2.0925
31340SOL    HW294599   0.009   7.647   6.731  2.1800 -0.7697 -1.3287
31341SOL     OW94600   2.342   1.488   7.364  0.2738 -0.4354  0.2083
31341SOL    HW194601   2.391   1.502   7.283 -0.9459 -0.1911 -0.5149
31341SOL    HW294602   2.297   1.572   7.379 -0.8933 -1.0215  0.1508
31342SOL     OW94603   1.485   6.446   3.976  0.2835  0.3343  0.2310
31342SOL    HW194604   1.563   6.473   3.928 -0.2712  3.4384  0.8741
31342SOL    HW294605   1.416   6.443   3.909  0.0172  2.3220  0.3527
31343SOL     OW94606   0.853   8.991   3.296 -0.1228 -0.2988  0.2082
31343SOL    HW194607   0.929   8.943   3.329 -0.0347 -0.6972 -0.5619
31343SOL    HW294608   0.833   9.055   3.365  1.6878  0.6626 -0.0996
31344SOL     OW94609   2.914   5.543   7.872 -0.2833  0.0060 -0.3566
31344SOL    HW194610   2.913   5.534   7.968 -0.1199 -1.0431 -0.4379
31344SOL    HW294611   2.870   5.626   7.855 -0.6679  0.0112  0.6117
31345SOL     OW94612   3.406   2.115   5.613  0.5206 -0.1563 -0.3048
31345SOL    HW194613   3.338   2.050   5.633  1.5943 -1.2002  0.0697
31345SOL    HW294614   3.382   2.148   5.527 -0.2382 -0.8101 -0.3609
31346SOL     OW94615   5.232   3.717   0.284 -0.0943 -0.3213  0.2015
31346SOL    HW194616   5.199   3.658   0.216 -0.0667  0.1958 -0.2636
31346SOL    HW294617   5.292   3.776   0.238 -1.7200  1.4353  0.2230
31347SOL     OW94618   1.963   8.826   9.056  0.6579  0.0517 -0.2213
31347SOL    HW194619   1.884   8.868   9.023 -0.9649 -1.0892  1.9657
31347SOL    HW294620   1.977   8.752   8.998 -0.4245 -0.2551 -0.1079
31348SOL     OW94621   1.319   5.435   6.826  0.3234  0.0778 -0.3822
31348SOL    HW194622   1.294   5.478   6.909 -2.6900  0.8877 -1.5666
31348SOL    HW294623   1.375   5.362   6.853  0.6404  1.1539  2.2226
31349SOL     OW94624   6.531   6.476   8.386 -0.2534  0.9752 -0.7378
31349SOL    HW194625   6.594   6.456   8.317  0.6983  1.6587 -0.0875
31349SOL    HW294626   6.455   6.422   8.365  1.1207 -1.1080 -0.6516
31350SOL     OW94627   9.609   7.015   0.064 -0.1716  0.1764  0.3146
31350SOL    HW194628   9.694   7.039   0.028 -0.3302  0.8438  0.3690
31350SOL    HW294629   9.552   7.089   0.043 -0.3557  0.4386  1.6146
31351SOL     OW94630   8.791   8.850   6.199 -0.0074  0.0247  0.0175
31351SOL    HW194631   8.713   8.898   6.226  0.3643  0.8321 -0.2964
31351SOL    HW294632   8.773   8.823   6.109  0.5045  1.2254 -0.4797
31352SOL     OW94633   7.157   6.760   6.908  0.2807  0.1081 -0.1619
31352SOL    HW194634   7.101   6.835   6.929  0.1942  0.1336 -0.4674
31352SOL    HW294635   7.103   6.706   6.850  1.6492  1.7637 -3.2466
31353SOL     OW94636   7.716   8.612   3.461 -0.4173  0.3893  0.2230
31353SOL    HW194637   7.749   8.534   3.507  0.3469  0.3827 -0.3137
31353SOL    HW294638   7.639   8.580   3.413  0.4055 -0.2563 -0.6981
31354SOL     OW94639   4.270   6.860   1.029 -0.4918 -0.4968 -0.5115
31354SOL    HW194640   4.202   6.829   1.090  0.1600 -0.1731  0.4116
31354SOL    HW294641   4.229   6.932   0.982 -2.0910 -2.7091 -2.7910
31355SOL     OW94642   4.776   4.710   9.248  0.3581 -0.1205 -0.7828
31355SOL    HW194643   4.842   4.741   9.311 -1.8849 -0.4886  1.9695
31355SOL    HW294644   4.787   4.615   9.247 -3.4597 -1.0440  4.3097
31356SOL     OW94645   5.018   9.730   8.422 -0.2057  0.0098 -0.4509
31356SOL    HW194646   5.080   9.801   8.403 -0.9313  0.4126 -1.3741
31356SOL    HW294647   5.033   9.666   8.353 -0.1958 -0.3227 -0.1461
31357SOL     OW94648   6.638   5.987   7.865 -0.5229 -0.9091 -0.1477
31357SOL    HW194649   6.556   5.983   7.816  0.8383 -1.1302 -2.5801
31357SOL    HW294650   6.633   6.069   7.913 -2.4507 -1.2656  0.3334
31358SOL     OW94651   7.213   1.926   8.904 -0.2348 -0.3622  0.2413
31358SOL    HW194652   7.140   1.934   8.965 -0.1776  0.7113  0.1928
31358SOL    HW294653   7.192   1.988   8.834  0.1030 -0.9794 -0.4196
31359SOL     OW94654   0.982   5.320   8.399  0.0191 -0.1913  0.3944
31359SOL    HW194655   1.030   5.396   8.365  0.2567 -0.8214 -0.7355
31359SOL    HW294656   1.018   5.246   8.352 -1.3110 -0.8136  0.3090
31360SOL     OW94657   8.516   0.320   1.549 -0.1839 -0.0384  0.0470
31360SOL    HW194658   8.421   0.325   1.536  0.0705 -0.8291 -2.7418
31360SOL    HW294659   8.533   0.228   1.566  0.3744 -0.6849 -3.3916
31361SOL     OW94660   4.507   6.473   6.391 -0.3811  0.5562 -1.1175
31361SOL    HW194661   4.507   6.441   6.301  0.0303 -0.1504 -0.8691
31361SOL    HW294662   4.504   6.394   6.445  1.8220  0.8309 -0.4804
31362SOL     OW94663   2.848   4.587   0.884  0.0630  0.3294  0.7761
31362SOL    HW194664   2.844   4.506   0.834  0.7357  1.3158 -0.9935
31362SOL    HW294665   2.928   4.580   0.936  0.2549 -0.0384  0.4326
31363SOL     OW94666   6.343   0.153   7.533  0.3376 -0.4290 -0.3805
31363SOL    HW194667   6.355   0.103   7.453  2.7516  0.2958 -0.5372
31363SOL    HW294668   6.396   0.232   7.520 -0.4731  0.4462  1.3183
31364SOL     OW94669   6.925   6.730   3.833 -0.2101 -0.8053  0.5805
31364SOL    HW194670   6.983   6.804   3.849 -1.7629  0.2643  1.4887
31364SOL    HW294671   6.976   6.672   3.775  1.6593  0.1611  1.1717
31365SOL     OW94672   6.125   2.046   2.138  0.1064  0.1415 -0.4682
31365SOL    HW194673   6.034   2.072   2.125 -0.5800 -2.0370 -0.5445
31365SOL    HW294674   6.162   2.114   2.194 -1.5917  1.0192 -0.3398
31366SOL     OW94675   7.065   2.871   9.317 -0.4206  0.5839 -0.1500
31366SOL    HW194676   6.979   2.906   9.294 -1.2987 -0.4941  1.3573
31366SOL    HW294677   7.095   2.826   9.237 -0.0461  3.0853 -1.5431
31367SOL     OW94678   6.623   6.456   2.106 -0.1209  0.2560 -0.4320
31367SOL    HW194679   6.640   6.539   2.060  0.6326  1.0915  1.2717
31367SOL    HW294680   6.589   6.483   2.191 -1.3718 -1.2483 -0.4217
31368SOL     OW94681   7.428   6.041   1.794 -0.1442  0.1696  0.2115
31368SOL    HW194682   7.490   6.111   1.816  0.2375 -0.5904  1.6648
31368SOL    HW294683   7.342   6.084   1.796  0.1271  0.7106  0.5378
31369SOL     OW94684   2.575   1.535   6.024  0.2364  0.4860 -0.0780
31369SOL    HW194685   2.518   1.550   6.099  1.2988  0.5309  0.7511
31369SOL    HW294686   2.534   1.583   5.953 -1.1286 -0.0729  0.3035
31370SOL     OW94687   1.113   1.446   2.246  0.2598  0.2299 -0.2972
31370SOL    HW194688   1.048   1.449   2.317 -0.0811 -0.3949 -0.5663
31370SOL    HW294689   1.196   1.427   2.290 -0.1281 -1.2919 -0.1348
31371SOL     OW94690   4.717   1.445   6.488 -0.5156 -0.1397 -0.6662
31371SOL    HW194691   4.805   1.407   6.496 -0.4246  0.0831 -0.5957
31371SOL    HW294692   4.730   1.523   6.434 -0.2163  1.3867  1.4803
31372SOL     OW94693   7.110   7.962   2.568  0.6509 -0.2379  0.2760
31372SOL    HW194694   7.069   7.996   2.489 -1.2147 -2.5109  0.1795
31372SOL    HW294695   7.178   8.027   2.589 -0.7064  1.9017 -1.5074
31373SOL     OW94696   5.353   2.749   4.132  0.2151 -0.4164  0.0446
31373SOL    HW194697   5.437   2.728   4.091 -0.5279 -1.0636 -1.1693
31373SOL    HW294698   5.372   2.827   4.186  1.3611  0.0585 -1.0066
31374SOL     OW94699   4.892   8.249   8.964  1.3251 -0.1947  0.3631
31374SOL    HW194700   4.856   8.332   8.995  0.6555 -0.6655  0.8597
31374SOL    HW294701   4.871   8.247   8.871  2.2954  0.6796  0.1115
31375SOL     OW94702   7.254   3.842   9.059  0.9972  0.6226  0.2253
31375SOL    HW194703   7.211   3.909   9.113 -0.2822  0.4315 -0.5136
31375SOL    HW294704   7.252   3.763   9.113  0.9886  0.7749  0.4482
31376SOL     OW94705   1.040   7.547   1.570  0.1923 -0.3663 -0.4113
31376SOL    HW194706   0.995   7.514   1.648  0.6194  1.6432  0.7768
31376SOL    HW294707   1.078   7.631   1.599  1.5673 -0.2468 -2.3998
31377SOL     OW94708   8.795   8.823   4.915 -0.0633  0.5054  0.6099
31377SOL    HW194709   8.747   8.786   4.990 -1.1526  0.9354  0.1489
31377SOL    HW294710   8.729   8.872   4.867  0.3896 -0.5379 -1.1602
31378SOL     OW94711   5.605   6.533   5.200 -0.2044  0.3223 -0.0521
31378SOL    HW194712   5.591   6.483   5.281 -0.5185  0.9638  0.3020
31378SOL    HW294713   5.528   6.514   5.147 -0.1701  0.1741 -0.0473
31379SOL     OW94714   0.195   1.177   1.380 -0.0036  0.0891  0.1680
31379SOL    HW194715   0.158   1.251   1.428  0.4093  0.5761 -0.2588
31379SOL    HW294716   0.178   1.196   1.288 -0.2472 -0.5437  0.0747
31380SOL     OW94717   5.532   2.540   7.029 -0.7488 -0.3662  0.0765
31380SOL    HW194718   5.455   2.541   6.972 -0.8390  0.5895  0.2087
31380SOL    HW294719   5.604   2.519   6.970 -1.3272 -3.5341  0.2828
31381SOL     OW94720   3.858   2.995   6.044  0.4056 -0.1301 -0.1667
31381SOL    HW194721   3.786   2.932   6.047  0.4852 -0.1767  1.4685
31381SOL    HW294722   3.862   3.022   5.952  0.4776 -2.6129 -0.9890
31382SOL     OW94723   6.381   9.395   0.760 -0.2280  0.2293 -0.0288
31382SOL    HW194724   6.429   9.447   0.695 -0.4877  0.4072 -0.0799
31382SOL    HW294725   6.329   9.459   0.808  2.1929  0.5502  2.3921
31383SOL     OW94726   3.042   2.330   1.378  0.8353  0.1297 -0.1001
31383SOL    HW194727   3.021   2.239   1.396  0.6626 -0.0744 -1.2756
31383SOL    HW294728   2.999   2.349   1.294 -2.1075  2.3024  1.7054
31384SOL     OW94729   5.176   4.217   3.210  0.0434  0.1239  0.0730
31384SOL    HW194730   5.169   4.203   3.115 -0.2256 -0.2582  0.1450
31384SOL    HW294731   5.199   4.130   3.245  2.6505  0.7483  0.1140
31385SOL     OW94732   9.454   1.123   3.705  0.1257  0.2468 -0.2023
31385SOL    HW194733   9.410   1.104   3.622  0.4096 -2.2582  0.1484
31385SOL    HW294734   9.545   1.096   3.690  0.0008 -1.0312  1.1357
31386SOL     OW94735   2.605   9.664   4.474  0.4177 -0.4400 -0.5794
31386SOL    HW194736   2.532   9.622   4.430  1.2434 -1.3039 -1.1823
31386SOL    HW294737   2.569   9.698   4.555 -0.9014  0.2126 -1.4204
31387SOL     OW94738   2.147   5.762   0.451 -0.4886  0.3052  0.2846
31387SOL    HW194739   2.063   5.717   0.455 -0.1671 -0.3133  0.2292
31387SOL    HW294740   2.210   5.699   0.486 -0.3258  1.4780  2.2661
31388SOL     OW94741   6.178   4.659   9.786 -0.6835 -0.0477  0.0461
31388SOL    HW194742   6.128   4.579   9.766 -0.3038 -0.1990 -0.3244
31388SOL    HW294743   6.251   4.657   9.724 -0.5380  0.4666  0.1988
31389SOL     OW94744   2.932   9.394   3.746  0.3840  0.2189  0.0234
31389SOL    HW194745   2.904   9.340   3.671  2.2539 -1.5431  0.4901
31389SOL    HW294746   2.918   9.484   3.717 -1.5839 -0.4520 -1.3486
31390SOL     OW94747   6.053   3.387   8.504  0.3102  0.5824  0.1582
31390SOL    HW194748   5.967   3.411   8.469  0.0119 -1.6620 -0.8076
31390SOL    HW294749   6.041   3.298   8.538  2.0935  0.4660  0.5803
31391SOL     OW94750   7.566   6.627   6.791 -0.3376 -0.4737 -0.0852
31391SOL    HW194751   7.491   6.672   6.752 -1.6270 -2.9901 -0.7189
31391SOL    HW294752   7.546   6.624   6.884 -0.1416  0.4096 -0.0093
31392SOL     OW94753   9.210   8.877   4.222 -0.0717  0.0256  0.5353
31392SOL    HW194754   9.286   8.824   4.197  0.7707  1.0312  0.8760
31392SOL    HW294755   9.164   8.894   4.140  1.0662  0.8895  0.0511
31393SOL     OW94756   2.028   2.419   6.440  0.7137  0.3885  0.1116
31393SOL    HW194757   2.067   2.335   6.460  2.1685  1.2835  1.2282
31393SOL    HW294758   2.079   2.453   6.366  1.0894  0.9011  0.5966
31394SOL     OW94759   6.054   3.782   8.792 -0.2912 -0.8423  0.6377
31394SOL    HW194760   6.106   3.819   8.864  1.2722  1.2571 -1.4136
31394SOL    HW294761   6.010   3.858   8.754 -0.0796 -1.6777 -1.3775
31395SOL     OW94762   8.576   4.562   9.757 -0.1770 -0.0978 -0.2880
31395SOL    HW194763   8.646   4.580   9.819  0.2442  0.7870 -1.0062
31395SOL    HW294764   8.497   4.556   9.811  0.3098 -0.2442  0.4237
31396SOL     OW94765   0.842   6.810   2.061  0.1405  0.1463  0.4711
31396SOL    HW194766   0.822   6.732   2.009 -0.8634  0.2218  0.7090
31396SOL    HW294767   0.913   6.853   2.014 -0.8453  0.2907 -0.9551
31397SOL     OW94768   6.548   4.555   4.123  0.4461 -0.0616 -0.0798
31397SOL    HW194769   6.492   4.556   4.201  0.1277  0.1871 -0.3128
31397SOL    HW294770   6.617   4.493   4.145  1.2856  1.2238  1.0414
31398SOL     OW94771   1.394   6.537   1.022  0.3863  0.2998  0.3267
31398SOL    HW194772   1.483   6.502   1.026 -0.3315 -1.8823 -0.7759
31398SOL    HW294773   1.369   6.528   0.929 -1.2030  0.2046  0.7284
31399SOL     OW94774   7.709   2.615   2.063  0.4223 -0.7710 -0.3098
31399SOL    HW194775   7.778   2.577   2.009 -1.2973 -2.0504 -1.7598
31399SOL    HW294776   7.755   2.668   2.127  2.6647 -0.3799 -2.0981
31400SOL     OW94777   7.504   2.640   2.800  0.3031 -0.6568  0.1566
31400SOL    HW194778   7.429   2.654   2.857  1.0750 -2.0012  1.5926
31400SOL    HW294779   7.580   2.649   2.858  1.2229 -0.3921 -1.0299
31401SOL     OW94780   8.453   3.135   9.187 -0.1901  0.1327  0.2027
31401SOL    HW194781   8.375   3.084   9.167 -0.5205  0.6744  0.0993
31401SOL    HW294782   8.439   3.166   9.277 -0.4816  0.9249 -0.1094
31402SOL     OW94783   2.579   1.273   5.339 -0.0186  0.1022 -0.0812
31402SOL    HW194784   2.639   1.272   5.414 -0.4366 -0.8155  0.2617
31402SOL    HW294785   2.585   1.362   5.304 -0.6213  0.8814  1.6995
31403SOL     OW94786   5.556   2.450   6.717  0.2075  0.0662  0.4695
31403SOL    HW194787   5.532   2.359   6.730 -1.9858  0.6396  0.9070
31403SOL    HW294788   5.498   2.480   6.647  1.2421  1.0051 -0.0152
31404SOL     OW94789   6.392   8.801   2.254  0.1734 -0.2023 -0.0207
31404SOL    HW194790   6.452   8.779   2.183  0.1443 -0.8116  0.1344
31404SOL    HW294791   6.417   8.742   2.325 -0.3084 -0.1389  0.2028
31405SOL     OW94792   5.728   4.016   6.099  0.7728 -0.5257 -0.5775
31405SOL    HW194793   5.655   3.962   6.128  1.6270 -1.5559 -0.2974
31405SOL    HW294794   5.690   4.075   6.033 -0.5856 -0.1029  0.5429
31406SOL     OW94795   5.893   4.044   3.758 -0.3529 -0.3592 -1.0742
31406SOL    HW194796   5.877   4.081   3.671 -1.9899 -1.0135 -1.0796
31406SOL    HW294797   5.806   4.023   3.792  0.3333 -1.2557  0.2234
31407SOL     OW94798   9.482   4.111   4.100 -0.8266 -0.1339  0.3637
31407SOL    HW194799   9.552   4.177   4.100 -0.4021 -0.4980 -1.9348
31407SOL    HW294800   9.410   4.152   4.053 -0.5645 -1.2261 -1.0786
31408SOL     OW94801   7.662   5.217   2.039  0.0424  0.7208 -0.9287
31408SOL    HW194802   7.731   5.152   2.049 -0.7439  0.1131  1.1055
31408SOL    HW294803   7.700   5.299   2.071 -0.7282 -0.0521  2.2628
31409SOL     OW94804   8.581   5.527   9.405 -0.0659  0.1385 -0.3559
31409SOL    HW194805   8.566   5.620   9.423  0.4084  0.0995  0.2757
31409SOL    HW294806   8.677   5.518   9.404 -0.1074 -0.2752 -0.7796
31410SOL     OW94807   9.589   5.650   0.255  0.0126 -0.0204 -0.2580
31410SOL    HW194808   9.666   5.661   0.199  0.5887 -0.4542  0.4281
31410SOL    HW294809   9.523   5.610   0.198  1.3549 -2.7201 -0.0884
31411SOL     OW94810   5.741   7.325   7.422 -0.2208 -0.4784  0.8904
31411SOL    HW194811   5.778   7.288   7.342 -0.5200 -1.8479  1.3595
31411SOL    HW294812   5.717   7.414   7.398  0.5078 -0.5744 -0.2876
31412SOL     OW94813   4.871   0.785   8.098 -0.4462  0.9983  0.1741
31412SOL    HW194814   4.822   0.824   8.026 -1.0545 -0.7931 -0.4369
31412SOL    HW294815   4.950   0.839   8.106  0.0376  0.7893 -2.3891
31413SOL     OW94816   9.801   7.998   4.476 -0.4809 -0.5602  0.7258
31413SOL    HW194817   9.855   7.998   4.555 -0.6098 -1.2420  0.8281
31413SOL    HW294818   9.864   8.010   4.404 -0.5783  2.1746  1.0165
31414SOL     OW94819   3.974   1.271   8.333 -0.3877  0.0022 -0.0828
31414SOL    HW194820   3.938   1.356   8.310  0.9085  0.7860  0.6563
31414SOL    HW294821   3.899   1.212   8.332 -1.1402  0.9331 -1.5777
31415SOL     OW94822   5.497   3.889   9.054  0.4603  0.0492 -0.1941
31415SOL    HW194823   5.562   3.957   9.037  0.0913  0.6763  0.8140
31415SOL    HW294824   5.520   3.854   9.140 -0.9069  0.7472  0.4925
31416SOL     OW94825   2.858   6.311   1.406  0.2143 -0.6302  0.6299
31416SOL    HW194826   2.929   6.323   1.468  0.4345  0.2372  0.2254
31416SOL    HW294827   2.901   6.285   1.324 -0.0008 -0.8880  0.5950
31417SOL     OW94828   3.693   2.678   9.309 -0.6987 -0.0267 -0.0634
31417SOL    HW194829   3.731   2.751   9.359 -0.3346 -2.2408  3.1569
31417SOL    HW294830   3.638   2.721   9.243  1.6088  3.1682 -0.1706
31418SOL     OW94831   8.284   0.300   2.582  0.3058  0.8678  0.0014
31418SOL    HW194832   8.353   0.345   2.534 -0.3998  0.1921 -1.7554
31418SOL    HW294833   8.294   0.208   2.558  0.7517  0.2682  2.2837
31419SOL     OW94834   1.638   7.833   2.826 -0.3015  0.5163 -0.1477
31419SOL    HW194835   1.669   7.810   2.739 -0.2096  1.0087 -0.2461
31419SOL    HW294836   1.620   7.927   2.822 -0.9273  0.4151  0.1731
31420SOL     OW94837   8.891   9.690   1.286  0.0184 -0.0148  0.5115
31420SOL    HW194838   8.905   9.597   1.304 -0.1393  0.0881  1.1820
31420SOL    HW294839   8.956   9.711   1.219  0.1812 -0.5610  0.4922
31421SOL     OW94840   3.047   9.546   1.202  0.2183 -0.0399  0.3052
31421SOL    HW194841   3.070   9.508   1.118  1.1821 -0.0803  0.5819
31421SOL    HW294842   3.118   9.521   1.261 -0.1598  0.4586  0.9936
31422SOL     OW94843   1.639   6.894   2.739 -0.2425 -0.9039 -0.5995
31422SOL    HW194844   1.658   6.810   2.697  1.4882 -0.8424 -0.0459
31422SOL    HW294845   1.721   6.917   2.783 -0.3818  1.5529 -1.5136
31423SOL     OW94846   5.832   5.681   7.175 -0.4143 -0.1377 -0.2477
31423SOL    HW194847   5.818   5.612   7.240  0.3269  1.2554  1.4799
31423SOL    HW294848   5.793   5.759   7.214  3.4265  1.6665  0.4083
31424SOL     OW94849   9.949   7.793   0.794 -0.3695 -0.3315  0.4627
31424SOL    HW194850   9.990   7.806   0.708 -1.3185  2.1677  0.3201
31424SOL    HW294851   9.867   7.748   0.773 -0.0842 -0.7423  0.1980
31425SOL     OW94852   9.250   6.900   3.938  0.4652 -0.0242  0.0412
31425SOL    HW194853   9.331   6.891   3.989  0.0208 -1.5213  0.5444
31425SOL    HW294854   9.188   6.939   4.000  0.8657  1.4458 -0.4473
31426SOL     OW94855   8.907   6.851   7.960 -0.1297  0.0890 -0.2318
31426SOL    HW194856   8.963   6.782   7.996  0.5140 -0.0509 -1.4467
31426SOL    HW294857   8.968   6.910   7.915 -0.4721  2.2934  1.9755
31427SOL     OW94858   7.098   3.969   8.460  0.7155  0.1293  0.2647
31427SOL    HW194859   7.136   4.038   8.406 -0.4096  1.4633  1.1129
31427SOL    HW294860   7.143   3.977   8.544  0.0812  0.3367  0.5960
31428SOL     OW94861   6.958   3.295   9.244 -0.2615 -0.1742 -0.2960
31428SOL    HW194862   7.045   3.255   9.255 -1.0711 -2.2006 -0.8317
31428SOL    HW294863   6.897   3.222   9.252 -1.8691  1.0423 -0.9695
31429SOL     OW94864   6.797   9.806   3.856 -0.2572  0.3836  0.0031
31429SOL    HW194865   6.867   9.749   3.887  0.8109  2.0082  0.6801
31429SOL    HW294866   6.811   9.811   3.761  1.2927  1.6174  0.2669
31430SOL     OW94867   2.958   0.512   2.652 -0.4679 -0.8575 -0.3020
31430SOL    HW194868   2.977   0.424   2.619  0.3730 -0.8618  0.1647
31430SOL    HW294869   2.893   0.499   2.721  2.5885 -1.6629  2.7004
31431SOL     OW94870   1.143   7.176   5.438  0.4545  0.4864  0.3875
31431SOL    HW194871   1.126   7.215   5.523 -1.0067 -1.1654  0.9232
31431SOL    HW294872   1.080   7.219   5.379 -0.5623 -0.4017  0.7944
31432SOL     OW94873   3.936   3.897   1.559  0.1319 -0.7525 -0.2667
31432SOL    HW194874   3.944   3.990   1.535 -2.0800 -0.7787 -1.2422
31432SOL    HW294875   3.969   3.850   1.483  0.5434 -0.7914 -0.0686
31433SOL     OW94876   7.824   9.103   8.573 -0.0249  0.2580  0.3662
31433SOL    HW194877   7.849   9.028   8.627 -0.3342 -0.1195 -0.0105
31433SOL    HW294878   7.851   9.080   8.484 -0.6199  0.3509  0.1551
31434SOL     OW94879   1.598   5.860   4.497 -0.3953  0.7651  0.1828
31434SOL    HW194880   1.631   5.885   4.583  1.1262  0.9060 -0.4224
31434SOL    HW294881   1.629   5.929   4.438 -0.5563  0.1381 -0.6515
31435SOL     OW94882   9.257   1.321   3.709 -0.1566  0.3435  0.1109
31435SOL    HW194883   9.179   1.268   3.696 -1.7220  2.6292 -0.3624
31435SOL    HW294884   9.329   1.266   3.679 -1.6849 -1.4586 -0.4029
31436SOL     OW94885   7.056   8.464   8.713  0.0999 -0.1250 -0.2621
31436SOL    HW194886   7.145   8.463   8.748 -0.7097  1.3681  2.1014
31436SOL    HW294887   7.053   8.542   8.658 -0.1230  0.7285  0.9144
31437SOL     OW94888   1.557   6.532   1.993  0.0041  0.2210  0.4725
31437SOL    HW194889   1.539   6.602   1.930 -0.7295  0.2006  0.6518
31437SOL    HW294890   1.652   6.521   1.990  0.0265  0.5353 -0.2938
31438SOL     OW94891   3.457   5.061   4.921  0.1092 -0.2004 -0.1249
31438SOL    HW194892   3.549   5.047   4.940 -0.0183 -2.0509 -0.6300
31438SOL    HW294893   3.456   5.121   4.847  0.9206 -0.2814 -0.2083
31439SOL     OW94894   4.536   9.998   2.233 -0.0082 -0.4830  0.0730
31439SOL    HW194895   4.451  10.041   2.242  0.5511  0.8743 -0.8039
31439SOL    HW294896   4.516   9.912   2.197 -1.0909 -0.6469  1.0102
31440SOL     OW94897   9.282   4.139   7.587  0.2519 -0.4779  0.0499
31440SOL    HW194898   9.353   4.184   7.634 -0.1503 -0.4368  0.6311
31440SOL    HW294899   9.301   4.046   7.598  0.5704 -0.4632 -0.3524
31441SOL     OW94900   2.725   1.473   3.383 -0.0444 -0.6906  0.2123
31441SOL    HW194901   2.690   1.412   3.448 -0.6821 -0.6439 -0.0797
31441SOL    HW294902   2.755   1.418   3.311 -0.3108 -0.6818  0.0937
31442SOL     OW94903   4.376   9.557   3.457  0.4291 -0.7094  0.4581
31442SOL    HW194904   4.311   9.551   3.527 -1.2077 -0.0440 -0.9053
31442SOL    HW294905   4.407   9.468   3.444 -3.1665 -1.8968 -1.4023
31443SOL     OW94906   2.299   5.213   8.725 -0.5493  0.7340 -0.0694
31443SOL    HW194907   2.252   5.283   8.678  0.0610  0.5612 -0.9582
31443SOL    HW294908   2.308   5.143   8.660  1.1096  0.8427  0.0243
31444SOL     OW94909   7.022   9.407   9.894  0.0169  0.2162  0.6140
31444SOL    HW194910   7.033   9.502   9.901 -2.1814  0.5827 -0.0375
31444SOL    HW294911   7.010   9.377   9.984 -1.0059  0.8410  0.7051
31445SOL     OW94912   1.145   1.440   7.786  0.5755 -0.3261 -0.4982
31445SOL    HW194913   1.175   1.365   7.838  0.8893 -0.5013 -0.9264
31445SOL    HW294914   1.148   1.409   7.696 -2.2604 -0.8601 -0.5067
31446SOL     OW94915   6.065   6.331   4.423 -0.4000  0.4874 -0.4214
31446SOL    HW194916   6.153   6.348   4.390 -0.6817  0.4081 -1.2250
31446SOL    HW294917   6.014   6.305   4.346 -1.2676  1.0807 -0.0782
31447SOL     OW94918   1.309   3.364   1.992 -0.0640  0.3562 -0.0618
31447SOL    HW194919   1.340   3.426   1.926 -1.5574 -1.7075 -2.9526
31447SOL    HW294920   1.379   3.299   2.000  0.0211  0.4810  0.2094
31448SOL     OW94921   0.416   7.488   2.237  0.4765 -0.0158 -0.1074
31448SOL    HW194922   0.361   7.412   2.258  1.3385 -1.0441 -1.3684
31448SOL    HW294923   0.497   7.450   2.204  0.4375  1.4412 -2.0770
31449SOL     OW94924   8.061   4.337   4.776  0.1059  0.6336 -0.2800
31449SOL    HW194925   8.071   4.386   4.857  1.7482  0.7395 -0.5198
31449SOL    HW294926   7.999   4.267   4.797  0.5823  0.6075  1.0880
31450SOL     OW94927   4.974   0.981   8.426  0.0754  0.5734  0.8202
31450SOL    HW194928   5.014   0.962   8.341  0.1172 -0.1449  0.9975
31450SOL    HW294929   4.986   1.075   8.437  0.7550  0.5460  0.3789
31451SOL     OW94930   1.949   7.807   6.407 -0.2904  0.2840 -0.6959
31451SOL    HW194931   1.982   7.762   6.484 -0.0824  1.1623 -0.2596
31451SOL    HW294932   2.012   7.878   6.392  0.4393 -0.6422 -2.4705
31452SOL     OW94933   5.039   7.004   4.044 -0.3417 -0.2547  0.0959
31452SOL    HW194934   4.943   7.012   4.043 -0.4902 -0.9851  2.1486
31452SOL    HW294935   5.070   7.092   4.064 -0.5693  0.0284 -0.7777
31453SOL     OW94936   6.986   3.294   6.858  0.3069  0.1147  0.0079
31453SOL    HW194937   6.913   3.356   6.861  0.0849 -0.1640  0.3814
31453SOL    HW294938   7.018   3.300   6.768 -2.0446 -1.9218 -1.0877
31454SOL     OW94939   8.966   0.974   4.740  0.0713 -0.2119 -0.3109
31454SOL    HW194940   8.976   0.903   4.676  1.2695 -0.7658  0.4562
31454SOL    HW294941   8.898   0.943   4.799 -0.8597  0.1908 -1.1425
31455SOL     OW94942   6.813   2.598   8.764  0.1923  0.3828  0.0976
31455SOL    HW194943   6.765   2.637   8.691  0.9602  3.1688  0.9616
31455SOL    HW294944   6.904   2.623   8.748  0.5322  0.0032  1.3811
31456SOL     OW94945   9.235   6.703   5.759 -0.4934 -0.4010 -0.1196
31456SOL    HW194946   9.323   6.738   5.769 -0.2816 -0.6023 -1.1647
31456SOL    HW294947   9.247   6.608   5.759 -0.6056 -0.4252 -1.0239
31457SOL     OW94948   9.281   8.702   8.156  0.1937 -0.7307 -0.6487
31457SOL    HW194949   9.370   8.724   8.183 -0.1523  0.3752 -0.3465
31457SOL    HW294950   9.285   8.610   8.132  1.2098 -0.9311  0.2334
31458SOL     OW94951   4.251   6.950   9.149  0.3465 -0.0043  0.0668
31458SOL    HW194952   4.330   6.997   9.122  1.7745 -2.5231 -0.4612
31458SOL    HW294953   4.275   6.907   9.231  0.2015 -2.1862 -0.9510
31459SOL     OW94954   2.828   0.215   7.424  0.4839 -0.6712 -0.0599
31459SOL    HW194955   2.840   0.220   7.519  0.2601  3.0255 -0.0679
31459SOL    HW294956   2.737   0.242   7.410  0.2003 -2.1803 -1.3015
31460SOL     OW94957   9.219   2.730   5.018  0.1880  0.2824  0.1607
31460SOL    HW194958   9.295   2.693   4.973 -0.8613 -0.1800 -1.3069
31460SOL    HW294959   9.219   2.687   5.104  1.2878 -0.0880 -0.0119
31461SOL     OW94960   8.281   5.250   0.942 -0.9728  0.5342 -0.2072
31461SOL    HW194961   8.324   5.272   0.860 -1.8632  0.9597 -0.5672
31461SOL    HW294962   8.227   5.174   0.921  0.4601 -0.7471  0.5246
31462SOL     OW94963   6.798   1.634   2.976  0.1669 -0.5593  0.0501
31462SOL    HW194964   6.859   1.703   2.948 -0.3378 -0.8041 -1.7619
31462SOL    HW294965   6.784   1.582   2.898 -1.6690 -1.0544  0.6709
31463SOL     OW94966   2.902   3.873   7.073 -0.0050 -0.0050 -0.3249
31463SOL    HW194967   2.910   3.967   7.083  0.4712  0.0212 -0.8980
31463SOL    HW294968   2.973   3.837   7.126  1.2660  0.0594 -1.9146
31464SOL     OW94969   7.426   9.230   7.290 -0.0796 -0.2831  0.1655
31464SOL    HW194970   7.399   9.170   7.221 -0.3820  0.2017 -0.1436
31464SOL    HW294971   7.435   9.315   7.247 -3.7229  0.8550  1.2923
31465SOL     OW94972   7.401   2.116   8.137  0.7035  0.4383  0.3584
31465SOL    HW194973   7.422   2.110   8.230  0.7112 -0.6531  0.3085
31465SOL    HW294974   7.444   2.039   8.099  1.0021  1.0649 -0.6072
31466SOL     OW94975   1.448   4.246   9.512 -0.2478  0.3993 -0.2570
31466SOL    HW194976   1.438   4.152   9.529  0.4356  0.4385  0.4030
31466SOL    HW294977   1.410   4.288   9.589  0.9259  0.6251  0.2158
31467SOL     OW94978   7.825   0.699   8.882 -0.1159  0.2516 -0.6279
31467SOL    HW194979   7.806   0.617   8.926 -0.2822  0.2466 -0.7037
31467SOL    HW294980   7.762   0.702   8.809  0.5142 -0.0015 -1.1952
31468SOL     OW94981   1.287   5.443   4.394  0.1842 -0.5418 -0.2665
31468SOL    HW194982   1.248   5.529   4.407  0.1233 -0.6591  0.3557
31468SOL    HW294983   1.381   5.457   4.411  0.3058 -0.4280 -0.9834
31469SOL     OW94984   5.121   5.784   8.130 -0.4760  1.0904 -0.4058
31469SOL    HW194985   5.167   5.839   8.066  0.7513  0.5746  0.0103
31469SOL    HW294986   5.179   5.710   8.144 -1.1835  0.7028  0.5922
31470SOL     OW94987   3.261   1.928   7.684  0.7706 -0.1641  0.1605
31470SOL    HW194988   3.319   1.989   7.638  0.5118 -0.2970 -0.3358
31470SOL    HW294989   3.177   1.972   7.686  0.5850 -0.5010 -0.1885
31471SOL     OW94990   1.008   2.478   8.878  0.6702  0.1909 -0.0868
31471SOL    HW194991   0.945   2.429   8.825  0.7286 -0.5532  0.5364
31471SOL    HW294992   1.000   2.442   8.966  1.5980  0.4449  0.1113
31472SOL     OW94993   2.970   5.810   4.712 -0.6505 -0.1874  0.5065
31472SOL    HW194994   3.005   5.786   4.798 -0.8827  3.2489  1.7340
31472SOL    HW294995   3.042   5.856   4.669 -1.2850  0.2283 -0.1389
31473SOL     OW94996   8.206   8.837   1.166  0.1762  0.6973 -0.4587
31473SOL    HW194997   8.209   8.915   1.221 -0.8532  0.6691 -0.3403
31473SOL    HW294998   8.286   8.789   1.186  0.2823  1.1786  0.2804
31474SOL     OW94999   2.184   7.515   9.680 -0.9817 -0.2359  0.5393
31474SOL    HW195000   2.255   7.452   9.698 -1.1954 -1.0926 -1.3548
31474SOL    HW295001   2.229   7.598   9.667 -0.2890 -0.7546 -0.5624
31475SOL     OW95002   3.852   6.728   0.461 -0.5225  0.3639  0.1972
31475SOL    HW195003   3.893   6.668   0.399 -0.2657  0.3566  0.3726
31475SOL    HW295004   3.837   6.675   0.539  1.1821  0.9150  0.9459
31476SOL     OW95005   1.576   1.081   8.674 -0.3219 -0.2729 -0.0547
31476SOL    HW195006   1.670   1.064   8.666  1.1998  3.9681  4.4575
31476SOL    HW295007   1.546   1.018   8.740 -0.3919 -0.7201 -0.5018
31477SOL     OW95008   6.397   4.720   5.999 -0.8734 -0.5918 -0.0651
31477SOL    HW195009   6.388   4.767   5.916 -1.5875 -0.7919 -0.1110
31477SOL    HW295010   6.414   4.629   5.973 -0.9512 -0.6275  0.0095
31478SOL     OW95011   1.533   2.563   8.380 -0.0460  0.2071 -0.2756
31478SOL    HW195012   1.535   2.576   8.474  1.1356 -0.6080 -0.1685
31478SOL    HW295013   1.596   2.626   8.346  3.0316 -2.4849 -0.0594
31479SOL     OW95014   0.895   0.923   7.566 -0.0409  0.7181 -0.1886
31479SOL    HW195015   0.962   0.855   7.559  0.0415  0.6325  1.1723
31479SOL    HW295016   0.818   0.886   7.523 -0.1365 -0.4493  0.9314
31480SOL     OW95017   5.209   1.966   8.059 -0.2994  0.7659 -0.1082
31480SOL    HW195018   5.151   1.993   7.988 -0.3096  2.3398  0.4507
31480SOL    HW295019   5.288   1.935   8.016 -0.0740  2.2492 -0.8396
31481SOL     OW95020   7.625   0.179   7.467  0.3937 -0.2845 -0.1792
31481SOL    HW195021   7.653   0.204   7.378  0.5760 -0.1704 -0.0904
31481SOL    HW295022   7.586   0.092   7.456  0.5795 -0.3489 -0.3432
31482SOL     OW95023   2.627   7.109   5.705 -0.2799  1.1315  0.0514
31482SOL    HW195024   2.629   7.179   5.640 -0.8165  0.8589 -0.2632
31482SOL    HW295025   2.561   7.136   5.768  0.3238  1.4522  0.5632
31483SOL     OW95026   4.013   9.369   1.207  0.0108  0.4345  0.6633
31483SOL    HW195027   4.016   9.390   1.300 -0.3745 -1.7422  1.2280
31483SOL    HW295028   3.976   9.280   1.203  1.0131  0.0347 -1.4828
31484SOL     OW95029   1.221   5.878   7.247 -0.4950 -0.3391  0.2655
31484SOL    HW195030   1.301   5.854   7.294 -0.5813  0.9770  1.1576
31484SOL    HW295031   1.166   5.918   7.314 -1.1296  0.4803 -0.7208
31485SOL     OW95032   0.346   7.116   1.894 -0.3812 -0.8573  0.4108
31485SOL    HW195033   0.299   7.084   1.817 -0.7024  0.2818  0.1204
31485SOL    HW295034   0.327   7.209   1.897  2.8525 -0.0460 -0.4241
31486SOL     OW95035   9.282   6.923   2.589 -0.0439 -0.0008  0.0316
31486SOL    HW195036   9.366   6.901   2.549  0.1195  2.2285 -1.0345
31486SOL    HW295037   9.283   6.879   2.674  1.8320 -0.7015 -0.3169
31487SOL     OW95038   8.706   3.621   3.212 -0.3274 -0.1685 -0.0961
31487SOL    HW195039   8.770   3.671   3.162  0.0978  0.6639  1.2021
31487SOL    HW295040   8.714   3.531   3.181  0.6221  0.1483 -0.7856
31488SOL     OW95041   0.390   6.263   7.191  0.4818 -0.5927 -0.0123
31488SOL    HW195042   0.352   6.190   7.143 -0.5920 -0.5593  0.7730
31488SOL    HW295043   0.336   6.338   7.167 -1.3658 -0.9199  2.7155
31489SOL     OW95044   2.951   1.717   4.517  0.8675 -0.3430 -0.8832
31489SOL    HW195045   3.017   1.764   4.568 -0.8463  1.0335  0.1991
31489SOL    HW295046   3.000   1.648   4.473  2.9967  0.5357 -0.0634
31490SOL     OW95047   3.096   4.654   2.387  0.1435 -0.0055 -0.2749
31490SOL    HW195048   3.024   4.596   2.362 -0.2439  0.7187 -0.8581
31490SOL    HW295049   3.167   4.631   2.327 -0.0155  0.1262 -0.5162
31491SOL     OW95050   6.540   7.142   8.436  0.4382  0.3695  0.1939
31491SOL    HW195051   6.527   7.115   8.345 -0.7650 -0.4863  0.5974
31491SOL    HW295052   6.565   7.234   8.430  1.5708  0.0065 -1.0553
31492SOL     OW95053   2.380   4.988   6.634 -0.2179  0.1161  0.3065
31492SOL    HW195054   2.454   5.035   6.672 -2.2043  2.6747  1.2782
31492SOL    HW295055   2.325   4.964   6.708  0.0334 -2.7017 -0.2964
31493SOL     OW95056   9.585   0.639   7.349 -0.1274 -0.1759 -0.4437
31493SOL    HW195057   9.598   0.648   7.444  1.2463  0.3061 -0.6485
31493SOL    HW295058   9.504   0.589   7.340  0.9921 -2.4580  1.0441
31494SOL     OW95059   3.609   2.788   9.068  0.1494 -0.0171  0.1204
31494SOL    HW195060   3.699   2.808   9.045  0.2837  0.1813  0.8085
31494SOL    HW295061   3.557   2.858   9.027  0.4536  0.7565  1.0393
31495SOL     OW95062   5.334   3.030   4.260 -0.3237 -0.2239 -0.5014
31495SOL    HW195063   5.401   3.088   4.298 -0.8469 -0.2429  0.4798
31495SOL    HW295064   5.285   3.087   4.201 -0.0815  0.0379 -0.4553
31496SOL     OW95065   8.751   6.095   1.576 -0.4646  0.2467 -0.3039
31496SOL    HW195066   8.766   6.006   1.545 -2.7629  0.2914 -1.7344
31496SOL    HW295067   8.703   6.138   1.505  0.5854  2.6605  0.3299
31497SOL     OW95068   8.738   4.819   8.742  0.0149 -0.0919 -0.1047
31497SOL    HW195069   8.796   4.864   8.680  0.6597 -0.3771  0.2754
31497SOL    HW295070   8.755   4.862   8.826  0.5057 -0.9035  0.2280
31498SOL     OW95071   4.125   4.544   8.928 -0.1367 -0.6954 -0.4261
31498SOL    HW195072   4.146   4.634   8.954  0.6884 -1.3139  1.1760
31498SOL    HW295073   4.210   4.500   8.922 -0.5568 -1.4866 -0.7010
31499SOL     OW95074   7.803   9.472   0.487  0.4933 -0.2209 -0.1387
31499SOL    HW195075   7.726   9.434   0.447  1.1626 -2.5111  0.5661
31499SOL    HW295076   7.877   9.438   0.436  1.0972  1.0056 -0.1204
31500SOL     OW95077   5.760   1.316   9.143 -0.6026 -0.0202 -0.6134
31500SOL    HW195078   5.695   1.379   9.175 -0.5168  0.1705 -0.8150
31500SOL    HW295079   5.709   1.238   9.121 -0.7043 -0.0370 -0.3255
31501SOL     OW95080   0.244   7.398   7.038  0.0174  0.8394 -0.3962
31501SOL    HW195081   0.278   7.443   7.116  0.4945  0.4749 -0.3958
31501SOL    HW295082   0.149   7.410   7.044 -0.0491 -0.1784  0.8602
31502SOL     OW95083   9.905   3.361   0.244  0.4083  0.1686 -0.1040
31502SOL    HW195084   9.902   3.437   0.187 -0.1660  0.2084 -0.0258
31502SOL    HW295085   9.865   3.291   0.193  0.5348  0.0303 -0.0144
31503SOL     OW95086   9.610   6.296   2.472 -0.9551 -0.5643  0.3487
31503SOL    HW195087   9.666   6.221   2.489 -1.3685 -0.4939  2.1635
31503SOL    HW295088   9.557   6.306   2.551 -1.8711  0.8015 -0.3924
31504SOL     OW95089   0.973   8.031   9.558  0.9787  0.5212 -0.1420
31504SOL    HW195090   0.896   8.027   9.615  0.0352 -0.4789 -1.4411
31504SOL    HW295091   1.038   8.081   9.609 -0.3837  1.0714  1.1214
31505SOL     OW95092   8.652   0.205   2.576 -0.4885 -0.0488 -0.4752
31505SOL    HW195093   8.661   0.186   2.483  1.1291 -0.9864 -0.1566
31505SOL    HW295094   8.734   0.248   2.600 -0.3684 -0.9268  0.7575
31506SOL     OW95095   5.935   2.656   3.700 -0.4520 -0.1656  0.6162
31506SOL    HW195096   5.876   2.592   3.739 -0.0283 -0.5687  0.5978
31506SOL    HW295097   5.954   2.717   3.771 -0.6140 -0.2293  0.7153
31507SOL     OW95098   3.937   2.918   7.721 -0.4811 -0.2393 -0.5010
31507SOL    HW195099   3.873   2.976   7.680  0.7737  0.3990 -1.6402
31507SOL    HW295100   3.940   2.841   7.664  0.3912  0.1241 -0.9652
31508SOL     OW95101   5.372   2.040   4.922 -0.2743 -0.4441 -0.3938
31508SOL    HW195102   5.298   2.055   4.863  0.0464  0.2913 -0.6194
31508SOL    HW295103   5.400   2.128   4.949 -1.0050 -0.7652  1.5971
31509SOL     OW95104   9.404   1.149   2.522 -0.2494  0.4990  0.5170
31509SOL    HW195105   9.441   1.062   2.510  0.8829  1.0433 -0.1608
31509SOL    HW295106   9.471   1.197   2.571 -0.2241  1.3750 -0.3418
31510SOL     OW95107   6.719   0.796   9.131 -0.1970 -0.5611  0.0090
31510SOL    HW195108   6.763   0.878   9.153  0.5191 -1.3839  1.8150
31510SOL    HW295109   6.786   0.729   9.144 -1.5440 -1.7047  1.3476
31511SOL     OW95110   4.371   8.615   3.892  0.4197  0.3007 -0.2460
31511SOL    HW195111   4.292   8.561   3.894  0.2171  0.5889 -0.5274
31511SOL    HW295112   4.380   8.647   3.982  0.0025  0.5744 -0.2983
31512SOL     OW95113   7.990   1.477   7.929 -0.6303  0.1271  0.6146
31512SOL    HW195114   7.935   1.454   7.855  1.2550 -0.4592 -0.6883
31512SOL    HW295115   7.973   1.410   7.995 -1.5669  0.0699  0.3231
31513SOL     OW95116   4.195   2.104   4.805  0.0123  0.3342  0.3639
31513SOL    HW195117   4.236   2.051   4.873  1.3827 -0.0282 -0.7144
31513SOL    HW295118   4.116   2.055   4.781  0.7477 -0.7336  0.0712
31514SOL     OW95119   7.191   2.702   9.143 -0.4543  0.3593 -0.2845
31514SOL    HW195120   7.163   2.614   9.168  0.2541  0.1284 -0.2885
31514SOL    HW295121   7.258   2.688   9.077  1.8265  0.7709  1.7764
31515SOL     OW95122   3.678   6.680   9.119 -0.0496  0.1026 -0.0405
31515SOL    HW195123   3.618   6.660   9.047 -1.1547 -0.4804  1.0170
31515SOL    HW295124   3.625   6.726   9.183  0.5901 -0.5367  0.9870
31516SOL     OW95125   7.267   5.684   9.139 -0.2209  0.2457  0.6556
31516SOL    HW195126   7.197   5.749   9.134 -0.1629  0.3379  1.0120
31516SOL    HW295127   7.340   5.731   9.180 -0.1562 -0.0247  0.8490
31517SOL     OW95128   5.934   8.163   6.195  0.4677  0.3007  0.0251
31517SOL    HW195129   5.842   8.141   6.179  0.7207 -0.2256 -0.7291
31517SOL    HW295130   5.977   8.078   6.204  0.7274  0.5466  1.3619
31518SOL     OW95131   1.547   1.497   4.362 -0.1801 -0.7964 -0.2706
31518SOL    HW195132   1.599   1.576   4.378  1.3925 -1.9095  0.3277
31518SOL    HW295133   1.558   1.478   4.269  0.1038 -0.7602 -0.2441
31519SOL     OW95134   1.958   9.076   2.338  0.3438 -0.4193  0.3244
31519SOL    HW195135   1.900   9.010   2.301  0.0946 -0.2049  0.3245
31519SOL    HW295136   1.930   9.084   2.430  0.5083 -0.4605  0.3788
31520SOL     OW95137   9.220   7.757   8.127  0.3855  0.3079  0.3687
31520SOL    HW195138   9.274   7.680   8.111  2.4194  1.3093  1.9667
31520SOL    HW295139   9.140   7.723   8.168  0.6519 -1.0430 -0.2052
31521SOL     OW95140   9.317   8.467   4.262  0.1339  0.3681 -0.4348
31521SOL    HW195141   9.385   8.490   4.326  2.2036 -1.0940 -1.9898
31521SOL    HW295142   9.303   8.547   4.212  1.5598  0.4159 -0.8013
31522SOL     OW95143   5.306   2.006   4.332  0.0425 -0.3364 -0.2033
31522SOL    HW195144   5.286   2.078   4.392  1.2502 -0.9023  0.9295
31522SOL    HW295145   5.221   1.981   4.296 -0.6363  0.4124  0.8167
31523SOL     OW95146   6.512   9.779   6.093  0.3631  0.3207  0.1845
31523SOL    HW195147   6.493   9.857   6.042 -0.6596  2.6227  3.7503
31523SOL    HW295148   6.607   9.780   6.105  0.2261  1.8939  1.3670
31524SOL     OW95149   8.308   9.895   4.187  0.1208 -0.0127 -0.1434
31524SOL    HW195150   8.377   9.961   4.182  0.4821 -0.2990  0.9355
31524SOL    HW295151   8.352   9.813   4.165 -0.1908 -0.0055 -0.8367
31525SOL     OW95152   0.836   2.649   8.612  0.3751  0.1250 -0.5111
31525SOL    HW195153   0.875   2.631   8.527 -1.5665 -1.3572 -1.1642
31525SOL    HW295154   0.861   2.573   8.666  0.1388  0.1901 -0.3073
31526SOL     OW95155   9.933   2.661   6.354  0.1622 -0.0983 -0.1730
31526SOL    HW195156   9.914   2.595   6.420 -3.3472  1.2029  0.3119
31526SOL    HW295157   9.908   2.621   6.271  0.4186 -0.2240 -0.1909
31527SOL     OW95158   7.548   8.489   8.390 -0.0076  0.5252  0.1945
31527SOL    HW195159   7.612   8.458   8.454 -1.1796 -1.1238  0.6403
31527SOL    HW295160   7.463   8.464   8.428 -0.8485  1.6846 -0.8799
31528SOL     OW95161   1.108   7.231   1.778 -0.3062  0.5951  0.0633
31528SOL    HW195162   1.187   7.181   1.799  1.0208  3.0327  1.2713
31528SOL    HW295163   1.065   7.179   1.710  1.5594 -1.5549  0.3901
31529SOL     OW95164   7.088   6.490   3.772 -0.3828 -0.1340 -0.4559
31529SOL    HW195165   7.046   6.404   3.772  2.1241 -1.4470 -0.8827
31529SOL    HW295166   7.164   6.481   3.829  0.4684  1.5227 -1.2308
31530SOL     OW95167   8.218   1.688   6.440 -0.5492 -0.0401  0.7497
31530SOL    HW195168   8.284   1.625   6.469  0.8305  0.4880 -1.0268
31530SOL    HW295169   8.209   1.672   6.346 -0.3226  2.2114  0.2759
31531SOL     OW95170   6.484   3.336   2.161 -0.6345  0.2312  0.3517
31531SOL    HW195171   6.468   3.347   2.255  1.1895  0.5331  0.6707
31531SOL    HW295172   6.447   3.251   2.139  0.8977 -0.8851  1.8695
31532SOL     OW95173   5.702   4.472   7.910  0.4143 -0.0226 -0.3722
31532SOL    HW195174   5.777   4.530   7.917  0.1627  0.1709  0.9976
31532SOL    HW295175   5.634   4.526   7.869 -0.1506  1.0515  1.8116
31533SOL     OW95176   9.343   8.311   8.785 -0.2728 -0.3440  0.0383
31533SOL    HW195177   9.341   8.223   8.747  0.0871 -0.4762  0.3157
31533SOL    HW295178   9.333   8.297   8.879 -0.5517 -0.0619  0.0533
31534SOL     OW95179   7.167   0.125   9.369 -0.5412 -0.0464 -0.8805
31534SOL    HW195180   7.160   0.206   9.420 -1.2373 -0.2651 -0.6093
31534SOL    HW295181   7.207   0.152   9.286  0.5957  0.3131 -0.2246
31535SOL     OW95182   4.646   9.188   9.291  0.2395  0.0975  0.0506
31535SOL    HW195183   4.592   9.237   9.353 -0.9953  1.3584 -1.8816
31535SOL    HW295184   4.671   9.253   9.225 -0.3290 -1.5746 -1.9159
31536SOL     OW95185   4.932   6.892   4.365  0.3409  0.1607 -0.0789
31536SOL    HW195186   4.956   6.801   4.387  1.7222  0.6572  0.6133
31536SOL    HW295187   4.838   6.896   4.379  0.0653 -1.4467 -1.1522
31537SOL     OW95188   2.548   7.902   6.075  0.1926  0.1707 -0.5189
31537SOL    HW195189   2.612   7.852   6.024  1.5975  1.3663 -0.0074
31537SOL    HW295190   2.465   7.887   6.031  0.8551 -1.2390 -1.3644
31538SOL     OW95191   0.686   5.761   6.324 -0.0239 -0.6289 -0.0177
31538SOL    HW195192   0.760   5.800   6.370 -0.8929 -1.3633  2.1304
31538SOL    HW295193   0.725   5.720   6.247  1.5626  0.3046  0.2362
31539SOL     OW95194   4.312   2.861   9.883 -0.6181  0.1492 -0.3945
31539SOL    HW195195   4.269   2.947   9.879 -1.1491 -0.1416 -1.5668
31539SOL    HW295196   4.381   2.872   9.948 -1.3832  1.1377  0.2846
31540SOL     OW95197   1.069   8.191   4.902  0.1876 -0.5283  0.4753
31540SOL    HW195198   1.069   8.220   4.993  2.1149 -1.3449  0.7753
31540SOL    HW295199   1.157   8.210   4.870  0.6668 -3.3269 -0.1380
31541SOL     OW95200   2.372   7.648   6.908  0.5790  0.2201 -0.7232
31541SOL    HW195201   2.277   7.632   6.906  0.2460  2.0179 -0.9560
31541SOL    HW295202   2.398   7.648   6.815  1.1549 -1.8381 -0.6269
31542SOL     OW95203   2.529   9.457   0.113  0.5362 -0.1249  0.1067
31542SOL    HW195204   2.459   9.437   0.050 -1.9420  0.1399  2.5986
31542SOL    HW295205   2.549   9.550   0.098  3.6332 -1.0838 -3.4746
31543SOL     OW95206   5.265   4.664   1.214  0.1919 -0.4871 -0.1798
31543SOL    HW195207   5.280   4.747   1.168 -0.0875 -0.4481 -0.2024
31543SOL    HW295208   5.219   4.688   1.294  1.6585 -0.4419  0.6698
31544SOL     OW95209   8.827   0.681   6.410 -0.3492 -0.3054  0.0178
31544SOL    HW195210   8.905   0.735   6.394 -0.5437 -0.4864 -1.7642
31544SOL    HW295211   8.758   0.745   6.430  0.1125 -0.1143  1.0717
31545SOL     OW95212   0.589   5.178   8.830 -0.0896 -0.2141  0.2887
31545SOL    HW195213   0.582   5.218   8.743 -0.3207 -0.4301  0.2096
31545SOL    HW295214   0.525   5.225   8.883  0.6253  0.4793  0.5530
31546SOL     OW95215   2.764   6.989   5.413  0.1828 -0.2553 -0.1058
31546SOL    HW195216   2.728   7.030   5.335 -1.7563 -1.4415  0.0951
31546SOL    HW295217   2.857   6.977   5.393 -0.1951 -0.2133 -2.0804
31547SOL     OW95218   0.448   6.954   1.036 -0.1934 -0.0955  0.2898
31547SOL    HW195219   0.431   7.040   1.075  0.2031 -0.3594  1.0615
31547SOL    HW295220   0.533   6.929   1.072  0.5822  0.0177 -1.3815
31548SOL     OW95221   5.226   1.259   4.742  0.7818  0.0634  0.0875
31548SOL    HW195222   5.138   1.223   4.752  0.4239 -0.1837 -2.9019
31548SOL    HW295223   5.281   1.205   4.798 -1.0890  1.3164  3.4472
31549SOL     OW95224   6.615   6.592   6.300 -0.3669  0.6138 -0.2535
31549SOL    HW195225   6.571   6.614   6.219  1.3955  0.1217 -1.4011
31549SOL    HW295226   6.634   6.676   6.342 -1.1141  0.8738 -0.4373
31550SOL     OW95227   3.615   4.395   7.491 -0.7974 -0.5427 -0.4661
31550SOL    HW195228   3.625   4.428   7.580  2.1214  0.5395 -1.0716
31550SOL    HW295229   3.570   4.465   7.444 -0.1095 -0.0538 -0.3933
31551SOL     OW95230   7.090   9.030   3.304  0.2749  0.4586  0.1555
31551SOL    HW195231   7.078   8.966   3.234 -1.7899  0.0547  0.8077
31551SOL    HW295232   7.181   9.058   3.296  1.0751 -2.0667 -0.5766
31552SOL     OW95233   3.111   0.855   8.006 -0.5591 -0.0350  0.2847
31552SOL    HW195234   3.138   0.764   8.016  1.4668  0.4884  0.0246
31552SOL    HW295235   3.134   0.878   7.916  0.8574  1.2634  0.9156
31553SOL     OW95236   9.758   7.170   6.602  0.2581  0.3927 -0.2660
31553SOL    HW195237   9.823   7.100   6.601  0.1552  0.2844  0.2438
31553SOL    HW295238   9.779   7.221   6.681 -0.4763  0.1631  0.0884
31554SOL     OW95239   2.035   9.007   0.436 -0.7568  0.1848 -0.0558
31554SOL    HW195240   1.957   9.060   0.452 -0.0081  1.1892  0.3650
31554SOL    HW295241   2.041   9.003   0.340 -0.0380  2.1067 -0.1407
31555SOL     OW95242   5.141   8.847   3.576  0.1250  0.3251 -0.3764
31555SOL    HW195243   5.077   8.866   3.644  0.2892 -1.0131  0.1859
31555SOL    HW295244   5.215   8.905   3.596 -0.6030  1.3634 -0.6085
31556SOL     OW95245   6.369   3.685   5.117 -0.6649 -0.7747 -0.1960
31556SOL    HW195246   6.341   3.639   5.038 -1.0806 -1.0977  0.1375
31556SOL    HW295247   6.308   3.657   5.184 -0.2232 -0.6122  0.2776
31557SOL     OW95248   9.506   4.490   3.565 -0.0182  0.3838  0.5154
31557SOL    HW195249   9.451   4.413   3.579 -0.1377  0.2876 -0.3834
31557SOL    HW295250   9.519   4.527   3.652 -2.5221  1.0933  0.6743
31558SOL     OW95251   9.735   9.407   6.499  0.1284 -0.0613 -0.4778
31558SOL    HW195252   9.682   9.427   6.576 -0.2587 -0.6738 -0.5859
31558SOL    HW295253   9.730   9.487   6.446  0.4545  0.3906  0.1562
31559SOL     OW95254   1.966   9.507   8.650  0.0185  0.0403  0.0748
31559SOL    HW195255   1.984   9.413   8.648 -1.2169 -0.1962 -1.2424
31559SOL    HW295256   2.046   9.548   8.618  0.3407 -0.5997  0.0474
31560SOL     OW95257   8.179   0.990   9.222 -0.3556  0.1684 -0.1364
31560SOL    HW195258   8.099   0.950   9.187 -0.3910 -0.8408  1.0096
31560SOL    HW295259   8.246   0.922   9.211  0.2033  0.7683 -0.5047
31561SOL     OW95260   5.956   6.826   4.978  0.2650  0.1058 -0.7167
31561SOL    HW195261   5.971   6.912   5.016  0.4032 -0.0833 -0.3340
31561SOL    HW295262   5.896   6.841   4.905  0.5628  0.5712 -0.8653
31562SOL     OW95263   0.266   6.032   2.919  0.1824 -0.0880 -0.6427
31562SOL    HW195264   0.295   6.099   2.856 -0.8411 -1.4462 -2.6879
31562SOL    HW295265   0.308   6.056   3.001  1.2120  2.0727 -1.7159
31563SOL     OW95266   2.751   0.864   7.316 -0.3065 -0.3857  0.1420
31563SOL    HW195267   2.776   0.851   7.407 -0.8565 -1.7553  0.1116
31563SOL    HW295268   2.661   0.896   7.320  0.7031  2.7678  0.1717
31564SOL     OW95269   6.796   8.891   9.497  0.2443  0.0196 -0.0615
31564SOL    HW195270   6.702   8.906   9.505  0.2590 -0.6993  2.1296
31564SOL    HW295271   6.809   8.801   9.528  1.6128 -0.0605 -0.7701
31565SOL     OW95272   7.304   0.806   5.704  0.3291 -0.3160 -0.0926
31565SOL    HW195273   7.363   0.878   5.727  2.2584 -0.9345 -2.5735
31565SOL    HW295274   7.245   0.843   5.639 -0.9766 -0.1478  1.1461
31566SOL     OW95275   8.726   4.815   5.256  0.5867  0.1373 -0.0613
31566SOL    HW195276   8.747   4.868   5.333 -2.2425 -0.4837  1.2658
31566SOL    HW295277   8.644   4.852   5.223 -0.0299 -1.6839 -0.7105
31567SOL     OW95278   9.592   8.188   6.140 -1.1390  0.4316 -0.5090
31567SOL    HW195279   9.604   8.093   6.148  2.3541  0.8013  0.1758
31567SOL    HW295280   9.616   8.222   6.227 -2.5885  1.9706 -0.6611
31568SOL     OW95281   1.699   3.258   5.266  0.2029 -0.2608 -0.1514
31568SOL    HW195282   1.785   3.297   5.282  0.7122 -1.1107 -0.7925
31568SOL    HW295283   1.716   3.164   5.258 -1.0970 -0.7685  2.1608
31569SOL     OW95284   8.536   0.588   2.035  0.1296  0.1159 -0.1906
31569SOL    HW195285   8.502   0.665   2.081  1.5943  0.5518  0.2211
31569SOL    HW295286   8.630   0.589   2.054  0.5288 -0.5342 -2.0008
31570SOL     OW95287   6.852   6.961   9.637  0.4436  0.1318 -0.2776
31570SOL    HW195288   6.838   6.867   9.645 -0.8831  0.2037 -1.4229
31570SOL    HW295289   6.840   6.995   9.725  3.1532 -0.9927  0.6295
31571SOL     OW95290   2.330   8.504   8.919 -0.4018 -0.5020 -0.2727
31571SOL    HW195291   2.395   8.535   8.856  0.0420 -0.1838  0.3252
31571SOL    HW295292   2.295   8.424   8.881  0.1803 -0.5529 -0.7090
31572SOL     OW95293   2.856   8.262   8.512  0.0608 -0.3161  0.1202
31572SOL    HW195294   2.943   8.222   8.517  0.2851  0.2065  0.4903
31572SOL    HW295295   2.840   8.296   8.600  0.1273  0.9026 -0.3059
31573SOL     OW95296   1.365   3.074   4.841 -0.1939 -0.1428  0.3219
31573SOL    HW195297   1.284   3.052   4.888  1.2608 -1.0460  2.6170
31573SOL    HW295298   1.396   3.154   4.883  0.1383  0.1739 -0.5083
31574SOL     OW95299   3.783   1.733   0.689  0.2976  0.2822  0.2153
31574SOL    HW195300   3.837   1.795   0.640 -1.2865  0.0567 -1.9652
31574SOL    HW295301   3.696   1.771   0.687 -0.2411 -0.8668  0.9220
31575SOL     OW95302   2.789   4.303   7.290 -0.0766  0.2994  0.1351
31575SOL    HW195303   2.737   4.254   7.354 -0.0331  0.9376  0.6709
31575SOL    HW295304   2.880   4.290   7.318  0.0549 -0.6141 -0.6573
31576SOL     OW95305   1.395   5.345   3.163 -0.0987  0.1455  0.0208
31576SOL    HW195306   1.422   5.262   3.124  0.0027  1.3324 -2.6085
31576SOL    HW295307   1.313   5.325   3.208  0.2755 -1.4976  0.0206
31577SOL     OW95308   1.783   2.690   6.332 -0.3756  0.0742  0.3314
31577SOL    HW195309   1.821   2.777   6.323 -1.1481  0.2642 -1.6095
31577SOL    HW295310   1.857   2.632   6.348  0.5260  0.6969 -1.3595
31578SOL     OW95311   4.353   8.389   2.274 -0.2151 -0.2435 -0.3490
31578SOL    HW195312   4.297   8.461   2.249 -0.5521 -0.2278  0.4301
31578SOL    HW295313   4.318   8.313   2.228 -2.6000 -0.8148  2.1829
31579SOL     OW95314   6.350   6.173   0.952  0.1697 -0.6070 -0.4999
31579SOL    HW195315   6.274   6.180   0.893 -1.1934 -0.1073  1.2346
31579SOL    HW295316   6.351   6.082   0.979  0.1419 -0.5977 -0.4669
31580SOL     OW95317   3.944   0.496   3.691  0.5780  0.5560 -0.0999
31580SOL    HW195318   4.032   0.476   3.659  0.9153  0.9086  0.5812
31580SOL    HW295319   3.955   0.574   3.746 -0.2594  0.9682 -0.4837
31581SOL     OW95320   5.471   8.528   3.764 -0.2094  0.2185  0.4249
31581SOL    HW195321   5.535   8.573   3.820  0.8127 -1.4669  0.6742
31581SOL    HW295322   5.491   8.435   3.774 -0.2660 -0.1786 -2.4269
31582SOL     OW95323   1.576   7.758   2.426 -0.1163  0.0144  0.5026
31582SOL    HW195324   1.662   7.748   2.466  0.2314 -0.9631 -0.4116
31582SOL    HW295325   1.539   7.669   2.428 -0.0548 -0.0907 -1.3191
31583SOL     OW95326   9.948   9.250   0.386 -0.0143  0.2116 -0.8610
31583SOL    HW195327   9.905   9.214   0.309  0.2489 -2.9384  0.3097
31583SOL    HW295328  10.020   9.189   0.405  0.1533  1.0414  1.6668
31584SOL     OW95329   6.469   7.308   1.270 -0.3531 -0.0863  0.1238
31584SOL    HW195330   6.484   7.241   1.337 -0.1006  1.8541  2.1274
31584SOL    HW295331   6.531   7.378   1.293 -1.2660  1.2396 -1.3124
31585SOL     OW95332   8.076   6.821   7.883  0.2181 -0.5122  0.1443
31585SOL    HW195333   8.104   6.730   7.894 -1.4115 -0.9305  1.1103
31585SOL    HW295334   8.157   6.867   7.859  1.4621 -1.8630  1.4800
31586SOL     OW95335   3.764   6.434   1.867 -0.2232 -0.0350  0.0251
31586SOL    HW195336   3.779   6.347   1.905  0.9709 -0.3877 -1.1918
31586SOL    HW295337   3.837   6.486   1.900 -1.5313  0.8733  1.6663
31587SOL     OW95338   3.164   4.626   8.908 -0.3913  0.4762 -0.4949
31587SOL    HW195339   3.139   4.647   8.998 -0.3958  0.2305 -0.4370
31587SOL    HW295340   3.089   4.578   8.873 -0.1185 -0.0270 -0.4075
31588SOL     OW95341   9.650   4.125   6.615  0.5036 -0.3555  0.0513
31588SOL    HW195342   9.629   4.084   6.531  1.7078 -0.7663 -0.0762
31588SOL    HW295343   9.565   4.138   6.658  0.0501 -3.7663  0.4635
31589SOL     OW95344   4.186   4.676   2.487 -0.0289 -0.3827 -0.3610
31589SOL    HW195345   4.234   4.704   2.409  0.3747  0.4943  0.1908
31589SOL    HW295346   4.254   4.649   2.549 -0.1170  1.9897  0.8702
31590SOL     OW95347   3.868   1.675   2.499 -0.1240  0.3731  0.1739
31590SOL    HW195348   3.923   1.618   2.446  0.6116  0.3073  0.9900
31590SOL    HW295349   3.885   1.763   2.465 -0.3438  0.2428 -0.2861
31591SOL     OW95350   7.319   4.307   1.727  0.1314 -0.5470  0.4130
31591SOL    HW195351   7.327   4.286   1.820 -0.5578  0.7674  0.7992
31591SOL    HW295352   7.321   4.223   1.683  0.8008 -1.1728  1.5926
31592SOL     OW95353   9.409   9.338   2.142  0.1110 -0.0655 -0.2673
31592SOL    HW195354   9.484   9.374   2.095  0.5854 -2.1738 -1.2431
31592SOL    HW295355   9.440   9.254   2.178 -1.2522 -0.1199  0.8909
31593SOL     OW95356   1.721   1.069   7.160  0.3085 -0.1173  0.3744
31593SOL    HW195357   1.663   1.098   7.230 -0.6052  0.9809 -0.7888
31593SOL    HW295358   1.794   1.131   7.162  0.2529 -0.0499  0.3207
31594SOL     OW95359   6.642   3.576   4.736  0.1173  0.0377  0.0218
31594SOL    HW195360   6.565   3.632   4.721  0.6891  1.6855  2.6789
31594SOL    HW295361   6.715   3.625   4.698  0.2143 -0.3908 -0.3564
31595SOL     OW95362   9.111   1.669   0.342  0.1413 -0.0071  0.3597
31595SOL    HW195363   9.119   1.591   0.286 -0.4268 -0.1656  0.4957
31595SOL    HW295364   9.093   1.634   0.429 -0.2208  0.2766  0.4017
31596SOL     OW95365   5.270   0.769   8.063 -0.6588 -0.1786  0.7887
31596SOL    HW195366   5.226   0.735   7.985 -1.5613  1.6731  0.4346
31596SOL    HW295367   5.361   0.782   8.035 -0.8736  0.0394  0.1663
31597SOL     OW95368   7.083   4.501   9.647  0.7016 -0.5172 -0.1213
31597SOL    HW195369   7.058   4.592   9.663  0.7870 -0.6342  0.7349
31597SOL    HW295370   7.036   4.477   9.567 -1.6223 -0.5915  1.1635
31598SOL     OW95371   3.593   8.612   4.267 -0.3919  0.6108  0.0897
31598SOL    HW195372   3.644   8.664   4.329  2.0592  0.6316 -1.8029
31598SOL    HW295373   3.655   8.549   4.231 -2.1176 -0.4440 -1.2122
31599SOL     OW95374   7.551   4.530   7.903  0.4063  0.1223 -0.3910
31599SOL    HW195375   7.472   4.551   7.852  0.3261 -0.6837 -0.6104
31599SOL    HW295376   7.534   4.568   7.989 -0.0458  0.3093 -0.5572
31600SOL     OW95377   8.268   0.427   1.547  0.3058  0.1500 -0.0097
31600SOL    HW195378   8.232   0.451   1.632  0.3144  1.3482 -0.3271
31600SOL    HW295379   8.194   0.391   1.499  0.3202 -0.6086  0.5321
31601SOL     OW95380   5.907   6.294   3.917  0.2966  0.5287  0.0889
31601SOL    HW195381   5.917   6.235   3.992 -0.6740 -1.2316 -1.1004
31601SOL    HW295382   5.823   6.336   3.931  0.5302  0.8960  0.4240
31602SOL     OW95383   6.455   6.853   1.102  0.0924 -0.0378  0.0243
31602SOL    HW195384   6.423   6.936   1.068 -0.6283  0.5001  1.8569
31602SOL    HW295385   6.404   6.786   1.056  0.6966  0.4927 -1.4827
31603SOL     OW95386   2.686   0.555   7.794 -0.0298  0.1581 -0.4177
31603SOL    HW195387   2.727   0.623   7.846  1.6910 -0.2523 -1.1616
31603SOL    HW295388   2.683   0.478   7.851 -0.4840  0.4055 -0.1072
31604SOL     OW95389   3.674   1.337   6.994 -0.0909  0.0981 -0.6903
31604SOL    HW195390   3.753   1.386   7.015  0.0844 -0.1091 -0.8651
31604SOL    HW295391   3.702   1.270   6.932 -0.2644 -0.4195 -0.2221
31605SOL     OW95392   5.101   1.074   7.801 -0.1920 -0.0862 -0.0523
31605SOL    HW195393   5.098   1.083   7.897  1.7385  0.3402  0.0009
31605SOL    HW295394   5.167   1.007   7.785 -1.4925 -1.1988 -1.0923
31606SOL     OW95395   5.016   9.904   8.090 -0.2622  0.5501  0.2915
31606SOL    HW195396   4.954   9.850   8.041  0.0223 -0.7404  1.3004
31606SOL    HW295397   5.080   9.842   8.125 -0.1909  1.4618  1.8917
31607SOL     OW95398   3.431   2.728   9.876  0.3621 -0.7133 -0.2649
31607SOL    HW195399   3.387   2.717   9.792 -0.2229 -0.9678  0.0663
31607SOL    HW295400   3.402   2.814   9.907  2.3451  0.4272 -1.3351
31608SOL     OW95401   6.267   7.437   3.500  0.2174 -0.1557 -0.6454
31608SOL    HW195402   6.209   7.478   3.563 -1.6345 -1.4552 -1.4151
31608SOL    HW295403   6.343   7.409   3.552 -0.2410  0.7577  0.5638
31609SOL     OW95404   4.608   2.243   6.941 -0.0987 -0.5137 -0.4381
31609SOL    HW195405   4.624   2.244   6.847 -0.3499  1.1208 -0.4839
31609SOL    HW295406   4.694   2.224   6.979  0.2502 -0.0490 -0.9695
31610SOL     OW95407   4.528   2.445   3.904  0.6437  0.3704 -0.7474
31610SOL    HW195408   4.490   2.531   3.923  0.1478  0.3195 -1.4839
31610SOL    HW295409   4.620   2.454   3.929  1.4142  2.1682 -3.7714
31611SOL     OW95410   1.705   9.920   6.281  0.1133 -0.6871 -0.1203
31611SOL    HW195411   1.770   9.945   6.347  2.2852 -2.2975 -1.5244
31611SOL    HW295412   1.679   9.832   6.305 -0.4025 -0.6274 -0.4500
31612SOL     OW95413   6.455   7.223   4.689 -0.3126  0.0876  0.2386
31612SOL    HW195414   6.502   7.193   4.611 -0.3966  1.4325 -0.3628
31612SOL    HW295415   6.368   7.247   4.657 -0.7458 -0.4639  0.9724
31613SOL     OW95416   0.841   6.279   5.364 -0.1442  0.3338 -0.4598
31613SOL    HW195417   0.858   6.229   5.443  3.6932  0.3720 -1.0839
31613SOL    HW295418   0.825   6.213   5.296 -0.0839  0.1755 -0.3188
31614SOL     OW95419   2.548   6.367   7.148 -0.0808 -0.5457  0.6498
31614SOL    HW195420   2.623   6.371   7.207 -1.6321 -1.0974  2.7693
31614SOL    HW295421   2.498   6.446   7.167 -0.5603 -0.6892  0.0112
31615SOL     OW95422   1.434   4.511   2.600  0.2244  0.0200  0.5964
31615SOL    HW195423   1.358   4.503   2.542  0.8224 -2.2492  0.0619
31615SOL    HW295424   1.490   4.576   2.557 -1.8413  2.6465  1.5849
31616SOL     OW95425   7.215   6.170   7.159  0.7505  0.3660  0.2647
31616SOL    HW195426   7.245   6.132   7.076  0.7169 -1.9256  1.2224
31616SOL    HW295427   7.120   6.169   7.153  0.5318 -3.5254  1.7149
31617SOL     OW95428   1.613   8.322   1.025 -0.6026  0.6179 -0.5160
31617SOL    HW195429   1.534   8.365   0.993 -0.1269  1.4799 -0.5541
31617SOL    HW295430   1.613   8.339   1.119  0.0498  1.4841 -0.6627
31618SOL     OW95431   4.820   7.703   8.634 -0.1287  0.1424  0.4025
31618SOL    HW195432   4.855   7.619   8.665 -1.4138 -0.9526 -0.9428
31618SOL    HW295433   4.725   7.692   8.640 -0.3088  1.7404  0.7650
31619SOL     OW95434   2.597   5.741   9.534  0.7632 -0.2151 -0.4357
31619SOL    HW195435   2.651   5.714   9.459  0.3515  0.8388 -1.1412
31619SOL    HW295436   2.659   5.753   9.605  1.4101  0.4825 -1.0956
31620SOL     OW95437   6.573   7.255   0.801  0.0529  0.1441 -0.4890
31620SOL    HW195438   6.480   7.278   0.810  0.2008  0.6532 -0.2079
31620SOL    HW295439   6.590   7.257   0.707 -0.0641  0.6943 -0.5004
31621SOL     OW95440   4.614   9.751   9.013  0.2210  0.6740  0.0940
31621SOL    HW195441   4.622   9.699   8.932  1.4046  1.6597 -0.4606
31621SOL    HW295442   4.537   9.806   8.998  1.2759  1.9251 -1.0480
31622SOL     OW95443   8.074   0.001   2.225 -0.2990  0.1546  0.2883
31622SOL    HW195444   8.016  -0.025   2.153 -0.3462  2.8744 -0.7638
31622SOL    HW295445   8.019   0.056   2.281  0.6417  0.8192  0.5748
31623SOL     OW95446   9.496   1.074   0.747 -0.2032 -0.4899 -0.1419
31623SOL    HW195447   9.449   1.025   0.813  1.0941 -0.3751  0.9125
31623SOL    HW295448   9.457   1.162   0.750  0.0816 -0.3837  0.7372
31624SOL     OW95449   4.950   4.212   9.392  0.1205 -0.2293 -0.2462
31624SOL    HW195450   5.045   4.210   9.406  0.3337  0.9869 -1.3704
31624SOL    HW295451   4.937   4.159   9.314 -0.2946 -1.4349  0.6141
31625SOL     OW95452   0.166   4.787   3.437  0.1767  0.2497  0.0399
31625SOL    HW195453   0.226   4.843   3.487 -1.3340  1.8160  0.1723
31625SOL    HW295454   0.089   4.841   3.422 -1.0407 -1.5418 -0.5440
31626SOL     OW95455   4.498   4.401   4.645  0.4305 -0.4880  0.3997
31626SOL    HW195456   4.445   4.421   4.568  0.7512 -0.0292  0.2903
31626SOL    HW295457   4.444   4.428   4.719  0.5808  0.1516  0.2808
31627SOL     OW95458   0.619   6.883   8.913 -0.1651 -0.4346 -0.1494
31627SOL    HW195459   0.611   6.796   8.953 -0.2148 -0.9254 -1.2035
31627SOL    HW295460   0.705   6.884   8.873 -0.2274 -0.0500 -0.2788
31628SOL     OW95461   5.206   5.845   6.151 -0.3640 -0.4181  0.3675
31628SOL    HW195462   5.177   5.868   6.240 -0.3072  2.1683 -0.2042
31628SOL    HW295463   5.301   5.843   6.157 -0.1954  2.4783 -0.1293
31629SOL     OW95464   9.279   2.074   9.288  0.2088  0.0975 -0.5869
31629SOL    HW195465   9.197   2.065   9.239  0.6225 -0.8898 -1.1299
31629SOL    HW295466   9.337   2.121   9.229 -0.2679  1.7231  0.1943
31630SOL     OW95467   4.066   5.126   1.722 -0.2347  1.3416  0.2098
31630SOL    HW195468   4.027   5.088   1.644  2.3412  1.0152 -1.0516
31630SOL    HW295469   4.061   5.057   1.788  1.2054  0.0129 -0.9858
31631SOL     OW95470   5.530   3.458   3.279  0.5026 -0.6984 -0.4218
31631SOL    HW195471   5.441   3.427   3.258 -0.2661  0.2351  1.2281
31631SOL    HW295472   5.567   3.484   3.195 -0.7610 -1.2008 -1.1626
31632SOL     OW95473   8.308   3.259   4.357 -0.4081 -0.0292 -0.1610
31632SOL    HW195474   8.249   3.224   4.290  1.0778 -0.8207 -1.0895
31632SOL    HW295475   8.354   3.331   4.314 -0.5644  0.4985  0.5204
31633SOL     OW95476   0.648   3.570   6.500 -0.3073  0.1576  0.4454
31633SOL    HW195477   0.559   3.607   6.504 -0.8187 -0.7122 -1.5372
31633SOL    HW295478   0.640   3.485   6.544 -0.7979 -0.4455 -0.7510
31634SOL     OW95479   8.628   6.136   2.740 -0.2579 -0.8251 -0.5725
31634SOL    HW195480   8.535   6.138   2.715  0.5292 -0.5595 -4.0070
31634SOL    HW295481   8.650   6.227   2.758 -0.2710 -0.6090 -1.5936
31635SOL     OW95482   0.776   0.627   9.130 -0.4903  0.1885  0.3485
31635SOL    HW195483   0.761   0.533   9.139  0.8266 -0.5377 -3.3576
31635SOL    HW295484   0.691   0.662   9.104 -0.3528 -0.5261 -1.1447
31636SOL     OW95485   1.829   6.054   6.589 -0.5454  0.0335  0.1669
31636SOL    HW195486   1.907   5.998   6.588 -1.6744 -1.7107 -2.6802
31636SOL    HW295487   1.755   5.993   6.587 -1.8762  1.5650 -1.5446
31637SOL     OW95488   0.299   6.965   5.869 -0.1152  0.0640 -0.2125
31637SOL    HW195489   0.298   6.884   5.818  1.1585  0.9496 -1.7710
31637SOL    HW295490   0.301   6.937   5.960 -1.5545 -1.6111 -0.6555
31638SOL     OW95491   6.794   7.133   1.848  0.2106  0.0661  0.5783
31638SOL    HW195492   6.703   7.156   1.834 -0.0182 -0.8214  0.5145
31638SOL    HW295493   6.841   7.216   1.845 -0.3936  0.3994 -0.9766
31639SOL     OW95494   7.510   5.889   4.599 -0.0125 -0.0555  0.3286
31639SOL    HW195495   7.554   5.897   4.683 -0.2419 -0.0655  0.4515
31639SOL    HW295496   7.418   5.872   4.621 -0.5560  2.2734  0.1236
31640SOL     OW95497   8.738   0.026   8.139  0.0490  0.2707 -0.4968
31640SOL    HW195498   8.708   0.117   8.136  0.6719  0.4868 -0.2968
31640SOL    HW295499   8.674  -0.022   8.086  0.0333  0.9130 -1.0806
31641SOL     OW95500   0.158   7.112   2.970 -0.5756  0.4455 -0.0971
31641SOL    HW195501   0.183   7.185   3.026  0.4368  0.1568 -0.1613
31641SOL    HW295502   0.214   7.039   2.997 -1.0291 -0.0929 -0.5563
31642SOL     OW95503   9.912   8.159   6.431 -0.0853  0.3732  0.5831
31642SOL    HW195504   9.825   8.123   6.413 -0.3443  1.9895 -1.9290
31642SOL    HW295505   9.968   8.082   6.440 -1.6035 -0.6884  1.3714
31643SOL     OW95506   2.709   4.368   6.731 -0.2149  0.6077 -0.1618
31643SOL    HW195507   2.746   4.283   6.755 -2.4328 -0.1752  0.7651
31643SOL    HW295508   2.743   4.429   6.796 -1.7187 -0.4175  1.7111
31644SOL     OW95509   3.382   8.609   3.176  0.0892 -0.4022 -0.2186
31644SOL    HW195510   3.333   8.685   3.207  1.5585  0.3629  0.2959
31644SOL    HW295511   3.359   8.539   3.237  0.1119  0.1006  0.3726
31645SOL     OW95512   4.539   4.643   5.654 -0.4352 -0.3130  0.0845
31645SOL    HW195513   4.446   4.648   5.631 -0.2052  1.5038 -0.5866
31645SOL    HW295514   4.581   4.609   5.575 -0.5669 -1.9023  0.6447
31646SOL     OW95515   8.584   7.573   2.303  0.1503 -0.1446 -0.8070
31646SOL    HW195516   8.527   7.649   2.305  0.2128 -0.0990  0.6041
31646SOL    HW295517   8.586   7.546   2.211 -1.3902  0.4039 -1.0287
31647SOL     OW95518   9.430   6.926   0.245 -0.7080  0.2861 -0.1928
31647SOL    HW195519   9.503   6.965   0.197  0.7850 -1.1068  0.7971
31647SOL    HW295520   9.410   6.989   0.314  2.1830 -0.8078  1.8754
31648SOL     OW95521   3.286   2.773   9.028  0.6397 -0.4520 -0.5536
31648SOL    HW195522   3.323   2.711   8.966  3.6175 -0.6654  1.2184
31648SOL    HW295523   3.247   2.718   9.097  1.2042 -0.3286 -0.1291
31649SOL     OW95524   9.083   1.088   9.558  0.1342  0.0302 -0.2710
31649SOL    HW195525   9.121   1.104   9.645  0.2568 -0.2359 -0.2745
31649SOL    HW295526   8.994   1.121   9.564 -0.0735 -0.5922  0.1650
31650SOL     OW95527   1.154   2.976   5.009  0.8070 -0.0491 -0.1588
31650SOL    HW195528   1.129   2.885   5.027 -0.5951  0.6496  1.8042
31650SOL    HW295529   1.244   2.983   5.042  0.2363 -0.2657  1.5344
31651SOL     OW95530   9.280   0.360   6.930  0.0849 -0.1325  0.2536
31651SOL    HW195531   9.243   0.283   6.972  0.8108  0.3175  1.7813
31651SOL    HW295532   9.354   0.384   6.985  0.9545  0.6214 -1.1791
31652SOL     OW95533   2.987   9.645   3.922  0.5841 -0.0217 -0.4347
31652SOL    HW195534   2.958   9.665   3.833  0.3521 -2.0344 -0.8548
31652SOL    HW295535   3.024   9.557   3.916  1.9285  0.3721  1.1816
31653SOL     OW95536   2.276   7.311   7.948  0.3755 -0.4543  0.4703
31653SOL    HW195537   2.358   7.263   7.934  1.0072  0.2081  1.7377
31653SOL    HW295538   2.249   7.338   7.861 -0.0966 -3.1936 -0.3347
31654SOL     OW95539   9.810   0.180   8.131  0.2422 -0.1722 -0.0619
31654SOL    HW195540   9.747   0.242   8.167  0.0381 -0.3222 -0.1607
31654SOL    HW295541   9.763   0.136   8.060 -0.0019 -1.2749  0.7646
31655SOL     OW95542   1.268   7.533   3.121  0.3228 -0.3722 -0.1526
31655SOL    HW195543   1.281   7.464   3.186 -0.2354  0.4066  0.8197
31655SOL    HW295544   1.203   7.592   3.161 -1.0860 -0.5931 -1.9882
31656SOL     OW95545   8.820   6.898   0.153  0.0470 -0.0032  0.0356
31656SOL    HW195546   8.783   6.850   0.079  0.8025 -2.2279  1.0324
31656SOL    HW295547   8.909   6.865   0.162 -0.3303 -0.5603  2.5081
31657SOL     OW95548   4.143   3.070   3.898  0.3867 -0.7767 -0.3981
31657SOL    HW195549   4.060   3.110   3.924  0.5950 -0.9381  0.5866
31657SOL    HW295550   4.125   3.029   3.814 -1.1497 -2.6120  0.7453
31658SOL     OW95551   9.558   2.296   9.522 -0.2184 -0.0172 -0.6657
31658SOL    HW195552   9.510   2.337   9.450  0.5870 -0.3114 -1.4005
31658SOL    HW295553   9.635   2.257   9.480  1.5960  1.8830  0.6364
31659SOL     OW95554   1.374   1.349   1.286  0.4211 -0.4800 -0.0998
31659SOL    HW195555   1.338   1.265   1.314  1.1392 -0.4781  0.8902
31659SOL    HW295556   1.304   1.412   1.303  0.6362 -0.5684  1.1975
31660SOL     OW95557   8.368   2.754   9.364 -0.5705 -0.4631 -0.1833
31660SOL    HW195558   8.451   2.750   9.315 -0.8857 -0.5905 -0.7171
31660SOL    HW295559   8.356   2.847   9.382 -0.9422 -0.2890 -1.2258
31661SOL     OW95560   8.855   0.522   6.924 -0.5273 -0.0281  0.6215
31661SOL    HW195561   8.850   0.494   7.015 -1.5501 -0.2912  0.5013
31661SOL    HW295562   8.764   0.524   6.894 -0.1413 -1.2570 -0.7821
31662SOL     OW95563   6.676   9.832   5.785 -0.0282 -0.2933 -0.5107
31662SOL    HW195564   6.630   9.906   5.744 -1.4854 -0.4472  0.7512
31662SOL    HW295565   6.768   9.860   5.787 -0.3049  0.7968 -1.5019
31663SOL     OW95566   2.966   8.622   9.650 -0.3373 -0.4559  0.0985
31663SOL    HW195567   2.949   8.713   9.674 -0.8291 -0.5384  0.0709
31663SOL    HW295568   3.052   8.603   9.688  1.0007  0.8070 -2.1301
31664SOL     OW95569   6.258   3.123   4.538  0.0392  0.2312  0.5079
31664SOL    HW195570   6.229   3.032   4.533  0.9004 -0.0032 -0.4154
31664SOL    HW295571   6.346   3.118   4.577  0.3597  0.6013 -0.1579
31665SOL     OW95572   1.095   1.275   4.275  0.6724  0.6723  0.5479
31665SOL    HW195573   1.151   1.313   4.207 -1.3512  1.6934 -0.6357
31665SOL    HW295574   1.021   1.336   4.282 -0.2172 -0.5119  2.1956
31666SOL     OW95575   1.228   6.256   7.986 -0.4126 -0.3917 -0.5497
31666SOL    HW195576   1.257   6.304   8.064  0.1220 -1.5926  0.0299
31666SOL    HW295577   1.225   6.321   7.917  2.6196  0.0730 -0.3804
31667SOL     OW95578   9.166   3.759   2.584 -0.4828  0.1841  0.5739
31667SOL    HW195579   9.076   3.792   2.584 -0.7487 -0.3574 -1.7091
31667SOL    HW295580   9.168   3.693   2.653 -1.9782 -0.0864  0.3904
31668SOL     OW95581   9.163   4.693   1.833  0.9242 -0.4079 -0.2847
31668SOL    HW195582   9.187   4.714   1.923  1.6656  1.5637 -0.8780
31668SOL    HW295583   9.246   4.696   1.785  0.5102 -1.2179 -1.0854
31669SOL     OW95584   4.813   8.761   7.443 -0.5909 -0.9994 -0.0529
31669SOL    HW195585   4.770   8.737   7.525 -0.1182 -0.0537  0.4903
31669SOL    HW295586   4.745   8.805   7.392 -0.6285 -0.7045  0.2486
31670SOL     OW95587   9.243   1.696   4.433  0.2182  0.9481  0.6264
31670SOL    HW195588   9.157   1.654   4.422  0.2167  1.1083 -0.0085
31670SOL    HW295589   9.305   1.623   4.433  0.0936  0.8431  0.9200
31671SOL     OW95590   0.354   9.744   5.198 -0.3684 -0.4153  0.0362
31671SOL    HW195591   0.391   9.828   5.225 -0.6666  0.4315 -2.0176
31671SOL    HW295592   0.301   9.716   5.272 -0.2473  1.2019  0.7735
31672SOL     OW95593   8.795   5.058   2.630  0.0989  0.1453  0.6765
31672SOL    HW195594   8.738   4.987   2.599  0.3384  0.3841 -0.3541
31672SOL    HW295595   8.741   5.107   2.691 -0.5811 -0.0442  0.2397
31673SOL     OW95596   5.554   2.495   5.976 -0.5029  0.3331  0.1433
31673SOL    HW195597   5.592   2.413   5.944  0.2519  0.1000  1.5713
31673SOL    HW295598   5.460   2.487   5.957 -0.4212 -0.8050  0.1517
31674SOL     OW95599   0.733   4.819   9.287  0.3033 -0.3986  0.5872
31674SOL    HW195600   0.724   4.773   9.203  0.8265 -0.3643  0.5039
31674SOL    HW295601   0.728   4.912   9.265  0.2511 -0.3942  0.6184
31675SOL     OW95602   7.868   6.764   8.478  0.0496  0.0839  0.2352
31675SOL    HW195603   7.914   6.826   8.421 -1.5291 -0.1528 -1.3947
31675SOL    HW295604   7.912   6.680   8.462 -2.1959 -0.6549 -3.1249
31676SOL     OW95605   3.632   9.934   9.444 -0.4523 -0.7298  0.2550
31676SOL    HW195606   3.563   9.926   9.510 -0.3285 -1.1832  0.3275
31676SOL    HW295607   3.623   9.856   9.390 -0.0901 -0.7143  0.1738
31677SOL     OW95608   7.655   9.667   2.138  0.5062  0.2229  0.4091
31677SOL    HW195609   7.621   9.744   2.093 -0.7566  0.2118  1.2957
31677SOL    HW295610   7.719   9.630   2.076 -0.6615  0.5859 -1.0913
31678SOL     OW95611   9.251  -0.011   1.883  0.2662 -0.8767 -0.1022
31678SOL    HW195612   9.215   0.012   1.969 -0.3596  0.3132 -0.6516
31678SOL    HW295613   9.310   0.061   1.862 -0.9045 -0.2470 -1.4014
31679SOL     OW95614   3.688   8.049   3.698 -0.3446 -0.0949 -0.1706
31679SOL    HW195615   3.719   8.130   3.659 -1.1556  0.1324 -0.3602
31679SOL    HW295616   3.751   7.982   3.669  0.2948  0.4441 -0.0518
31680SOL     OW95617   7.659   5.394   5.314  0.2984  0.5488 -0.8220
31680SOL    HW195618   7.713   5.403   5.393 -0.9095  2.4263 -0.1467
31680SOL    HW295619   7.583   5.342   5.343  0.6287 -0.1391 -1.1777
31681SOL     OW95620   2.265   6.266   4.310 -0.6717 -0.4550 -0.6910
31681SOL    HW195621   2.299   6.350   4.342 -0.4286  0.1960 -2.5532
31681SOL    HW295622   2.323   6.243   4.237  0.2109 -3.0198  0.6740
31682SOL     OW95623   1.307   6.885   3.361  0.0962 -0.1954  0.3330
31682SOL    HW195624   1.327   6.961   3.415  1.8518 -0.1543 -0.3352
31682SOL    HW295625   1.267   6.921   3.282 -0.3569 -0.0906  0.6052
31683SOL     OW95626   8.083   3.273   1.149  0.3979 -0.3959 -0.2539
31683SOL    HW195627   7.996   3.248   1.119  1.0133  0.6258 -3.2124
31683SOL    HW295628   8.134   3.192   1.146 -0.0101 -0.6569 -0.1904
31684SOL     OW95629   5.707   4.457   1.594  0.2082  0.0839  0.0288
31684SOL    HW195630   5.775   4.401   1.631 -1.8562 -0.6950  2.9928
31684SOL    HW295631   5.715   4.540   1.640  0.0084  0.4719 -0.6110
31685SOL     OW95632   1.129   9.438   2.964  0.1317 -0.4705  0.4118
31685SOL    HW195633   1.122   9.387   3.045 -1.6847 -0.4611  0.3071
31685SOL    HW295634   1.170   9.377   2.902 -0.5716 -1.2916  0.7201
31686SOL     OW95635   8.056   5.598   0.709  0.3160  0.0126  0.0164
31686SOL    HW195636   8.143   5.638   0.707 -0.5140  1.9665  0.7356
31686SOL    HW295637   8.016   5.631   0.789 -1.8490  0.8770 -1.3411
31687SOL     OW95638   6.036   0.709   8.345 -0.4483 -0.5680 -0.2189
31687SOL    HW195639   6.076   0.649   8.408 -1.0428  0.8813  1.6394
31687SOL    HW295640   6.070   0.795   8.369  0.3291 -0.0565 -2.7591
31688SOL     OW95641   7.579   3.894   6.016  0.0821  0.0732 -0.2444
31688SOL    HW195642   7.514   3.824   6.017 -0.3849  0.4969 -0.3566
31688SOL    HW295643   7.626   3.882   5.933 -0.5986  0.4315 -0.6886
31689SOL     OW95644   5.957   4.548   8.430  0.1012 -0.7421 -0.4008
31689SOL    HW195645   5.893   4.480   8.451 -1.2584  0.3456 -0.8546
31689SOL    HW295646   5.930   4.582   8.345  2.5959 -1.6962 -1.6805
31690SOL     OW95647   9.899   7.130   0.896 -0.4496 -0.2263  0.3289
31690SOL    HW195648   9.875   7.222   0.906  0.2130  0.2130 -1.6731
31690SOL    HW295649   9.965   7.115   0.964 -0.3732  0.8597  0.5120
31691SOL     OW95650   3.812   6.698   5.979  0.2798 -0.2990 -0.5665
31691SOL    HW195651   3.722   6.694   6.014  0.5405 -1.0841  0.0512
31691SOL    HW295652   3.807   6.653   5.895 -0.1301  0.6276 -1.0432
31692SOL     OW95653   7.233   5.690   7.960  0.5485  0.0622  0.1340
31692SOL    HW195654   7.146   5.727   7.979 -0.5379 -2.1670 -0.1781
31692SOL    HW295655   7.247   5.710   7.868 -0.2402 -0.6463 -0.1574
31693SOL     OW95656   1.903   1.143   3.406  0.0937  0.0618 -0.3227
31693SOL    HW195657   1.895   1.117   3.315 -2.2844 -1.4887  0.2435
31693SOL    HW295658   1.844   1.218   3.415  0.9139  0.7142 -0.1885
31694SOL     OW95659   4.553   7.620   5.853 -0.5640 -0.5178 -0.3227
31694SOL    HW195660   4.536   7.570   5.774  2.0025  0.3214 -1.5327
31694SOL    HW295661   4.643   7.651   5.843 -0.3310  0.1288  2.6718
31695SOL     OW95662   7.167   4.793   3.519  0.6600 -0.1663  0.5385
31695SOL    HW195663   7.215   4.791   3.436  0.1594  1.4933  0.1715
31695SOL    HW295664   7.233   4.769   3.585  1.2368 -0.7994 -0.2506
31696SOL     OW95665   7.452   1.028   0.786 -0.7751  0.7617  0.1333
31696SOL    HW195666   7.447   1.049   0.880 -1.4835 -0.0276  0.2819
31696SOL    HW295667   7.392   1.090   0.744  1.0637  2.4991 -0.0709
31697SOL     OW95668   3.837   1.965   9.117 -0.2044 -0.2750  0.0404
31697SOL    HW195669   3.869   1.911   9.045 -1.2685  0.3403 -0.9231
31697SOL    HW295670   3.914   2.015   9.145 -0.1028  0.6113 -1.7145
31698SOL     OW95671   1.143   3.836   7.235  0.1304 -0.0358 -0.1071
31698SOL    HW195672   1.127   3.915   7.185  0.0207 -1.4669 -2.4740
31698SOL    HW295673   1.075   3.836   7.303 -1.9415  0.3585 -2.0509
31699SOL     OW95674   6.293   3.377   8.688 -0.6871 -0.3562 -0.3600
31699SOL    HW195675   6.246   3.340   8.762 -0.4778  0.6344  0.2806
31699SOL    HW295676   6.247   3.459   8.668 -0.2015 -0.1713 -0.7480
31700SOL     OW95677   3.224   0.553   5.051  0.4329  0.5849  0.3253
31700SOL    HW195678   3.296   0.612   5.028 -0.7343  2.0318  0.2192
31700SOL    HW295679   3.223   0.554   5.147  1.5777 -0.7736  0.3811
31701SOL     OW95680  10.006   5.351   3.632  0.6844 -0.3460 -0.2884
31701SOL    HW195681  10.008   5.311   3.719 -2.1305 -0.5916 -0.2212
31701SOL    HW295682   9.916   5.382   3.622  0.4990 -1.5175 -3.6115
31702SOL     OW95683   9.832   9.459   8.200 -0.4661  0.3632 -0.0136
31702SOL    HW195684   9.921   9.467   8.233  0.4877 -4.1202 -0.8303
31702SOL    HW295685   9.841   9.458   8.105 -0.7783 -3.1084 -0.1371
31703SOL     OW95686   0.476   1.645   2.976 -0.1616  0.1604  0.1467
31703SOL    HW195687   0.523   1.714   3.023  0.5695 -0.4036  0.2696
31703SOL    HW295688   0.530   1.567   2.988 -0.2075 -0.1116 -1.2453
31704SOL     OW95689   1.653   6.477   1.107  0.4291  0.8461  0.2252
31704SOL    HW195690   1.726   6.415   1.102 -0.2584 -0.0525  0.8871
31704SOL    HW295691   1.630   6.481   1.199 -0.4241  1.0257  0.0185
31705SOL     OW95692   2.410   5.570   3.837 -0.3648 -0.7741 -0.2433
31705SOL    HW195693   2.360   5.583   3.756  1.0314 -1.0469 -1.1631
31705SOL    HW295694   2.347   5.530   3.897 -1.0529 -1.8500 -1.6239
31706SOL     OW95695   6.799   1.656   4.768  0.0331 -0.1597 -0.3424
31706SOL    HW195696   6.820   1.613   4.685  0.6024  1.7277 -1.2308
31706SOL    HW295697   6.884   1.667   4.811 -0.0333  0.6096 -0.4033
31707SOL     OW95698   8.282   8.145   7.614  0.7908  0.1132  0.0443
31707SOL    HW195699   8.344   8.157   7.686 -0.1985 -1.2481  1.1962
31707SOL    HW295700   8.263   8.051   7.615  0.4557  0.1309 -1.7699
31708SOL     OW95701   1.925   6.724   5.309 -0.6154  0.0326 -0.1510
31708SOL    HW195702   2.001   6.698   5.257 -0.9765 -0.0865 -0.6278
31708SOL    HW295703   1.956   6.723   5.399 -0.4586 -1.5463 -0.1927
31709SOL     OW95704   8.419   6.212   4.891 -0.1149 -0.0044  0.1003
31709SOL    HW195705   8.509   6.226   4.863 -0.0275  0.6562  0.6769
31709SOL    HW295706   8.404   6.118   4.878  0.2976  0.0724 -1.0059
31710SOL     OW95707   7.272   4.474   4.021 -0.6070 -0.1912  0.0180
31710SOL    HW195708   7.299   4.459   4.111  1.8306 -0.1062 -0.6396
31710SOL    HW295709   7.178   4.495   4.027 -0.3793  0.3669  2.5672
31711SOL     OW95710   6.118   2.600   7.826  0.3875  0.5674 -0.0516
31711SOL    HW195711   6.033   2.639   7.808 -0.2175 -0.0865  1.2628
31711SOL    HW295712   6.140   2.629   7.914 -0.5356 -2.6285  1.4074
31712SOL     OW95713   4.193   5.259   6.701 -0.1242 -0.1511 -0.1187
31712SOL    HW195714   4.270   5.315   6.692  1.1638 -1.9055 -0.5901
31712SOL    HW295715   4.190   5.209   6.619 -1.4924 -0.4444  0.0963
31713SOL     OW95716   6.964   0.561   6.578  0.3493 -0.7465 -0.2366
31713SOL    HW195717   6.887   0.540   6.631  0.3424 -0.3066 -0.0621
31713SOL    HW295718   6.972   0.489   6.517 -1.4192  0.1422 -1.6211
31714SOL     OW95719   8.839   7.834   9.014 -0.5827 -0.0862  0.2157
31714SOL    HW195720   8.853   7.832   9.109  1.2447 -2.0625 -0.0161
31714SOL    HW295721   8.866   7.922   8.987  2.7354 -0.7027  1.1008
31715SOL     OW95722   6.235   5.854   0.773 -0.3527  0.0569  0.4279
31715SOL    HW195723   6.229   5.912   0.849 -0.5141  0.5611  0.0401
31715SOL    HW295724   6.327   5.830   0.768 -0.3855 -0.1743  0.9279
31716SOL     OW95725   2.826   5.003   2.919  0.1997  0.1838  0.1828
31716SOL    HW195726   2.863   5.077   2.872  0.7455 -0.6525 -0.7331
31716SOL    HW295727   2.742   4.985   2.876  1.0697 -1.0944 -1.0442
31717SOL     OW95728   6.061   5.398   8.725  1.1012 -0.2678 -0.2610
31717SOL    HW195729   6.135   5.457   8.739 -0.3858  1.2820  1.4596
31717SOL    HW295730   6.013   5.436   8.652  1.7681 -1.0992 -1.1665
31718SOL     OW95731   4.254   3.576   7.532 -0.1405 -0.4083 -0.4175
31718SOL    HW195732   4.253   3.485   7.562  2.5176 -0.5585 -0.5072
31718SOL    HW295733   4.210   3.625   7.602  1.3503 -1.3926  1.3029
31719SOL     OW95734   1.199   2.893   3.076 -0.1403 -0.0908  0.7900
31719SOL    HW195735   1.275   2.950   3.062 -0.5745  0.8792  2.1879
31719SOL    HW295736   1.145   2.939   3.139 -0.4325 -2.1419  2.1465
31720SOL     OW95737   5.727   5.035   5.198 -0.0692  0.0207  0.0013
31720SOL    HW195738   5.764   5.040   5.286  0.3309  0.4891 -0.1878
31720SOL    HW295739   5.803   5.030   5.141 -0.3332 -0.5906 -0.3012
31721SOL     OW95740   1.242   6.364   9.654 -0.3502 -0.1339  0.3766
31721SOL    HW195741   1.285   6.445   9.626  0.7221 -0.9766 -0.4873
31721SOL    HW295742   1.283   6.343   9.738  0.6469 -0.7022 -0.2374
31722SOL     OW95743   9.517   4.812   6.423  0.6126 -0.1472 -0.0960
31722SOL    HW195744   9.440   4.869   6.421  0.8338  0.1716 -2.8642
31722SOL    HW295745   9.482   4.726   6.447 -0.7373 -0.1171 -1.7536
31723SOL     OW95746   2.442   2.935   6.689 -0.6193  0.7364 -0.2589
31723SOL    HW195747   2.513   2.965   6.632 -1.0261 -1.4002 -2.0119
31723SOL    HW295748   2.392   3.014   6.709  1.7276  2.1821  0.3802
31724SOL     OW95749   8.920   9.440   9.275 -0.3947  0.8805  0.3994
31724SOL    HW195750   8.898   9.477   9.189  1.4252  0.2082 -0.4155
31724SOL    HW295751   8.907   9.346   9.264 -1.6397  0.9313  1.3647
31725SOL     OW95752   1.438   4.546   7.588  0.3806 -0.3275 -0.0048
31725SOL    HW195753   1.343   4.546   7.600  0.3556  0.5665 -0.0892
31725SOL    HW295754   1.457   4.463   7.544 -0.5382  0.0987 -1.2679
31726SOL     OW95755   3.294   3.945   5.249  0.2634 -0.1672  0.7849
31726SOL    HW195756   3.300   3.852   5.269  0.3341 -0.4037 -0.3314
31726SOL    HW295757   3.232   3.951   5.177  1.6150  0.4700 -0.3706
31727SOL     OW95758   0.223   4.837   2.249  0.5615 -0.1879  0.1987
31727SOL    HW195759   0.180   4.922   2.263  1.3593  0.4287 -0.9636
31727SOL    HW295760   0.152   4.773   2.258 -0.2364  0.6642  0.1817
31728SOL     OW95761   9.058   5.312   8.224  0.6248 -0.5934  0.0029
31728SOL    HW195762   9.008   5.270   8.154  0.3772  0.9963 -0.8158
31728SOL    HW295763   9.147   5.277   8.213  0.5244 -0.5865 -0.9227
31729SOL     OW95764   6.175   8.392   5.456  0.0688 -0.0883  0.1086
31729SOL    HW195765   6.167   8.473   5.405  1.3009 -0.9096 -1.4986
31729SOL    HW295766   6.206   8.328   5.393  3.3240 -0.8070  2.2340
31730SOL     OW95767   8.350   7.124   0.496 -0.4765 -0.1628 -0.3638
31730SOL    HW195768   8.308   7.054   0.445  0.4382  0.7020 -2.4355
31730SOL    HW295769   8.365   7.194   0.432  0.9670  0.9208  1.0788
31731SOL     OW95770   5.594   5.666   5.823  0.2586  0.1521 -0.2284
31731SOL    HW195771   5.627   5.684   5.735 -1.8933 -1.3280 -1.4376
31731SOL    HW295772   5.555   5.579   5.816 -1.3056  0.6253  1.8012
31732SOL     OW95773   9.767   3.233   9.976  0.0367  0.2765 -0.2294
31732SOL    HW195774   9.802   3.315   9.941 -0.2947 -0.0423 -1.3237
31732SOL    HW295775   9.707   3.201   9.909 -2.4051  0.8042  1.5585
31733SOL     OW95776   0.263   4.929   6.795 -0.0748  0.5234  0.3427
31733SOL    HW195777   0.309   4.885   6.867 -0.1601 -0.9448 -0.4468
31733SOL    HW295778   0.184   4.876   6.782 -1.5328  2.4326  1.0277
31734SOL     OW95779   0.820   7.744   4.835 -0.3139 -0.5447  0.1714
31734SOL    HW195780   0.864   7.828   4.819 -0.5462  0.2574  3.0665
31734SOL    HW295781   0.879   7.697   4.894 -0.6459 -2.0324 -0.6371
31735SOL     OW95782   2.589   7.940   3.160  0.9092 -0.2946  0.2373
31735SOL    HW195783   2.494   7.935   3.153  0.9844 -1.3437 -0.3270
31735SOL    HW295784   2.611   7.884   3.234  1.0386  0.6680  0.9457
31736SOL     OW95785   9.518   9.276   9.853  0.3371  0.0374 -0.8899
31736SOL    HW195786   9.462   9.199   9.844  1.1907 -0.6369 -0.5693
31736SOL    HW295787   9.471   9.332   9.915 -0.3311 -0.1756 -1.1922
31737SOL     OW95788   0.519   1.087   8.484 -0.1583 -0.1372 -0.9481
31737SOL    HW195789   0.590   1.148   8.464 -0.7086  0.5519 -0.8629
31737SOL    HW295790   0.561   1.014   8.529  0.2512  1.1894  0.9558
31738SOL     OW95791   5.392   8.987   7.112  0.0160 -0.1054  0.0705
31738SOL    HW195792   5.441   8.994   7.194  0.3006 -1.0696 -0.0116
31738SOL    HW295793   5.386   9.077   7.080 -2.7947  0.8102  2.7016
31739SOL     OW95794   5.875   3.960   2.435  0.2836  0.4914 -0.1653
31739SOL    HW195795   5.969   3.955   2.450 -0.0204 -0.6559  1.4746
31739SOL    HW295796   5.850   3.872   2.407 -0.5133  0.4005  0.7885
31740SOL     OW95797   1.286   9.244   3.359  0.5142 -0.0703 -0.3727
31740SOL    HW195798   1.213   9.249   3.297 -2.1294 -1.6923  2.3307
31740SOL    HW295799   1.273   9.162   3.405  2.8645  0.5995  1.7409
31741SOL     OW95800   6.064   1.167   8.754  0.4610 -0.6095 -0.2648
31741SOL    HW195801   6.041   1.248   8.798  0.3560 -0.8929  0.2091
31741SOL    HW295802   5.990   1.148   8.697  0.8610  0.0822 -1.0427
31742SOL     OW95803   3.273   0.426   2.428  0.4145 -0.1624 -0.2386
31742SOL    HW195804   3.231   0.341   2.414  0.2845 -0.0696 -0.4226
31742SOL    HW295805   3.229   0.485   2.366  2.0340 -0.4543 -1.7574
31743SOL     OW95806   6.858   2.524  -0.008 -0.2367  0.0658 -0.2470
31743SOL    HW195807   6.920   2.592  -0.035  0.3586 -0.1847  0.4558
31743SOL    HW295808   6.848   2.538   0.086  1.4931 -2.0738  0.3243
31744SOL     OW95809   4.736   5.965   9.662 -0.4619  0.3785 -0.2725
31744SOL    HW195810   4.777   5.886   9.694  1.4985  1.8778  1.1364
31744SOL    HW295811   4.779   5.983   9.578 -1.3071 -0.3087 -0.8701
31745SOL     OW95812   8.245   5.407   8.849 -0.6590 -0.3768  0.6032
31745SOL    HW195813   8.267   5.499   8.840  0.0506 -0.5153  0.8346
31745SOL    HW295814   8.324   5.360   8.821 -0.1109 -0.8723  2.7614
31746SOL     OW95815   8.047   8.458   6.470  0.4112  0.1328 -0.3107
31746SOL    HW195816   8.094   8.386   6.429 -0.3854  0.3555 -1.6909
31746SOL    HW295817   7.982   8.484   6.405 -1.6954 -0.2173  1.5353
31747SOL     OW95818   1.070   7.716   5.855 -0.0978 -0.3304  0.0111
31747SOL    HW195819   1.002   7.780   5.835  0.1963 -0.6678 -2.3006
31747SOL    HW295820   1.151   7.757   5.825  0.3419 -1.0581  0.1666
31748SOL     OW95821   7.577   7.735   3.606 -0.5816 -0.2447  0.0177
31748SOL    HW195822   7.636   7.746   3.531  0.6784 -1.6377  0.7578
31748SOL    HW295823   7.594   7.811   3.661 -1.9996  1.1538 -1.3510
31749SOL     OW95824   3.828   3.218   8.875 -0.5885  0.3119  0.1480
31749SOL    HW195825   3.909   3.249   8.835 -0.4664 -1.8132 -1.3767
31749SOL    HW295826   3.834   3.247   8.966  1.2120  1.3790 -0.2588
31750SOL     OW95827   1.785   6.172   5.202 -0.6907 -0.3352 -0.3696
31750SOL    HW195828   1.873   6.160   5.165 -1.1219  0.8134 -1.8171
31750SOL    HW295829   1.761   6.261   5.180 -1.7203 -0.1943  1.1728
31751SOL     OW95830   6.085   4.912   9.611 -0.0936 -0.0749  0.5964
31751SOL    HW195831   6.141   4.847   9.653  1.6038 -0.3143 -1.8193
31751SOL    HW295832   6.109   4.995   9.653  0.1328 -0.5282  1.3935
31752SOL     OW95833   8.624   2.777   7.283  0.2135 -0.1729  0.4515
31752SOL    HW195834   8.592   2.690   7.262 -0.8718  0.0401  1.1526
31752SOL    HW295835   8.656   2.811   7.199  1.9914 -1.7424  0.4259
31753SOL     OW95836   3.428   3.112   7.572 -0.0845  0.5326 -0.4835
31753SOL    HW195837   3.495   3.160   7.525  2.0567 -1.4195  0.3621
31753SOL    HW295838   3.399   3.045   7.510 -1.5841  1.5710 -0.9622
31754SOL     OW95839   2.462   3.051   5.747  0.1955 -0.5121 -0.0368
31754SOL    HW195840   2.437   2.990   5.678  0.5647 -1.7693  0.9177
31754SOL    HW295841   2.517   3.000   5.806 -0.8277  0.2771  1.6737
31755SOL     OW95842   0.717   8.037   2.877 -0.0950 -0.2686 -0.1186
31755SOL    HW195843   0.687   8.112   2.929  0.4949 -0.0636 -0.0695
31755SOL    HW295844   0.654   8.030   2.806 -0.4991 -0.1036  0.2162
31756SOL     OW95845   7.505   2.282   5.208 -0.2591  0.1481  0.1212
31756SOL    HW195846   7.482   2.340   5.281  1.7431 -0.3192  1.1768
31756SOL    HW295847   7.484   2.194   5.240  0.0090 -0.0077 -0.1321
31757SOL     OW95848   2.423   4.734   2.425 -0.0930 -0.3586 -0.9035
31757SOL    HW195849   2.409   4.655   2.373 -0.4209 -0.2299 -1.0085
31757SOL    HW295850   2.476   4.791   2.368  1.5614 -1.1486 -0.2212
31758SOL     OW95851   5.590   6.270   6.946 -0.1716  0.0177 -0.2251
31758SOL    HW195852   5.626   6.184   6.968 -0.1430  0.0809 -0.0238
31758SOL    HW295853   5.521   6.284   7.011 -0.9887 -0.3752 -0.9824
31759SOL     OW95854   2.006   9.142   6.524 -0.1626  0.4234 -0.3964
31759SOL    HW195855   1.945   9.213   6.501  0.1559  1.0225  0.5202
31759SOL    HW295856   1.982   9.119   6.614  0.2425 -0.1083 -0.4214
31760SOL     OW95857   5.843   5.619   6.359 -0.1001 -0.3711  0.0775
31760SOL    HW195858   5.772   5.663   6.312  0.1282  1.2240  1.1554
31760SOL    HW295859   5.816   5.622   6.451  1.5635  0.6792  0.5521
31761SOL     OW95860   5.950   8.715   0.176 -0.3528 -0.1164  0.1763
31761SOL    HW195861   5.958   8.716   0.271  0.2671  0.0194  0.1291
31761SOL    HW295862   5.875   8.772   0.157  0.7349  1.4738  0.4834
31762SOL     OW95863   2.858   4.695   1.970  0.4379  0.0900  0.2527
31762SOL    HW195864   2.803   4.756   1.921 -0.4044 -0.1967  0.8362
31762SOL    HW295865   2.901   4.750   2.036  0.9393  0.3249 -0.2483
31763SOL     OW95866   0.385   6.624   7.906 -0.0098 -0.1415 -0.2989
31763SOL    HW195867   0.383   6.634   8.001  3.2733 -1.1138 -0.0104
31763SOL    HW295868   0.310   6.569   7.886 -0.1397 -0.8390  1.9001
31764SOL     OW95869   3.173   4.534   7.168  0.2247  0.4000  0.4784
31764SOL    HW195870   3.236   4.467   7.145  0.1095  0.3786  0.2231
31764SOL    HW295871   3.225   4.613   7.182  0.4445  0.0881  1.5314
31765SOL     OW95872   7.191   8.989   7.594  0.8040 -0.1914 -0.1213
31765SOL    HW195873   7.140   9.038   7.530  0.0385  0.8735  1.2627
31765SOL    HW295874   7.143   8.906   7.604 -1.2507  1.1270  1.7965
31766SOL     OW95875   3.059   1.496   0.345  0.5030 -0.2311 -0.4611
31766SOL    HW195876   3.113   1.426   0.310 -0.4862 -1.0458 -0.4064
31766SOL    HW295877   3.112   1.535   0.414  1.0302 -0.9777 -0.4355
31767SOL     OW95878   8.928   2.873   2.539 -0.2811 -0.0890  0.1014
31767SOL    HW195879   8.982   2.917   2.605 -0.0994  1.1636 -0.8435
31767SOL    HW295880   8.975   2.792   2.521 -0.3570 -0.4746  1.5193
31768SOL     OW95881   6.183   7.035   1.456  0.2215 -0.0132  0.7165
31768SOL    HW195882   6.173   7.046   1.361  0.5077  0.2872  0.7208
31768SOL    HW295883   6.204   7.122   1.488  0.4285 -0.1746  1.0206
31769SOL     OW95884   9.943   4.192   2.917  0.5173  0.5400  0.2711
31769SOL    HW195885   9.928   4.145   2.999 -0.7255 -2.0094 -1.3080
31769SOL    HW295886   9.959   4.282   2.944 -1.3055  0.1096  3.2431
31770SOL     OW95887   2.588   0.734   1.735 -0.2592  0.0163 -0.2823
31770SOL    HW195888   2.668   0.721   1.785 -0.9439  1.3912  1.2907
31770SOL    HW295889   2.532   0.660   1.759  0.4376 -0.8127 -1.1937
31771SOL     OW95890   8.766   6.107   6.975 -0.1728  0.0203  0.1232
31771SOL    HW195891   8.808   6.190   6.954 -0.2678  0.8156  2.7296
31771SOL    HW295892   8.836   6.042   6.969 -0.2235  0.0996 -2.5198
31772SOL     OW95893   2.961   0.626   3.259  0.4626  0.1471  0.0457
31772SOL    HW195894   2.965   0.545   3.209  0.4562 -0.2506  0.6805
31772SOL    HW295895   2.916   0.603   3.340  0.1945  0.8528  0.1089
31773SOL     OW95896   3.484   2.028   5.892 -0.4265  0.0025 -0.4816
31773SOL    HW195897   3.578   2.014   5.900 -0.3049  1.3948  1.1166
31773SOL    HW295898   3.474   2.078   5.811  0.2580  0.1466 -0.4837
31774SOL     OW95899   2.160   5.759   4.928  0.6837 -0.3877 -0.5267
31774SOL    HW195900   2.216   5.707   4.987  1.4477 -0.6042 -1.4183
31774SOL    HW295901   2.136   5.698   4.858 -0.1593 -0.1150 -0.4785
31775SOL     OW95902   3.677   2.102   1.680  0.7321  0.2318  0.3744
31775SOL    HW195903   3.659   2.177   1.624 -0.2324 -1.0210 -1.0661
31775SOL    HW295904   3.653   2.131   1.768  0.4589  1.6195 -0.1419
31776SOL     OW95905   7.397   0.489   1.667  0.2637 -0.2439 -0.9671
31776SOL    HW195906   7.475   0.433   1.663  0.8207  0.3863  0.4292
31776SOL    HW295907   7.359   0.470   1.752  0.0225  0.9353 -0.7998
31777SOL     OW95908   3.676   0.834   0.144  0.1861  0.0701 -0.0381
31777SOL    HW195909   3.720   0.918   0.156  0.9831 -0.3818  0.2668
31777SOL    HW295910   3.630   0.819   0.227  1.0515 -0.3700  0.3700
31778SOL     OW95911   2.614   0.038   7.653 -0.4556  0.2895  0.4280
31778SOL    HW195912   2.599   0.039   7.558 -0.3466  1.6408  0.4037
31778SOL    HW295913   2.642  -0.051   7.672 -1.7440 -0.3760 -0.6072
31779SOL     OW95914   9.032   2.384   9.593 -0.0485 -0.2581 -0.0811
31779SOL    HW195915   9.078   2.428   9.664  0.2758 -1.4667  0.4691
31779SOL    HW295916   9.094   2.320   9.560 -1.1625 -1.6284  0.4005
31780SOL     OW95917   5.008   4.925   0.154 -0.0020 -0.1996  0.0836
31780SOL    HW195918   5.060   4.984   0.100 -0.8545  0.9591  0.5043
31780SOL    HW295919   4.944   4.887   0.094  0.1473 -0.2296 -0.0573
31781SOL     OW95920   2.806   4.310   4.405 -0.2909  0.8377  0.3140
31781SOL    HW195921   2.812   4.379   4.471  0.7515  0.3212  0.7757
31781SOL    HW295922   2.856   4.237   4.442  0.6912  0.6845 -1.2270
31782SOL     OW95923   1.879   4.215   1.214 -0.1291 -0.0345  0.0841
31782SOL    HW195924   1.858   4.127   1.243 -0.5563  0.0563  0.0688
31782SOL    HW295925   1.879   4.268   1.294  0.8487 -0.1765  0.1866
31783SOL     OW95926   2.011   4.856   8.599  0.1735  0.2953  0.3972
31783SOL    HW195927   2.069   4.836   8.672 -0.2062 -3.4413 -0.1630
31783SOL    HW295928   1.930   4.809   8.618 -0.1399 -0.3623 -2.1154
31784SOL     OW95929   4.507   9.947   1.857 -0.8329 -0.0374  0.2205
31784SOL    HW195930   4.452   9.974   1.930 -2.0378  1.1719 -1.0837
31784SOL    HW295931   4.446   9.926   1.787  0.2672 -1.7247 -0.3015
31785SOL     OW95932   5.179   7.674   1.846  0.1163 -0.7697 -0.4493
31785SOL    HW195933   5.147   7.683   1.756 -1.9614  1.8111  0.4212
31785SOL    HW295934   5.168   7.581   1.866 -1.4749 -1.0095 -2.1603
31786SOL     OW95935   3.753   4.221   4.342 -0.3791 -0.2989  0.3789
31786SOL    HW195936   3.752   4.128   4.367 -1.0348 -0.5693 -0.5667
31786SOL    HW295937   3.722   4.221   4.251 -2.7749  1.0574  1.1020
31787SOL     OW95938   1.002   2.965   5.426 -0.1952  0.2939 -0.4142
31787SOL    HW195939   0.908   2.956   5.443 -0.0851 -0.0969  0.0214
31787SOL    HW295940   1.007   2.986   5.333 -0.6258 -1.8452 -0.9678
31788SOL     OW95941   4.403   1.282   5.612  0.1436  0.3699 -0.5589
31788SOL    HW195942   4.336   1.277   5.544 -0.6969  2.4445  0.0440
31788SOL    HW295943   4.459   1.355   5.585 -0.2214  1.2479  0.9487
31789SOL     OW95944   4.318   9.859   8.326 -0.1959  0.2295  0.3496
31789SOL    HW195945   4.238   9.822   8.364  0.6647 -1.4159  0.6304
31789SOL    HW295946   4.305   9.853   8.231 -1.2111  1.8503  0.3362
31790SOL     OW95947   2.924   7.270   2.546 -0.1297  0.3507  0.3636
31790SOL    HW195948   2.940   7.340   2.609 -1.1853  0.6824  0.2931
31790SOL    HW295949   2.950   7.190   2.591  1.7890  0.8248  0.1825
31791SOL     OW95950   9.912   7.103   6.904 -0.0202  0.0082 -0.1639
31791SOL    HW195951   9.822   7.117   6.935  0.0004 -0.3129  0.0470
31791SOL    HW295952   9.959   7.070   6.981 -0.1058 -1.3442 -0.6748
31792SOL     OW95953   8.518   1.560   3.678 -0.2558  0.2262  0.0124
31792SOL    HW195954   8.554   1.572   3.590  1.1862 -2.1071  0.1912
31792SOL    HW295955   8.448   1.496   3.667  0.3891 -0.6127  0.6079
31793SOL     OW95956   6.538   0.733   3.083 -0.2214  0.2143 -0.2843
31793SOL    HW195957   6.543   0.686   3.166  0.2828  1.4700  0.4270
31793SOL    HW295958   6.523   0.665   3.018 -0.1165 -0.8559  0.7713
31794SOL     OW95959   8.556   4.566   8.167 -0.0557 -0.5132  0.0757
31794SOL    HW195960   8.555   4.607   8.081 -0.8347  0.3885  0.4976
31794SOL    HW295961   8.627   4.501   8.162 -0.7631 -1.2091 -1.5690
31795SOL     OW95962   2.368   1.168   3.563  0.0872  0.4472  0.2491
31795SOL    HW195963   2.458   1.185   3.537 -0.4334  1.0997 -1.2188
31795SOL    HW295964   2.351   1.231   3.633  1.0021 -0.2430  1.1345
31796SOL     OW95965   9.333   0.634   6.296 -0.0219  0.0192  0.1969
31796SOL    HW195966   9.322   0.577   6.372 -0.4581  1.5495  1.3236
31796SOL    HW295967   9.249   0.629   6.250 -0.0657 -0.2220  0.2988
31797SOL     OW95968   4.430   3.114   0.742 -0.2616 -0.6308 -0.3288
31797SOL    HW195969   4.442   3.027   0.779 -2.5944 -0.6329  0.5465
31797SOL    HW295970   4.375   3.100   0.665  2.4903 -0.3154 -2.5221
31798SOL     OW95971   2.808   9.105   3.110 -0.2844 -0.2362  0.0597
31798SOL    HW195972   2.901   9.088   3.091 -0.0338  1.8120 -0.8048
31798SOL    HW295973   2.770   9.129   3.026 -0.9600  1.5569  0.8184
31799SOL     OW95974   3.274   4.227   6.837 -0.0854 -0.2671  0.5038
31799SOL    HW195975   3.358   4.230   6.791 -1.2072 -0.3473 -1.6836
31799SOL    HW295976   3.251   4.134   6.839 -1.2201 -0.0697 -1.1570
31800SOL     OW95977   8.586   9.857   4.303 -0.3282 -0.1467 -0.1551
31800SOL    HW195978   8.607   9.909   4.382  1.5175 -0.8765 -0.1271
31800SOL    HW295979   8.638   9.778   4.312 -0.3771 -0.4118 -1.9496
31801SOL     OW95980   9.915   4.254   8.285 -0.2829 -0.6468  0.3900
31801SOL    HW195981   9.892   4.301   8.365  0.4609 -0.1038  0.2871
31801SOL    HW295982   9.894   4.162   8.304 -0.5434 -0.4532  1.0410
31802SOL     OW95983   6.930   4.448   9.434 -0.3773  0.0330  0.4320
31802SOL    HW195984   6.857   4.414   9.485 -0.3047 -1.7951 -0.6087
31802SOL    HW295985   6.894   4.523   9.387 -0.7416  1.0335  2.2030
31803SOL     OW95986   2.138   9.813   5.634  0.1482  0.0474 -0.1069
31803SOL    HW195987   2.130   9.905   5.608 -0.2651  0.1851  0.4823
31803SOL    HW295988   2.231   9.801   5.651  0.2915  0.1974 -0.7313
31804SOL     OW95989   6.449   9.454   3.823  0.3936 -0.0099  0.1295
31804SOL    HW195990   6.401   9.525   3.865 -0.3677  0.2087 -1.0541
31804SOL    HW295991   6.382   9.390   3.800  1.0749 -1.1631  1.2241
31805SOL     OW95992   7.858   4.233   9.590 -0.2464  0.2651 -0.2614
31805SOL    HW195993   7.791   4.266   9.650 -1.3623  1.2624 -1.9739
31805SOL    HW295994   7.881   4.146   9.625 -0.1826  1.1591  2.0741
31806SOL     OW95995   9.100   9.417   0.289  0.1632 -0.1283  0.0871
31806SOL    HW195996   9.179   9.446   0.243  0.1773 -0.7225 -0.2848
31806SOL    HW295997   9.124   9.421   0.382  0.5702 -0.1207 -0.0142
31807SOL     OW95998   7.979   7.798   7.349  0.2456 -0.2278  0.4392
31807SOL    HW195999   7.982   7.856   7.273  2.0841 -0.8286  0.0075
31807SOL    HW296000   7.889   7.804   7.380  0.4378  3.1521  0.6591
31808SOL     OW96001   4.943   4.722   3.570  0.3108  0.2662  0.4383
31808SOL    HW196002   4.897   4.805   3.577  1.0251  0.6518  0.6268
31808SOL    HW296003   4.958   4.695   3.661 -0.7084 -0.5221  0.3912
31809SOL     OW96004   3.046   2.090   7.647  0.6780 -0.2810 -0.3019
31809SOL    HW196005   2.978   2.139   7.601  2.0990  1.2695 -0.8695
31809SOL    HW296006   3.064   2.142   7.725  0.0063 -1.6162  0.7866
31810SOL     OW96007   2.260   8.937   3.073 -0.0722  0.1812  0.3609
31810SOL    HW196008   2.293   8.918   2.985 -0.1601  0.8058  0.1836
31810SOL    HW296009   2.194   8.870   3.090  0.5510 -0.4521  0.2959
31811SOL     OW96010   3.141   3.157   9.027  0.4608  0.8598  0.7096
31811SOL    HW196011   3.103   3.236   8.988  0.4688 -0.1962 -1.6109
31811SOL    HW296012   3.074   3.126   9.087 -0.1241  1.8653  0.6099
31812SOL     OW96013   9.652   5.262   9.595  0.0325  0.2407  0.6707
31812SOL    HW196014   9.567   5.305   9.595  0.0032  0.2167 -0.8418
31812SOL    HW296015   9.633   5.170   9.577  0.3830  0.2322  0.3416
31813SOL     OW96016   8.746   5.697   4.898  0.4725  0.0143  0.0233
31813SOL    HW196017   8.664   5.735   4.869  0.0900 -0.1056  0.9268
31813SOL    HW296018   8.800   5.692   4.819 -0.6382 -0.5544 -0.7099
31814SOL     OW96019   8.060   7.119   8.655  0.3786 -0.2479  0.3750
31814SOL    HW196020   8.029   7.091   8.569  1.2860 -0.1676  0.0181
31814SOL    HW296021   8.048   7.213   8.656 -2.5501 -0.5128  1.5252
31815SOL     OW96022   1.639   8.531   6.946  0.7054 -0.4209 -0.4455
31815SOL    HW196023   1.709   8.473   6.978  0.3016  0.1997  1.7292
31815SOL    HW296024   1.587   8.550   7.024  0.0641  1.8062 -1.3516
31816SOL     OW96025   5.521   1.744   7.725  0.3917  0.0372  0.3495
31816SOL    HW196026   5.569   1.791   7.657 -2.3256  2.2035 -0.2244
31816SOL    HW296027   5.449   1.702   7.679 -2.2667  2.6020  1.8884
31817SOL     OW96028   9.017   1.695   7.840 -0.2381 -0.0989  0.4199
31817SOL    HW196029   9.063   1.625   7.887 -0.1652 -0.1605  0.2570
31817SOL    HW296030   9.087   1.743   7.796 -0.2451  0.3290  0.8676
31818SOL     OW96031   1.543   7.392   2.891 -0.0064 -0.3179 -0.2150
31818SOL    HW196032   1.633   7.397   2.859  0.4106  1.5432  1.1058
31818SOL    HW296033   1.503   7.475   2.865 -0.7241 -0.2706  0.9513
31819SOL     OW96034   5.077   1.150   4.381 -0.2239 -0.3885  0.0839
31819SOL    HW196035   5.123   1.176   4.301  0.6361 -0.6451  0.4786
31819SOL    HW296036   5.138   1.090   4.425  0.0576  1.0127  1.7412
31820SOL     OW96037   6.648   0.820   5.812  0.2407  0.2850  0.2705
31820SOL    HW196038   6.563   0.851   5.780  0.4072 -0.7415 -1.2674
31820SOL    HW296039   6.712   0.865   5.757  0.5177 -1.8637 -1.2747
31821SOL     OW96040   8.899   8.249   7.834 -0.4388 -0.3157  0.0904
31821SOL    HW196041   8.844   8.189   7.784 -0.2526 -0.2083 -0.2451
31821SOL    HW296042   8.845   8.274   7.909  0.0280 -2.1021  1.0770
31822SOL     OW96043   9.786   2.449   6.489 -0.5356  0.5816  0.5267
31822SOL    HW196044   9.855   2.383   6.484 -0.8639  0.2503  0.2992
31822SOL    HW296045   9.776   2.466   6.583 -1.2372 -0.5391  0.6701
31823SOL     OW96046   2.259   5.635   7.387  0.6052 -0.1428 -0.2301
31823SOL    HW196047   2.267   5.587   7.304  1.2979  0.0942 -0.3107
31823SOL    HW296048   2.324   5.593   7.444  0.9925  0.4848 -0.1998
31824SOL     OW96049   5.242   7.933   3.186  0.0078 -0.2409 -0.3019
31824SOL    HW196050   5.179   7.988   3.139  1.8506 -0.3504 -3.0960
31824SOL    HW296051   5.196   7.908   3.266 -2.3939  2.0258 -0.8348
31825SOL     OW96052   8.093   1.422   1.210  0.0807  0.1287  0.1999
31825SOL    HW196053   8.018   1.481   1.199 -0.9658 -1.4889 -2.2073
31825SOL    HW296054   8.167   1.472   1.175 -0.3097  0.8817  0.4171
31826SOL     OW96055   6.640   1.054   0.393  0.5319  0.1565  0.6543
31826SOL    HW196056   6.597   1.138   0.379 -0.7272 -0.4956  0.4768
31826SOL    HW296057   6.633   1.039   0.487 -1.6272 -0.9408  0.3780
31827SOL     OW96058   7.789   5.916   1.514  0.6905  0.1630 -0.5699
31827SOL    HW196059   7.697   5.902   1.489  0.2699  0.8383  0.4948
31827SOL    HW296060   7.801   5.861   1.591  1.2349 -0.0510 -0.8052
31828SOL     OW96061   7.068   9.790   7.800 -0.1291  0.2406  0.6029
31828SOL    HW196062   7.115   9.858   7.753  0.4336 -0.0080  0.7960
31828SOL    HW296063   6.982   9.827   7.817 -0.2013  0.4927 -0.2551
31829SOL     OW96064   4.122   6.479   7.912  0.2471 -0.1837 -0.4078
31829SOL    HW196065   4.135   6.573   7.900  0.7492 -0.4019 -1.7349
31829SOL    HW296066   4.205   6.440   7.886 -0.1112 -1.0236 -0.3187
31830SOL     OW96067   9.645   2.871   5.704  0.0478 -0.4272  0.0490
31830SOL    HW196068   9.619   2.794   5.653  4.6314 -2.0032 -0.3835
31830SOL    HW296069   9.637   2.944   5.644  1.2711 -1.5844 -1.5945
31831SOL     OW96070   8.884   7.590   2.082 -0.3753 -0.3798 -0.2840
31831SOL    HW196071   8.884   7.573   2.176 -0.6788  3.0235  0.4589
31831SOL    HW296072   8.792   7.601   2.059 -0.4564 -2.8688 -1.4265
31832SOL     OW96073   2.773   6.700   4.650 -0.0067 -0.4127  0.7460
31832SOL    HW196074   2.852   6.755   4.654  0.9423 -1.7469  1.0797
31832SOL    HW296075   2.794   6.633   4.584 -1.6900  0.4093 -0.7043
31833SOL     OW96076   1.774   5.512   9.281  0.2538  0.1850  0.2601
31833SOL    HW196077   1.825   5.542   9.356  2.0393  0.3011 -0.9239
31833SOL    HW296078   1.829   5.532   9.205 -0.5731 -1.7357 -0.9327
31834SOL     OW96079   0.552   3.909   0.354 -0.1001  0.1139 -0.2712
31834SOL    HW196080   0.549   3.979   0.419 -1.9199  0.1863 -0.3798
31834SOL    HW296081   0.627   3.855   0.380  0.7467  1.5422  0.3749
31835SOL     OW96082   5.640   6.469   8.460  0.2396  0.0156 -0.0685
31835SOL    HW196083   5.735   6.465   8.451 -0.0092 -1.2108 -4.4161
31835SOL    HW296084   5.615   6.383   8.493  0.5792 -0.6804 -1.5262
31836SOL     OW96085   9.167   2.166   1.015 -0.1338  0.1571  0.3060
31836SOL    HW196086   9.255   2.128   1.014 -0.0419  0.2922  1.6724
31836SOL    HW296087   9.143   2.173   0.923  1.1517 -0.1992 -0.0736
31837SOL     OW96088   0.676   1.253   7.235 -0.1970 -0.0918 -0.2351
31837SOL    HW196089   0.619   1.211   7.171 -1.3486  0.5397  0.3295
31837SOL    HW296090   0.759   1.267   7.189 -1.2605  1.1498 -1.8953
31838SOL     OW96091   5.906   2.956   1.480 -0.1193  0.5935  0.0109
31838SOL    HW196092   5.909   2.892   1.409 -0.8510 -0.2410  0.6925
31838SOL    HW296093   5.949   2.911   1.553  0.7849  1.5038  0.0528
31839SOL     OW96094   6.512   6.000   5.407  0.0288  0.4356 -0.3451
31839SOL    HW196095   6.535   5.945   5.482  3.0543  2.3604  0.3294
31839SOL    HW296096   6.518   5.942   5.331  3.0378 -0.2989  0.3330
31840SOL     OW96097   2.031   5.289   4.123  0.3180  0.0017 -0.5013
31840SOL    HW196098   2.032   5.259   4.032 -1.0463  0.9658 -0.8640
31840SOL    HW296099   2.009   5.382   4.117 -1.0051 -0.1808  0.8591
31841SOL     OW96100   3.287   2.130   2.371 -0.0208  0.4945 -0.1518
31841SOL    HW196101   3.358   2.122   2.434 -0.7713  1.2428  0.8161
31841SOL    HW296102   3.224   2.062   2.397  0.6923 -0.7819 -1.5498
31842SOL     OW96103   5.050   6.394   5.741  0.2679  0.2226 -0.7143
31842SOL    HW196104   5.020   6.435   5.822 -0.1728 -1.8186  0.2291
31842SOL    HW296105   5.146   6.401   5.744  0.3555 -0.9901  0.7044
31843SOL     OW96106   2.192   2.401   8.709  0.5709  0.3258  0.0351
31843SOL    HW196107   2.163   2.395   8.618  1.1321 -1.2114 -0.0659
31843SOL    HW296108   2.111   2.408   8.759  0.2522  1.1251 -0.5513
31844SOL     OW96109   3.337   3.581   1.967 -0.3247  0.1556 -0.0596
31844SOL    HW196110   3.260   3.557   2.020 -1.0559  1.5965 -0.4204
31844SOL    HW296111   3.336   3.677   1.965  0.4516  0.1656 -1.5695
31845SOL     OW96112   9.899   2.167   3.424 -0.1082 -0.1868 -0.0546
31845SOL    HW196113   9.936   2.247   3.387  0.0906  0.0078  0.5511
31845SOL    HW296114   9.864   2.119   3.349  1.8412 -0.6348 -0.7248
31846SOL     OW96115   5.365   9.933   2.696  0.3226  0.2080  0.3178
31846SOL    HW196116   5.349   9.903   2.606  2.0198  0.3272 -0.0707
31846SOL    HW296117   5.382   9.853   2.745  0.3834  0.2121  0.3035
31847SOL     OW96118   4.510   1.284   6.428 -0.9420  0.5169 -0.1791
31847SOL    HW196119   4.484   1.243   6.511  0.1015  1.5294  0.6878
31847SOL    HW296120   4.563   1.359   6.455  2.2697 -0.9955 -1.7848
31848SOL     OW96121   3.309   5.541   0.323  0.0675 -0.2159 -0.4482
31848SOL    HW196122   3.243   5.545   0.392  2.2633 -1.3890  1.8670
31848SOL    HW296123   3.367   5.614   0.341  0.8588 -0.7292 -0.8537
31849SOL     OW96124   8.495   4.553   8.667 -0.5318 -0.0994  0.3424
31849SOL    HW196125   8.523   4.613   8.598 -0.2296 -1.2189 -0.5418
31849SOL    HW296126   8.444   4.486   8.622 -1.8426  0.0989  1.4738
31850SOL     OW96127   1.711   5.744   6.579 -0.0510  0.0749  0.6718
31850SOL    HW196128   1.700   5.715   6.488  1.5558  0.2652  0.3885
31850SOL    HW296129   1.624   5.775   6.605 -0.3695  0.7934 -1.0814
31851SOL     OW96130   4.029   8.490   8.950 -0.6917 -0.5253 -0.0629
31851SOL    HW196131   3.978   8.435   9.009 -1.4925  1.0483  0.7729
31851SOL    HW296132   3.964   8.537   8.899 -0.0435  0.0179 -0.3975
31852SOL     OW96133   5.200   1.718   4.214 -0.2621  0.3207  0.4094
31852SOL    HW196134   5.157   1.799   4.188 -1.4574 -0.1666  0.7741
31852SOL    HW296135   5.154   1.692   4.294  0.7773 -0.1958  0.8530
31853SOL     OW96136   2.329   4.057   0.064  0.2850 -0.3144  0.0673
31853SOL    HW196137   2.398   4.062  -0.003 -0.8679 -0.0327 -1.1374
31853SOL    HW296138   2.265   4.123   0.038 -1.4856 -2.0025 -0.0874
31854SOL     OW96139   0.505   1.387   6.169 -0.1065  0.3475 -0.4357
31854SOL    HW196140   0.450   1.445   6.221  0.5432  0.0928  0.5639
31854SOL    HW296141   0.560   1.446   6.117 -0.4440  0.6071 -0.5011
31855SOL     OW96142   7.342   8.918   9.075  0.1081 -0.2181  0.4730
31855SOL    HW196143   7.248   8.940   9.074  0.0977 -0.2670  0.2350
31855SOL    HW296144   7.348   8.841   9.132  0.0020 -0.2141  0.4903
31856SOL     OW96145   1.482   6.247   2.625 -0.0749 -0.6665  0.0158
31856SOL    HW196146   1.472   6.157   2.596 -0.9090  0.0447 -2.0600
31856SOL    HW296147   1.425   6.254   2.702 -0.5531 -1.7241 -0.2235
31857SOL     OW96148   0.340   2.868   6.046 -0.4661 -0.0928 -0.1500
31857SOL    HW196149   0.252   2.847   6.017 -0.5600  0.8456 -0.5814
31857SOL    HW296150   0.331   2.952   6.092  0.1140 -0.2627  0.2923
31858SOL     OW96151   1.690   0.621   0.487  0.1711 -0.0068  0.1600
31858SOL    HW196152   1.727   0.659   0.407  0.3077 -0.3482  0.0556
31858SOL    HW296153   1.724   0.675   0.558 -0.9315  1.0575 -0.0864
31859SOL     OW96154   7.440   9.752   4.090 -0.1966  0.6050  0.2805
31859SOL    HW196155   7.462   9.780   4.001  0.4926  2.6589  1.0254
31859SOL    HW296156   7.344   9.745   4.090 -0.0907 -2.0718 -1.2772
31860SOL     OW96157   1.754   4.809   5.395  0.0945  0.3673 -0.0908
31860SOL    HW196158   1.765   4.899   5.425 -1.2290  0.2155  0.9425
31860SOL    HW296159   1.804   4.804   5.313  0.1518  2.0369 -0.1769
31861SOL     OW96160   6.822   4.960   7.267  0.6974 -0.0518  0.4200
31861SOL    HW196161   6.760   4.976   7.195  0.6607 -0.0473  0.4515
31861SOL    HW296162   6.841   4.866   7.262  1.4739  0.1324 -0.2148
31862SOL     OW96163   2.424   2.946   5.481 -0.5254  0.0372 -0.5650
31862SOL    HW196164   2.373   2.907   5.410  0.5258 -0.9070 -0.8352
31862SOL    HW296165   2.479   2.874   5.513 -0.7157  0.5313  0.9856
31863SOL     OW96166   8.559   0.196   0.797 -0.1065  0.3807 -0.2036
31863SOL    HW196167   8.558   0.110   0.756 -0.0758  0.1236  0.3279
31863SOL    HW296168   8.616   0.249   0.741  0.6275 -0.1998 -0.0147
31864SOL     OW96169   0.718   4.297   2.922  0.0856  0.3191 -0.0725
31864SOL    HW196170   0.793   4.294   2.862  1.0511 -1.5142  1.1562
31864SOL    HW296171   0.721   4.214   2.969 -2.4043  0.4446  0.4408
31865SOL     OW96172   7.103   9.192   2.352  0.1475  0.0857  0.0041
31865SOL    HW196173   7.146   9.169   2.435 -0.2666  0.1753  0.2497
31865SOL    HW296174   7.013   9.213   2.377 -0.0795 -0.2404 -0.5186
31866SOL     OW96175   9.338   4.658   6.640  0.0095  0.9694  0.3167
31866SOL    HW196176   9.373   4.745   6.659  1.4840  0.4230  0.2459
31866SOL    HW296177   9.282   4.638   6.714 -2.0002  2.7879 -0.6058
31867SOL     OW96178   5.086   0.501   6.055 -0.0703 -0.3063 -0.0394
31867SOL    HW196179   4.990   0.494   6.055  0.0361 -2.9543  0.0998
31867SOL    HW296180   5.109   0.511   6.148 -0.1847 -2.2997  0.2672
31868SOL     OW96181   2.741   2.108   9.280 -0.2267  0.2296 -0.2228
31868SOL    HW196182   2.795   2.088   9.203  1.5230 -3.1470  1.6294
31868SOL    HW296183   2.805   2.120   9.351 -1.8370 -0.6543  1.4509
31869SOL     OW96184   3.456   2.127   8.254  0.4169  0.3670  0.0461
31869SOL    HW196185   3.472   2.169   8.338  0.3988 -0.3406  0.4104
31869SOL    HW296186   3.383   2.176   8.216  1.0949  1.3395 -0.0306
31870SOL     OW96187   7.291   8.547   8.110  0.1771  0.2054 -0.0353
31870SOL    HW196188   7.339   8.630   8.116 -0.2712  0.4492  0.2013
31870SOL    HW296189   7.333   8.500   8.038  0.0044  0.9162 -0.6050
31871SOL     OW96190   9.113   4.232   0.645 -0.0471 -0.1204  0.2028
31871SOL    HW196191   9.048   4.174   0.606  0.6731 -0.0275 -1.1863
31871SOL    HW296192   9.134   4.191   0.729 -0.5278 -1.1544 -0.1653
31872SOL     OW96193   4.142   5.527   5.460 -0.4577  0.2182 -0.2031
31872SOL    HW196194   4.136   5.490   5.372  1.0416  1.7777 -1.0320
31872SOL    HW296195   4.176   5.616   5.446  1.5988 -0.1147  2.0396
31873SOL     OW96196   1.681   4.471   1.360 -0.3347 -0.1503  0.0246
31873SOL    HW196197   1.765   4.507   1.389 -1.3189  1.1275  1.4540
31873SOL    HW296198   1.674   4.498   1.268  1.1168 -0.9180 -0.3470
31874SOL     OW96199   1.131   4.864   8.379  0.1094  0.2041 -0.1837
31874SOL    HW196200   1.087   4.800   8.322 -1.0812  1.0397 -0.2673
31874SOL    HW296201   1.097   4.846   8.466 -1.5503  1.6814 -0.4337
31875SOL     OW96202   1.162   3.333   0.996  0.0407 -0.0754 -0.2669
31875SOL    HW196203   1.125   3.408   0.950 -0.5175 -0.9665 -1.3056
31875SOL    HW296204   1.192   3.274   0.927 -0.5929 -1.3335  0.4879
31876SOL     OW96205   5.077   5.938   0.047  0.3411  0.1178  0.2082
31876SOL    HW196206   5.099   5.885   0.123  1.3975  2.5326  1.7170
31876SOL    HW296207   4.994   5.980   0.069 -1.1419 -1.7199 -1.4930
31877SOL     OW96208   2.852   2.300   4.523 -0.2991 -0.2935 -0.3094
31877SOL    HW196209   2.940   2.283   4.558 -0.8868 -1.9634  0.4419
31877SOL    HW296210   2.866   2.314   4.429  0.7852 -0.3203 -0.1669
31878SOL     OW96211   2.494   9.676   1.930 -0.0932 -0.0032 -0.0998
31878SOL    HW196212   2.523   9.627   1.852  0.9705  2.2501 -1.2269
31878SOL    HW296213   2.575   9.710   1.967 -0.7085 -0.0560  1.3414
31879SOL     OW96214   3.471   0.282   3.328 -0.1467 -0.6446 -0.3177
31879SOL    HW196215   3.452   0.198   3.287 -0.3722 -0.6052 -0.2941
31879SOL    HW296216   3.393   0.335   3.312 -0.4064 -0.7666  0.5188
31880SOL     OW96217   5.885   6.670   6.042 -0.0030  0.2550  0.1502
31880SOL    HW196218   5.894   6.646   6.134 -2.3025 -0.1713  0.3262
31880SOL    HW296219   5.874   6.586   5.997 -2.1304  0.5666 -0.0232
31881SOL     OW96220   7.020   9.918   8.540  0.6390  0.0704 -0.1512
31881SOL    HW196221   6.956   9.885   8.603 -0.4345  0.3846 -1.0410
31881SOL    HW296222   6.989   9.886   8.455  1.1949  0.9225 -0.6958
31882SOL     OW96223   8.658   1.206   5.042 -0.5687 -0.3380 -0.3281
31882SOL    HW196224   8.602   1.136   5.074 -0.1263 -1.3134 -1.5845
31882SOL    HW296225   8.600   1.282   5.033 -1.4031 -0.9740 -0.3904
31883SOL     OW96226   7.268   8.525   7.084 -0.1148 -0.5046 -0.1835
31883SOL    HW196227   7.335   8.579   7.126 -0.4257 -0.2055 -0.0675
31883SOL    HW296228   7.186   8.551   7.126 -0.1376 -1.8406  0.6519
31884SOL     OW96229   2.792   3.245   5.382  0.4016  0.1250 -0.1342
31884SOL    HW196230   2.709   3.215   5.345  0.2452 -1.3745  1.3079
31884SOL    HW296231   2.776   3.336   5.408 -0.0221  0.6184 -2.0020
31885SOL     OW96232   2.288   1.391   2.233 -0.3719 -0.9156 -0.4067
31885SOL    HW196233   2.351   1.329   2.196  1.6851  1.3643 -1.0030
31885SOL    HW296234   2.266   1.449   2.160 -2.1940 -0.8516  0.1465
31886SOL     OW96235   1.143   4.744   1.027  0.5503  0.4382 -0.2704
31886SOL    HW196236   1.127   4.650   1.017 -4.6231  0.9061  0.8545
31886SOL    HW296237   1.133   4.760   1.121 -0.1008  2.2639 -0.6115
31887SOL     OW96238   8.743   1.736   5.739  0.3230  0.1000  0.0575
31887SOL    HW196239   8.824   1.724   5.789  2.0765 -1.8122 -2.9469
31887SOL    HW296240   8.771   1.736   5.648 -3.0192  0.2283 -1.0948
31888SOL     OW96241   3.518   9.147   3.736  0.2531 -0.5145 -0.0087
31888SOL    HW196242   3.563   9.087   3.796  0.1264  0.0749  0.6960
31888SOL    HW296243   3.432   9.107   3.721 -0.5862  0.3737  1.9849
31889SOL     OW96244   7.096   4.200   9.673 -0.9475  0.1198  0.3328
31889SOL    HW196245   7.069   4.291   9.672 -2.4224 -0.2220  2.4892
31889SOL    HW296246   7.191   4.203   9.681 -0.5980  1.3800 -2.8883
31890SOL     OW96247   7.983   8.742   2.663 -0.0684  0.1288  0.1694
31890SOL    HW196248   7.979   8.730   2.758  0.0187 -0.2306  0.1280
31890SOL    HW296249   7.942   8.663   2.627 -1.3578  0.8675 -0.0765
31891SOL     OW96250   1.474   3.170   0.566 -0.0642  0.0931 -0.8185
31891SOL    HW196251   1.455   3.116   0.490  0.0601 -1.2435  0.0611
31891SOL    HW296252   1.435   3.254   0.546  0.3649 -0.0752 -2.5534
31892SOL     OW96253   8.860   7.773   7.199 -0.1031  0.2507 -0.3017
31892SOL    HW196254   8.897   7.852   7.160 -0.6624  1.0673  0.7359
31892SOL    HW296255   8.831   7.720   7.125  0.4272  0.9498 -1.0214
31893SOL     OW96256   1.778   3.723   2.681  0.4522 -0.1727 -0.5457
31893SOL    HW196257   1.732   3.664   2.741  1.1071 -0.7966 -0.6470
31893SOL    HW296258   1.848   3.670   2.643  1.3025  0.7670 -0.3448
31894SOL     OW96259   0.760   0.022   4.499 -0.0704  0.3916 -0.3178
31894SOL    HW196260   0.679   0.045   4.455 -0.2097  1.7141  0.5514
31894SOL    HW296261   0.732  -0.027   4.577 -0.0142  0.4607 -0.2540
31895SOL     OW96262   4.411   5.121   5.432  0.2612 -0.3712 -0.1100
31895SOL    HW196263   4.372   5.142   5.347 -2.3262 -1.7034  0.6500
31895SOL    HW296264   4.499   5.157   5.427 -0.1560  0.5171 -2.9569
31896SOL     OW96265   7.076   0.635   7.060  0.7539  0.2899 -0.3767
31896SOL    HW196266   7.010   0.573   7.090 -1.1470  1.5028 -1.8014
31896SOL    HW296267   7.159   0.588   7.067 -0.3460 -1.5986  0.6732
31897SOL     OW96268   2.960   1.476   8.673 -0.0877  0.5672  0.0837
31897SOL    HW196269   2.929   1.566   8.661 -1.6260 -0.1176 -1.6714
31897SOL    HW296270   2.970   1.442   8.584 -0.8059 -1.3958  0.6844
31898SOL     OW96271   0.377   0.904   5.254  0.0689  0.3946 -0.2334
31898SOL    HW196272   0.349   0.872   5.169  0.6829  0.5735 -0.5123
31898SOL    HW296273   0.465   0.938   5.238 -0.5252  2.1528  0.0522
31899SOL     OW96274   4.807   8.320   2.753 -0.2904  0.3939  0.0677
31899SOL    HW196275   4.867   8.372   2.806 -0.9929  1.6465 -0.3278
31899SOL    HW296276   4.728   8.373   2.746 -0.0833  0.4854 -2.5759
31900SOL     OW96277   2.340   3.570   1.698 -0.4046 -0.2977 -0.6461
31900SOL    HW196278   2.326   3.664   1.697  0.7042 -0.0908  0.6715
31900SOL    HW296279   2.413   3.555   1.639 -0.7640 -0.3716 -1.0750
31901SOL     OW96280   1.505   2.207   1.155  0.0346  0.1408  0.1136
31901SOL    HW196281   1.546   2.290   1.180 -0.3753  0.5660 -0.5655
31901SOL    HW296282   1.414   2.217   1.184 -0.0724  0.0257 -0.1828
31902SOL     OW96283   5.179   2.254   2.321  0.1390  0.2424  0.2430
31902SOL    HW196284   5.252   2.203   2.356  0.4884  1.9073  2.1637
31902SOL    HW296285   5.100   2.209   2.351  0.4369  0.7753  1.8742
31903SOL     OW96286   3.743   9.775   2.609  0.3474 -0.1215  0.0501
31903SOL    HW196287   3.764   9.862   2.576  0.0281 -0.6140 -1.5810
31903SOL    HW296288   3.699   9.791   2.692  1.2879  1.2055  0.3260
31904SOL     OW96289   0.454   5.075   6.678  0.3968 -0.3280  0.0802
31904SOL    HW196290   0.518   5.022   6.630  0.4437  0.0539 -0.2840
31904SOL    HW296291   0.383   5.014   6.698 -0.3514 -0.1600 -1.8406
31905SOL     OW96292   8.958   3.477   1.562 -0.2531 -0.0675  0.3291
31905SOL    HW196293   8.982   3.460   1.470 -3.4282 -0.3259 -0.5823
31905SOL    HW296294   8.911   3.560   1.560 -1.7225 -0.8194  1.4027
31906SOL     OW96295   2.709   2.325   0.947  0.0344  0.2912  0.1209
31906SOL    HW196296   2.700   2.230   0.962  0.7402  0.3202  0.8452
31906SOL    HW296297   2.623   2.353   0.915 -0.7195 -0.3088  1.5119
31907SOL     OW96298   6.591   2.416   0.244 -0.7706 -0.0723  0.0916
31907SOL    HW196299   6.611   2.495   0.193 -0.9224  0.3676  0.7009
31907SOL    HW296300   6.677   2.386   0.274 -0.5964 -0.7866 -1.0597
31908SOL     OW96301   9.934   2.981   6.726  0.1521 -0.3895 -0.0711
31908SOL    HW196302   9.929   3.054   6.788  1.6051 -1.1709  1.0431
31908SOL    HW296303   9.850   2.982   6.680 -0.2971  1.2685  0.7141
31909SOL     OW96304   0.527   6.863   4.550  0.7564  0.5251 -0.6308
31909SOL    HW196305   0.513   6.803   4.623 -0.5273 -0.8046 -1.8926
31909SOL    HW296306   0.540   6.948   4.591 -2.2806  0.2754  1.1303
31910SOL     OW96307   8.172   0.433   5.759 -0.1342 -0.4408 -0.2154
31910SOL    HW196308   8.249   0.392   5.720  2.1826  1.4680  2.0623
31910SOL    HW296309   8.147   0.374   5.830  0.3292 -0.2071  0.1451
31911SOL     OW96310   0.546   3.491   8.347 -0.4420  0.6993 -0.0154
31911SOL    HW196311   0.496   3.413   8.321 -0.0381  0.3063  0.3531
31911SOL    HW296312   0.617   3.496   8.282 -0.7420  1.0378 -0.3175
31912SOL     OW96313   4.666   4.131   4.936  0.0649 -0.5606 -0.1742
31912SOL    HW196314   4.618   4.051   4.914  1.1176 -1.5383  0.9532
31912SOL    HW296315   4.735   4.102   4.996 -0.1406  1.3497  1.0669
31913SOL     OW96316   2.608   4.220   2.496 -0.0098  0.3934  0.1096
31913SOL    HW196317   2.592   4.136   2.538 -1.0311 -0.0163 -1.0254
31913SOL    HW296318   2.687   4.207   2.445 -0.3583 -0.0025 -0.3392
31914SOL     OW96319   5.999   1.654   3.032 -0.4450  0.2020 -0.2308
31914SOL    HW196320   5.976   1.653   3.125 -0.3544 -1.9979 -0.1762
31914SOL    HW296321   5.951   1.728   2.996  0.4818  1.8849  1.7640
31915SOL     OW96322   4.123   8.273   7.507 -0.3651 -0.7301  0.1434
31915SOL    HW196323   4.139   8.187   7.547 -2.1164 -0.5625  1.3393
31915SOL    HW296324   4.042   8.262   7.457 -0.2868  0.0796 -0.1797
31916SOL     OW96325   7.764   3.488   8.773 -0.2921 -0.4606  0.1810
31916SOL    HW196326   7.823   3.505   8.847  0.2062  0.1677 -0.3509
31916SOL    HW296327   7.814   3.429   8.716 -0.0945  0.2349 -0.3678
31917SOL     OW96328   8.944   7.479   9.372  0.2778  0.6107  0.5411
31917SOL    HW196329   8.995   7.482   9.454 -0.1275 -0.6874  0.8592
31917SOL    HW296330   8.976   7.401   9.327  0.8907  1.6143 -0.8256
31918SOL     OW96331   7.690   8.191   8.252 -0.2668  0.4295  0.3351
31918SOL    HW196332   7.648   8.132   8.316  1.4734 -0.1869  0.9615
31918SOL    HW296333   7.631   8.189   8.176 -1.5888 -0.0436  1.3278
31919SOL     OW96334   6.917   0.589   0.982 -0.1084  0.2757  0.6967
31919SOL    HW196335   6.862   0.604   0.905  0.7046 -1.9355 -0.4048
31919SOL    HW296336   6.856   0.568   1.052 -0.7641 -0.6562 -0.1253
31920SOL     OW96337   0.187   1.342   6.086 -0.3970 -0.8081  0.1240
31920SOL    HW196338   0.186   1.435   6.062 -1.2024 -0.9874 -0.5810
31920SOL    HW296339   0.255   1.304   6.031  1.0450 -0.3750  1.5326
31921SOL     OW96340   3.834   1.444   7.460 -1.3516 -0.2037 -0.2526
31921SOL    HW196341   3.780   1.391   7.518 -1.4000 -0.0061 -0.1159
31921SOL    HW296342   3.819   1.534   7.489 -3.0336  0.1152 -1.9204
31922SOL     OW96343   6.902   5.553   5.468  0.2493 -0.2729 -0.1634
31922SOL    HW196344   6.931   5.466   5.441  0.2575 -0.1819 -0.4530
31922SOL    HW296345   6.982   5.597   5.497  0.3756 -0.0869 -0.7833
31923SOL     OW96346   5.484   3.353   6.814  0.1456 -0.8108  0.0525
31923SOL    HW196347   5.462   3.261   6.797  0.7597 -1.1031  0.7797
31923SOL    HW296348   5.578   3.353   6.828  0.1193 -0.0924  0.2840
31924SOL     OW96349   9.406   7.878   6.021 -0.8072  0.1467 -0.1786
31924SOL    HW196350   9.377   7.803   5.970 -2.2966  1.2598 -1.0303
31924SOL    HW296351   9.332   7.901   6.076  0.4774 -0.4905  1.9386
31925SOL     OW96352   9.348   5.720   5.103 -0.4063  0.1351  0.4822
31925SOL    HW196353   9.438   5.741   5.080  0.5220 -4.0524 -0.3872
31925SOL    HW296354   9.300   5.727   5.021 -0.3368 -0.1258  0.4201
31926SOL     OW96355   9.932   0.959   5.978 -0.1457  0.2762 -0.5862
31926SOL    HW196356   9.874   0.956   5.902 -0.5461  0.5020 -0.2902
31926SOL    HW296357   9.874   0.943   6.053  0.0281  1.3840 -0.2077
31927SOL     OW96358   7.584   0.364   0.771  0.0014  0.1058  0.2752
31927SOL    HW196359   7.560   0.275   0.798  0.0765 -0.3125 -0.9718
31927SOL    HW296360   7.502   0.403   0.742  0.2560 -0.2191 -0.9443
31928SOL     OW96361   0.221   4.934   4.445 -0.6276  0.1204  0.6860
31928SOL    HW196362   0.247   4.947   4.354 -0.0068  1.1548  0.9896
31928SOL    HW296363   0.165   4.857   4.444 -0.0915 -0.2670 -0.4723
31929SOL     OW96364   3.420   2.097   7.546 -0.4354 -0.0175  0.3477
31929SOL    HW196365   3.509   2.120   7.573  0.0718 -0.2759 -1.0210
31929SOL    HW296366   3.425   2.090   7.451 -1.6901 -1.0514  0.3336
31930SOL     OW96367   4.669   5.408   2.155  0.4846  0.5393 -0.0559
31930SOL    HW196368   4.607   5.434   2.223 -0.1214 -0.3180 -0.2624
31930SOL    HW296369   4.643   5.458   2.078  0.5362  0.7535  0.0649
31931SOL     OW96370   7.792   3.507   5.039  0.5516 -0.1599  0.2050
31931SOL    HW196371   7.706   3.483   5.071  1.7021 -1.8507  2.2512
31931SOL    HW296372   7.817   3.435   4.981  0.6114  0.3089 -0.3577
31932SOL     OW96373   4.463   2.541   6.498  0.6923  0.1422  0.2942
31932SOL    HW196374   4.387   2.588   6.464  0.2091  1.6287  3.1321
31932SOL    HW296375   4.505   2.604   6.557  1.5426 -2.1260  2.2485
31933SOL     OW96376   7.875   3.190   7.144  0.1298 -0.4488  0.3751
31933SOL    HW196377   7.916   3.170   7.060  0.1268 -0.5986  0.4090
31933SOL    HW296378   7.946   3.180   7.209  0.3541  0.5526  0.2919
31934SOL     OW96379   4.090   7.526   1.693  0.7671  0.7118  0.4547
31934SOL    HW196380   4.026   7.495   1.757  1.2283  0.5133  0.8242
31934SOL    HW296381   4.043   7.525   1.610  0.7257 -0.8754  0.4626
31935SOL     OW96382   9.204   4.208   6.819 -0.3198  0.1455  0.3661
31935SOL    HW196383   9.188   4.243   6.907 -1.6285  0.3130  0.0859
31935SOL    HW296384   9.293   4.235   6.798  0.2684 -0.4705  1.9015
31936SOL     OW96385   7.880   0.795   0.301  0.5464  0.1667  0.2022
31936SOL    HW196386   7.828   0.850   0.241  0.1189 -0.4433 -0.0024
31936SOL    HW296387   7.832   0.712   0.304  1.2372 -0.2272  0.4319
31937SOL     OW96388   2.798   8.464   8.303  0.1688 -0.2219  0.0987
31937SOL    HW196389   2.878   8.507   8.274  0.9422 -1.0514  0.9183
31937SOL    HW296390   2.825   8.375   8.326 -1.0528 -0.6248  0.0800
31938SOL     OW96391   8.887   9.643   3.558 -0.7137 -0.5891 -0.0871
31938SOL    HW196392   8.851   9.556   3.539 -0.9000 -0.3440 -0.8739
31938SOL    HW296393   8.954   9.657   3.491 -0.5345 -0.2171  0.1694
31939SOL     OW96394   8.355   0.120   1.771  0.1696 -0.0092 -0.5608
31939SOL    HW196395   8.441   0.118   1.813 -0.2021 -2.1571  0.2119
31939SOL    HW296396   8.316   0.203   1.800  1.2633  0.1597  0.5163
31940SOL     OW96397   5.142   0.278   7.202  0.0628  0.3342  0.0661
31940SOL    HW196398   5.217   0.313   7.153  1.5655  0.9022  2.5907
31940SOL    HW296399   5.174   0.197   7.241 -0.7159  0.4152  0.9175
31941SOL     OW96400   4.168   5.460   4.122  0.1521 -0.0413 -0.5674
31941SOL    HW196401   4.152   5.479   4.029  1.3297  2.5783 -0.3317
31941SOL    HW296402   4.090   5.492   4.167 -0.6191 -1.7211 -0.6203
31942SOL     OW96403   9.614   2.408   4.171  0.3861 -0.0979 -0.9836
31942SOL    HW196404   9.529   2.445   4.149  0.1436 -0.3177 -0.4437
31942SOL    HW296405   9.653   2.385   4.087 -0.4529 -0.8033 -1.1880
31943SOL     OW96406   8.669   1.377   2.253  0.3331  0.1509 -0.1651
31943SOL    HW196407   8.604   1.322   2.210  0.0633 -0.5715  1.0935
31943SOL    HW296408   8.647   1.370   2.347  2.9231 -1.0689  0.4255
31944SOL     OW96409   1.464   8.277   3.825  0.4142 -0.2813  0.0529
31944SOL    HW196410   1.525   8.318   3.764  1.7983  1.5384  2.5124
31944SOL    HW296411   1.514   8.204   3.862  0.1327 -0.4257  0.1469
31945SOL     OW96412   9.471   1.352   8.516  0.1167  0.2544 -0.0527
31945SOL    HW196413   9.423   1.269   8.522 -0.8409  0.8194  0.2193
31945SOL    HW296414   9.542   1.334   8.454  1.8500 -1.6876  2.3259
31946SOL     OW96415   5.752   0.218   5.320  0.2841  0.1652  0.6062
31946SOL    HW196416   5.687   0.273   5.275 -0.1981 -0.6496  0.2851
31946SOL    HW296417   5.813   0.192   5.250  0.1709 -0.1965  0.6440
31947SOL     OW96418   6.124   7.629   2.835 -0.0908 -0.1910 -0.8604
31947SOL    HW196419   6.113   7.577   2.755 -0.8323 -0.7858 -0.3822
31947SOL    HW296420   6.036   7.661   2.855  0.2012  0.4988 -0.6326
31948SOL     OW96421   8.968   6.650   6.283 -0.1542  0.3314 -0.4699
31948SOL    HW196422   8.877   6.632   6.257  0.6310 -1.4406 -2.2270
31948SOL    HW296423   9.003   6.706   6.213  0.2976  0.4931 -0.1219
31949SOL     OW96424   2.586   0.471   8.861 -0.1371 -0.2736  0.2752
31949SOL    HW196425   2.587   0.563   8.835 -1.2950 -0.1702  0.5346
31949SOL    HW296426   2.661   0.462   8.920  0.4923  0.2916 -0.4177
31950SOL     OW96427   2.465   4.788   0.642  0.3850  0.4432 -0.2002
31950SOL    HW196428   2.397   4.809   0.578  0.7071  1.3559 -0.2598
31950SOL    HW296429   2.417   4.756   0.718 -0.1070  0.8488 -0.3298
31951SOL     OW96430   9.684   7.084   9.168 -0.0785 -0.5025 -0.0215
31951SOL    HW196431   9.778   7.066   9.170  0.1912  0.2104 -2.4935
31951SOL    HW296432   9.678   7.177   9.191  0.1824  0.1971 -2.4672
31952SOL     OW96433   0.817   0.663   1.972  0.2946  0.5812  0.2202
31952SOL    HW196434   0.723   0.675   1.961  0.2732  1.6632  1.3827
31952SOL    HW296435   0.828   0.569   1.984 -0.5335  0.3512 -0.7062
31953SOL     OW96436   6.226   1.755   0.567 -0.4826  0.3818  0.4540
31953SOL    HW196437   6.284   1.681   0.587 -1.2751  0.0320  1.5592
31953SOL    HW296438   6.249   1.822   0.631 -1.2404  0.2613  0.8629
31954SOL     OW96439   2.433   1.050   1.461 -0.3740  0.0286  0.6574
31954SOL    HW196440   2.450   1.033   1.368  0.3920  0.2660  0.7409
31954SOL    HW296441   2.376   1.127   1.461  0.0058  0.3174  0.3874
31955SOL     OW96442   5.582   9.234   7.858  0.0447  0.9250  0.4498
31955SOL    HW196443   5.636   9.312   7.865  1.8707 -0.3868  2.3290
31955SOL    HW296444   5.644   9.161   7.859 -1.6604 -0.6092  0.6165
31956SOL     OW96445   1.203   9.864   7.486 -0.0139 -0.3865 -0.0014
31956SOL    HW196446   1.264   9.819   7.428  1.8494  1.1964  0.6338
31956SOL    HW296447   1.154   9.923   7.429 -1.2268 -1.8826 -0.5610
31957SOL     OW96448   6.848   4.339   6.012  0.1410 -0.1838 -0.2093
31957SOL    HW196449   6.899   4.420   6.017 -0.7585  0.4448 -0.9387
31957SOL    HW296450   6.784   4.347   6.083  0.2652 -0.4261 -0.0668
31958SOL     OW96451   8.637   8.411   5.089  0.5238  0.3429  0.3352
31958SOL    HW196452   8.689   8.356   5.148  1.0354  2.1167  1.6336
31958SOL    HW296453   8.690   8.490   5.076 -0.4750  0.8564 -0.8884
31959SOL     OW96454   3.440   2.284   3.787  0.2433  0.3021 -0.2223
31959SOL    HW196455   3.462   2.245   3.872  1.4011  0.3619 -0.4739
31959SOL    HW296456   3.349   2.259   3.773 -0.6787  2.0523  1.9908
31960SOL     OW96457   9.566   2.672   6.216  0.5095 -0.2487  0.0307
31960SOL    HW196458   9.577   2.634   6.129  0.6579 -1.3072  0.4909
31960SOL    HW296459   9.472   2.673   6.231  0.5182 -0.7408  0.1358
31961SOL     OW96460   9.732   6.332   3.463  0.9343  0.4123  0.0629
31961SOL    HW196461   9.705   6.282   3.386 -1.6845  1.6443  0.0999
31961SOL    HW296462   9.828   6.332   3.458  0.9793  2.3277 -4.5218
31962SOL     OW96463   3.362   4.051   1.826 -0.7283  0.5269 -0.4107
31962SOL    HW196464   3.302   3.982   1.798 -1.3659  0.6744  0.5695
31962SOL    HW296465   3.328   4.081   1.910  1.7022 -0.6331  1.1237
31963SOL     OW96466   5.041   3.556   1.550  0.0337 -0.4511  0.0332
31963SOL    HW196467   5.071   3.577   1.639  0.4646 -0.5637 -0.0830
31963SOL    HW296468   4.956   3.600   1.543 -0.7704 -1.7638  1.0671
31964SOL     OW96469   4.077   5.096   8.014 -0.2606 -0.1148 -0.0954
31964SOL    HW196470   4.098   5.003   8.001  1.1547  0.0886  0.4927
31964SOL    HW296471   4.028   5.120   7.935 -2.1616 -1.7498  0.5173
31965SOL     OW96472   0.024   9.689   2.982  0.6669 -1.0031  0.0966
31965SOL    HW196473   0.073   9.769   2.964 -0.1232 -0.6531 -0.5398
31965SOL    HW296474   0.032   9.637   2.903  1.3157 -1.6400  0.5691
31966SOL     OW96475   2.197   5.599   9.142  0.5209 -0.2934  0.2878
31966SOL    HW196476   2.209   5.643   9.226  0.1049  0.5175 -0.0784
31966SOL    HW296477   2.106   5.615   9.118 -0.5193 -3.5998  1.4213
31967SOL     OW96478   2.119   1.404   2.926 -0.3599 -0.3481  0.2047
31967SOL    HW196479   2.171   1.388   3.004  1.1412 -3.5189 -1.2292
31967SOL    HW296480   2.039   1.353   2.940 -0.4323 -0.2874  0.0153
31968SOL     OW96481   6.663   4.631   7.297  0.2849  0.3627  0.2626
31968SOL    HW196482   6.589   4.678   7.336  0.9987  1.4934  0.3069
31968SOL    HW296483   6.629   4.544   7.277 -1.0890  0.9140  0.1432
31969SOL     OW96484   5.961   1.821   0.865  0.1913  0.1820  0.5877
31969SOL    HW196485   5.951   1.726   0.875 -0.8055 -0.0258 -1.6563
31969SOL    HW296486   5.883   1.858   0.905  0.5848  0.0580  1.4750
31970SOL     OW96487   7.455   8.897   7.671 -0.4475 -0.1027 -0.0494
31970SOL    HW196488   7.361   8.894   7.655 -1.1343  1.5597  2.8530
31970SOL    HW296489   7.489   8.958   7.605 -1.7056  0.4618 -0.2021
31971SOL     OW96490   0.953   9.637   6.600 -0.0277  0.5644 -0.0323
31971SOL    HW196491   0.992   9.677   6.678 -0.2283 -0.5707  0.6585
31971SOL    HW296492   0.866   9.676   6.594 -2.0289 -2.7846  3.1896
31972SOL     OW96493   5.727   3.924   8.326  0.0323 -0.6077  0.1260
31972SOL    HW196494   5.649   3.974   8.302 -1.0852 -2.2398  0.2515
31972SOL    HW296495   5.698   3.864   8.395  1.5829 -0.7402  0.7204
31973SOL     OW96496   2.078   9.522   3.696 -0.1886 -0.5971  0.0824
31973SOL    HW196497   2.008   9.524   3.761 -0.4561  1.4194 -0.2058
31973SOL    HW296498   2.158   9.538   3.746 -0.1725 -0.8940  0.1524
31974SOL     OW96499   9.368   3.856   9.042 -0.5549 -0.1471 -0.7363
31974SOL    HW196500   9.408   3.843   8.956 -0.0475 -0.1076 -0.5069
31974SOL    HW296501   9.362   3.951   9.052 -1.0510 -0.1538 -0.9250
31975SOL     OW96502   8.512   5.688   2.499  0.4725 -0.0463  0.5569
31975SOL    HW196503   8.469   5.658   2.420  0.6595  0.2861  0.3264
31975SOL    HW296504   8.580   5.748   2.469 -0.0521  0.8058  1.0155
31976SOL     OW96505   3.165   7.111   2.055  0.0025 -0.4537  0.1073
31976SOL    HW196506   3.196   7.094   1.966 -0.5590 -1.6775  0.1159
31976SOL    HW296507   3.197   7.036   2.106 -2.1771 -1.3204  0.2950
31977SOL     OW96508   0.603   3.292   9.253 -0.1654 -0.3708 -0.3729
31977SOL    HW196509   0.626   3.248   9.171 -0.7158  0.1412 -0.8122
31977SOL    HW296510   0.543   3.362   9.226  1.2205  1.1157  0.2031
31978SOL     OW96511   7.441   6.736   2.602 -0.0978  0.8185 -0.4976
31978SOL    HW196512   7.386   6.779   2.667  0.6289  1.2490 -0.1532
31978SOL    HW296513   7.466   6.653   2.643  0.2573  1.0331 -0.2836
31979SOL     OW96514   3.275   1.629   4.561  0.1991 -0.3360 -0.1711
31979SOL    HW196515   3.240   1.717   4.570 -0.2414 -0.6134  0.9276
31979SOL    HW296516   3.339   1.621   4.632  0.2771 -0.8789 -0.2953
31980SOL     OW96517   0.794   9.718   8.082  0.5440  0.0475  0.2282
31980SOL    HW196518   0.793   9.677   7.996 -0.6463  1.3466 -0.4224
31980SOL    HW296519   0.804   9.812   8.064 -0.2653  0.3987  1.4599
31981SOL     OW96520   5.670   8.226   0.887 -0.3900 -0.5498  0.3322
31981SOL    HW196521   5.629   8.247   0.803 -0.2930 -0.3603  0.3305
31981SOL    HW296522   5.597   8.214   0.948 -0.4368  0.3029  0.4521
31982SOL     OW96523   8.156   5.356   0.464  0.1733 -0.4454  0.5109
31982SOL    HW196524   8.224   5.293   0.440 -0.1129 -0.2869 -0.8206
31982SOL    HW296525   8.188   5.440   0.431 -1.7279 -0.7457 -2.5257
31983SOL     OW96526   2.888   8.888   5.307 -0.3422 -0.3390  0.0238
31983SOL    HW196527   2.811   8.837   5.280 -0.5088  0.4364 -1.0272
31983SOL    HW296528   2.924   8.840   5.382  0.1319 -2.6114 -1.5673
31984SOL     OW96529   9.769   2.510   6.745  0.5636 -0.3584  0.2115
31984SOL    HW196530   9.686   2.472   6.716  0.4959  0.5542 -0.8381
31984SOL    HW296531   9.746   2.563   6.821  0.2621 -0.5105  0.2279
31985SOL     OW96532   7.915   8.093   6.725  1.2092 -0.2372 -0.5421
31985SOL    HW196533   7.996   8.066   6.768  0.3189 -0.7732  0.8624
31985SOL    HW296534   7.870   8.011   6.703  0.8706  0.0517 -0.9491
31986SOL     OW96535   0.074   1.926   2.673  0.1977  0.2761 -0.7730
31986SOL    HW196536   0.058   2.018   2.695  3.5661  1.0000 -0.6814
31986SOL    HW296537   0.077   1.881   2.757  0.0599  0.3983 -0.7026
31987SOL     OW96538   8.229   1.517   4.510 -0.1517  0.3227 -0.5411
31987SOL    HW196539   8.178   1.443   4.478 -0.2619  0.1137  0.1047
31987SOL    HW296540   8.280   1.545   4.434  0.2423 -0.7099 -0.6801
31988SOL     OW96541   1.008   4.063   2.834  0.1485 -0.3611  0.0531
31988SOL    HW196542   1.092   4.107   2.851  0.1164  0.2601 -1.2895
31988SOL    HW296543   1.004   3.993   2.900  0.6529  1.0095  1.6184
31989SOL     OW96544   5.795   0.307   3.863  0.0043 -0.5605  0.0927
31989SOL    HW196545   5.847   0.334   3.788 -0.1849  0.8483  0.4428
31989SOL    HW296546   5.740   0.382   3.883  1.8101  0.1648  3.1673
31990SOL     OW96547   6.530   5.840   9.255 -0.0483 -0.6529  0.2232
31990SOL    HW196548   6.442   5.857   9.222  0.6914 -0.2873 -1.6927
31990SOL    HW296549   6.582   5.820   9.177  1.3309 -1.9891  1.4223
31991SOL     OW96550   5.711   8.356   2.684  0.0937  0.1960  0.0129
31991SOL    HW196551   5.762   8.390   2.759  0.6199 -1.7457  0.5957
31991SOL    HW296552   5.773   8.356   2.612 -0.2700  1.5869 -0.3390
31992SOL     OW96553   7.625   5.675   0.378 -0.6088 -0.7498 -0.0046
31992SOL    HW196554   7.693   5.738   0.353 -1.6078  0.1813 -0.4629
31992SOL    HW296555   7.669   5.616   0.439  0.7043 -0.3914 -0.5575
31993SOL     OW96556   1.994   7.452   0.589 -0.9009 -0.9773 -0.1760
31993SOL    HW196557   2.061   7.509   0.625 -3.3087  1.2073  1.2096
31993SOL    HW296558   1.950   7.505   0.523 -1.9236 -1.9697 -0.3321
31994SOL     OW96559   9.652   5.444   9.893 -0.4852 -0.1439 -0.2921
31994SOL    HW196560   9.724   5.508   9.891 -0.4597 -0.0854  1.4291
31994SOL    HW296561   9.608   5.456   9.809 -1.3633  3.1555  0.5086
31995SOL     OW96562   6.908   1.129   7.506  0.1324 -0.1900  0.3486
31995SOL    HW196563   7.001   1.108   7.514  0.1364 -0.1160  0.4923
31995SOL    HW296564   6.877   1.136   7.596  0.1066  0.3130  0.3031
31996SOL     OW96565   2.286   2.087   9.113 -0.4329  0.5898 -0.2216
31996SOL    HW196566   2.347   2.104   9.041 -1.1735 -0.0857 -1.0394
31996SOL    HW296567   2.338   2.042   9.179 -0.1295 -0.3951 -1.1088
31997SOL     OW96568   8.714   3.087   5.991  0.1879  0.7101  0.2169
31997SOL    HW196569   8.696   3.170   6.035  2.4671  1.5809 -0.3347
31997SOL    HW296570   8.780   3.109   5.924 -1.9326 -0.8060 -2.6218
31998SOL     OW96571   4.617   2.297   9.554  0.4248  0.0695  0.1426
31998SOL    HW196572   4.692   2.307   9.612  0.6227 -0.4444 -0.0223
31998SOL    HW296573   4.585   2.386   9.540  1.3343  0.3435 -0.2316
31999SOL     OW96574   9.770   6.897   6.378 -0.4042 -0.8135 -0.1004
31999SOL    HW196575   9.690   6.947   6.396 -0.9783 -1.5427 -0.5353
31999SOL    HW296576   9.743   6.833   6.312  0.8982 -0.1533 -1.3332
32000SOL     OW96577   8.966   3.112   9.358 -0.7439  0.7001  0.7667
32000SOL    HW196578   9.032   3.065   9.307  0.3060  1.7450  1.0991
32000SOL    HW296579   9.000   3.109   9.448 -0.3493  2.5124  0.7212
32001SOL     OW96580   5.312   9.004   4.089 -0.7448 -1.1802 -0.3370
32001SOL    HW196581   5.283   9.096   4.095 -0.8752 -1.2549  0.2080
32001SOL    HW296582   5.244   8.962   4.037 -1.0128 -1.1011 -0.0542
32002SOL     OW96583   8.335   0.774   1.092 -0.3891  0.3898  0.0161
32002SOL    HW196584   8.331   0.679   1.098 -0.1297  0.3179 -0.8552
32002SOL    HW296585   8.428   0.795   1.105 -0.3589  0.4781 -0.3265
32003SOL     OW96586   4.684   1.086   1.148 -0.5966 -0.9157  0.3068
32003SOL    HW196587   4.714   1.004   1.187 -1.5052 -1.1166  0.5854
32003SOL    HW296588   4.743   1.152   1.185  0.8456 -1.5555 -0.7552
32004SOL     OW96589   5.910   0.582   7.866 -0.0343 -0.0961  0.6187
32004SOL    HW196590   5.966   0.524   7.815  0.6236  0.1125  1.0957
32004SOL    HW296591   5.948   0.582   7.954 -0.4380  0.5081  0.8031
32005SOL     OW96592   7.483   5.142   6.379 -0.7262 -0.3992 -0.0478
32005SOL    HW196593   7.566   5.101   6.356 -1.2260 -1.2598 -0.3486
32005SOL    HW296594   7.482   5.141   6.475 -0.3645 -0.3228 -0.0415
32006SOL     OW96595   3.947   9.544   1.923 -0.0238 -0.1825 -0.1871
32006SOL    HW196596   4.025   9.493   1.945 -0.5428 -1.4103 -1.0478
32006SOL    HW296597   3.880   9.477   1.904 -1.0618  0.8371 -0.2162
32007SOL     OW96598   4.309   7.058   7.166  0.1392  0.3206 -0.1795
32007SOL    HW196599   4.314   7.141   7.213  0.7503 -0.0030  0.3363
32007SOL    HW296600   4.400   7.040   7.140  0.5538 -1.6269  2.2548
32008SOL     OW96601   7.266   2.995   6.946 -0.0246 -0.4119 -0.2800
32008SOL    HW196602   7.232   2.921   6.896 -0.5188  0.0730 -0.6788
32008SOL    HW296603   7.187   3.041   6.977  0.2319 -1.5585  2.2746
32009SOL     OW96604   3.943   8.274   9.107 -0.3376  0.2758 -0.2654
32009SOL    HW196605   3.891   8.193   9.107  2.3185 -1.5703  1.3282
32009SOL    HW296606   4.032   8.245   9.088  0.5631  3.0100 -0.5881
32010SOL     OW96607   7.906   8.405   9.536  0.8406 -0.0357  0.5023
32010SOL    HW196608   7.837   8.465   9.510  1.6288  1.5727  1.9037
32010SOL    HW296609   7.970   8.409   9.464  1.0202  1.0549  0.7067
32011SOL     OW96610   0.112   0.706   7.875 -0.1624  0.4850 -0.6171
32011SOL    HW196611   0.086   0.779   7.931  2.2588  1.9774 -1.2839
32011SOL    HW296612   0.163   0.649   7.933 -1.6946 -0.5247 -0.2026
32012SOL     OW96613   5.229   5.612   5.894 -0.0721 -0.3319 -0.0417
32012SOL    HW196614   5.217   5.533   5.947  1.9244 -1.9948 -1.8589
32012SOL    HW296615   5.157   5.610   5.831 -1.2793  0.5439  1.2643
32013SOL     OW96616   9.599   7.442   6.852 -0.0768 -0.4854 -0.4066
32013SOL    HW196617   9.603   7.481   6.939  0.9068 -0.1843 -0.5772
32013SOL    HW296618   9.508   7.414   6.843 -0.1874 -0.5588  0.7312
32014SOL     OW96619   9.060   8.674   3.657 -0.4399 -0.0083 -0.6014
32014SOL    HW196620   8.974   8.695   3.692 -0.5552  0.6818 -1.2783
32014SOL    HW296621   9.044   8.604   3.594 -0.2295 -1.2601  0.6782
32015SOL     OW96622   6.884   8.924   5.548 -0.1839 -0.4058 -0.2275
32015SOL    HW196623   6.943   8.990   5.511 -1.0242  0.8413  0.6137
32015SOL    HW296624   6.815   8.915   5.482 -1.0410  0.9351  0.4452
32016SOL     OW96625   7.839   4.696   3.874 -0.2676  0.6149 -0.2728
32016SOL    HW196626   7.817   4.758   3.944  0.3983  1.1518 -0.5330
32016SOL    HW296627   7.934   4.693   3.873 -0.2839 -0.2405 -0.4284
32017SOL     OW96628   2.128   1.038   2.231 -0.7958 -0.5831 -0.2240
32017SOL    HW196629   2.212   1.020   2.274 -0.4440 -1.1955 -1.1445
32017SOL    HW296630   2.062   1.008   2.293 -0.3470  0.0708  0.5889
32018SOL     OW96631   2.596   9.140   9.487 -0.3860 -0.3942 -0.4981
32018SOL    HW196632   2.660   9.210   9.500 -1.5651  0.9862 -1.7888
32018SOL    HW296633   2.636   9.063   9.529  1.3462  0.8069  0.1782
32019SOL     OW96634   1.918   5.577   8.563 -0.2400  0.1356 -0.7539
32019SOL    HW196635   1.845   5.525   8.595 -0.2615  0.8000  0.3437
32019SOL    HW296636   1.994   5.545   8.612 -0.5800  2.3874  1.4578
32020SOL     OW96637   5.992   2.853   4.312  0.2912 -0.4961  0.5819
32020SOL    HW196638   5.950   2.923   4.262  0.2243 -0.2298  1.0028
32020SOL    HW296639   5.986   2.776   4.256 -0.6183 -0.4219  0.5737
32021SOL     OW96640   2.106   7.018   7.974 -0.0176 -0.2125 -0.3785
32021SOL    HW196641   2.046   7.061   8.035  0.9240  0.0697  0.3652
32021SOL    HW296642   2.125   7.086   7.908  1.2132  0.4576  0.6167
32022SOL     OW96643   7.688   4.035   6.221 -0.4661 -0.8403 -0.0145
32022SOL    HW196644   7.772   4.004   6.256 -0.1294  0.4389  0.3703
32022SOL    HW296645   7.662   3.967   6.158  1.2365 -0.9022 -0.7098
32023SOL     OW96646   0.013   4.512   4.030 -0.2690 -0.3272 -0.1965
32023SOL    HW196647   0.068   4.437   4.053  1.1385  1.1762  1.6452
32023SOL    HW296648  -0.001   4.502   3.935  2.0419 -1.5469 -0.5035
32024SOL     OW96649   2.200   2.591   1.624 -0.4140  0.0014  0.4770
32024SOL    HW196650   2.242   2.559   1.544  1.0585  1.3645  0.6486
32024SOL    HW296651   2.149   2.667   1.595 -2.8757 -1.6395  0.2723
32025SOL     OW96652   2.338   3.338   4.572 -0.2275  0.3014  0.2322
32025SOL    HW196653   2.350   3.252   4.613 -1.6653 -1.1269 -2.0205
32025SOL    HW296654   2.260   3.374   4.614  0.4591  0.5828  1.2821
32026SOL     OW96655   9.634   7.294   0.432  0.3976  0.0903 -0.0394
32026SOL    HW196656   9.666   7.357   0.496  0.1380  0.1877 -0.0043
32026SOL    HW296657   9.607   7.219   0.484 -1.2304  0.7476  0.1163
32027SOL     OW96658   0.944   8.648   1.499  0.1939 -0.1413 -0.2093
32027SOL    HW196659   0.858   8.608   1.493  0.4181 -0.8011  0.6744
32027SOL    HW296660   0.994   8.611   1.426  0.6138 -2.0755  0.9901
32028SOL     OW96661   7.920   8.732   5.773 -0.4961  0.4800  0.4116
32028SOL    HW196662   7.832   8.695   5.766 -0.0756 -0.3327 -0.9842
32028SOL    HW296663   7.909   8.824   5.749 -1.0009  0.4366  0.4668
32029SOL     OW96664   9.916   2.666   9.669  0.6309  0.3161 -0.0307
32029SOL    HW196665   9.927   2.660   9.574 -0.6239 -0.4838 -0.1407
32029SOL    HW296666   9.872   2.585   9.694 -0.2149  1.0808  1.0564
32030SOL     OW96667   0.541   0.835   1.392  0.1716  0.2945 -0.2579
32030SOL    HW196668   0.503   0.891   1.460  0.1190  0.9411 -0.8126
32030SOL    HW296669   0.587   0.766   1.441 -0.6864  0.1958  0.4239
32031SOL     OW96670   3.446   2.805   7.989 -0.4954  0.1996  0.7855
32031SOL    HW196671   3.421   2.715   7.970  1.4978 -0.2350 -0.0063
32031SOL    HW296672   3.446   2.849   7.905 -0.0143  0.5319  0.9520
32032SOL     OW96673   4.193   9.086   7.339 -0.7593  0.2069  0.3258
32032SOL    HW196674   4.228   9.061   7.253 -0.3319  2.1345 -0.1221
32032SOL    HW296675   4.105   9.048   7.341  0.1055 -1.9319  0.0827
32033SOL     OW96676   8.073   4.909   2.892  0.3233  0.0490  0.0912
32033SOL    HW196677   8.050   4.942   2.806 -1.7856 -0.1659  0.5125
32033SOL    HW296678   8.128   4.977   2.931  0.6879  0.4738 -1.1412
32034SOL     OW96679   7.555   2.676   6.103 -0.1638 -0.2402 -0.4081
32034SOL    HW196680   7.647   2.699   6.095 -0.5057  1.6322  0.7146
32034SOL    HW296681   7.553   2.608   6.171  0.4778 -1.1816 -1.2918
32035SOL     OW96682   9.965   1.881   8.193 -0.2377  0.0471  0.3071
32035SOL    HW196683  10.058   1.886   8.170  0.1291  0.4128  1.7936
32035SOL    HW296684   9.922   1.860   8.110  1.1108  0.3442 -0.5129
32036SOL     OW96685   8.827   0.176   6.865 -0.6889  0.2155 -0.1222
32036SOL    HW196686   8.786   0.258   6.838  0.1357  0.0080 -2.1951
32036SOL    HW296687   8.916   0.181   6.832 -0.1243 -0.8683  1.1220
32037SOL     OW96688   1.929   0.951   2.419 -0.6388  0.4010  0.0989
32037SOL    HW196689   1.923   0.891   2.493  0.0448 -0.2754 -0.3690
32037SOL    HW296690   1.846   0.939   2.372 -1.9767  2.3635  1.8406
32038SOL     OW96691   3.219   9.778   0.741  0.0537 -0.6243  1.1677
32038SOL    HW196692   3.143   9.795   0.797 -0.6945  0.1964 -0.0253
32038SOL    HW296693   3.282   9.846   0.764 -0.7916  0.5806  0.1460
32039SOL     OW96694   2.755   1.668   3.747  0.3023 -0.3475 -0.3797
32039SOL    HW196695   2.746   1.623   3.831  0.2294 -0.4932 -0.4650
32039SOL    HW296696   2.667   1.699   3.727  0.6465  1.2768  0.4749
32040SOL     OW96697   4.576   8.500   0.188 -0.4086 -0.4093  0.1085
32040SOL    HW196698   4.483   8.491   0.164 -0.5165  0.4611  0.1561
32040SOL    HW296699   4.582   8.458   0.274 -0.4886 -1.5753 -0.4423
32041SOL     OW96700   1.571   9.043   3.737  0.0274  0.2940  0.0136
32041SOL    HW196701   1.554   9.127   3.693 -0.6156  1.7277  2.7437
32041SOL    HW296702   1.649   9.059   3.790 -1.0443 -0.2416  1.8417
32042SOL     OW96703   6.102   4.684   7.944  0.0831 -0.0256 -0.1567
32042SOL    HW196704   6.066   4.674   7.856  0.7666  0.8123 -0.5532
32042SOL    HW296705   6.179   4.627   7.945  0.4858  0.5080 -0.3525
32043SOL     OW96706   4.450   3.664   9.741 -0.0285  0.1083  0.2035
32043SOL    HW196707   4.531   3.643   9.694  0.5503 -0.5913  1.4828
32043SOL    HW296708   4.476   3.725   9.810 -0.7424  0.5254  0.1213
32044SOL     OW96709   9.751   0.021   2.928 -0.7458  0.1706 -0.0933
32044SOL    HW196710   9.764  -0.006   2.838 -0.2535 -0.0439  0.0398
32044SOL    HW296711   9.662   0.058   2.930 -0.5930  0.5841 -0.7585
32045SOL     OW96712   7.462   7.720   2.416  0.1897 -0.4587  0.5311
32045SOL    HW196713   7.389   7.693   2.472 -0.9476  0.6841 -0.3204
32045SOL    HW296714   7.419   7.757   2.339  1.6997  0.1052 -0.0651
32046SOL     OW96715   3.807   9.697   0.224 -0.0332 -0.4749 -0.5684
32046SOL    HW196716   3.899   9.723   0.230  0.4090 -1.8543 -0.9089
32046SOL    HW296717   3.795   9.637   0.297 -1.4507  1.7792  1.1595
32047SOL     OW96718   2.120   5.004   1.939 -0.0186 -0.0557  0.0089
32047SOL    HW196719   2.153   4.963   2.019  1.3862 -1.3647 -1.1725
32047SOL    HW296720   2.053   4.944   1.907 -2.9169  1.9943  1.7409
32048SOL     OW96721   7.146   8.252   7.284  0.0996 -0.2715  0.0427
32048SOL    HW196722   7.169   8.321   7.345 -0.2425  0.7275 -0.9245
32048SOL    HW296723   7.051   8.239   7.295 -0.3633  1.3211 -1.6214
32049SOL     OW96724   6.899   8.008   2.967 -0.7846 -0.5892 -0.1701
32049SOL    HW196725   6.866   7.980   2.882 -0.7834  0.3685 -0.4893
32049SOL    HW296726   6.822   8.038   3.015 -0.9118 -1.8665  0.4853
32050SOL     OW96727   7.245   7.112   4.404  0.1922  0.2309 -0.3302
32050SOL    HW196728   7.246   7.018   4.382  2.1529 -0.0467  0.7400
32050SOL    HW296729   7.270   7.156   4.323  0.2276 -0.2404 -0.5774
32051SOL     OW96730   2.547   6.643   1.382  0.4366  0.0243  0.2057
32051SOL    HW196731   2.511   6.571   1.435  1.4213 -0.0277  0.8395
32051SOL    HW296732   2.562   6.714   1.445  0.9575  0.2154 -0.1277
32052SOL     OW96733   0.478   2.119   3.671  0.3943 -0.0313  0.0880
32052SOL    HW196734   0.572   2.141   3.670 -0.1008  2.6222 -2.4601
32052SOL    HW296735   0.434   2.203   3.685 -1.6142 -1.0348  0.0559
32053SOL     OW96736   8.909   2.867   7.273 -0.3285  0.0673  0.4264
32053SOL    HW196737   8.821   2.880   7.306 -0.8151 -0.5795 -0.5578
32053SOL    HW296738   8.930   2.947   7.225  0.2512  0.8694  1.9586
32054SOL     OW96739   4.919   3.662   1.997 -0.0904  0.2650  0.3043
32054SOL    HW196740   4.913   3.668   1.902 -1.0476  0.3258  0.3625
32054SOL    HW296741   4.930   3.752   2.027 -1.2488  0.4133  0.3321
32055SOL     OW96742   6.167   2.704   8.907 -0.3190  0.4464  0.5520
32055SOL    HW196743   6.141   2.613   8.890  0.9272  0.1047  0.3386
32055SOL    HW296744   6.156   2.715   9.002  1.5028 -0.6285  0.9381
32056SOL     OW96745   7.470   8.896   6.487 -0.3146  0.3368 -0.1425
32056SOL    HW196746   7.549   8.866   6.533  0.6325  1.8494 -0.6909
32056SOL    HW296747   7.412   8.926   6.557 -0.3484 -0.6134  0.2538
32057SOL     OW96748   4.460   9.188   2.994  0.3257  0.4067 -0.3008
32057SOL    HW196749   4.405   9.235   3.057  0.7394 -0.5943  0.8431
32057SOL    HW296750   4.544   9.178   3.037  1.0113  0.7451 -1.5072
32058SOL     OW96751   3.344   1.054   5.660 -0.6017 -0.1976  0.3321
32058SOL    HW196752   3.347   1.102   5.743  1.4133  0.1591  0.1005
32058SOL    HW296753   3.260   1.009   5.662 -0.2566 -0.9012  2.9758
32059SOL     OW96754   2.184   1.172   6.749 -0.8116  0.2440  0.1099
32059SOL    HW196755   2.159   1.184   6.657  2.1798 -0.0939 -0.8588
32059SOL    HW296756   2.246   1.099   6.748 -0.3234  0.5598  2.3212
32060SOL     OW96757   8.045   9.562   8.589  0.3950 -0.4517 -0.4593
32060SOL    HW196758   8.079   9.608   8.511 -1.9721  0.2235 -1.1586
32060SOL    HW296759   7.953   9.586   8.593  0.2091 -1.3258  1.9968
32061SOL     OW96760   5.131   2.621   2.415 -0.6255  0.0088 -0.6709
32061SOL    HW196761   5.096   2.574   2.491  0.4922 -0.8252 -0.6577
32061SOL    HW296762   5.209   2.571   2.389 -0.4309  0.8442 -1.7624
32062SOL     OW96763   2.496   4.790   0.229 -0.1949 -0.4627 -0.2831
32062SOL    HW196764   2.582   4.803   0.267 -1.7864  0.1918  3.6058
32062SOL    HW296765   2.500   4.703   0.189  2.1415 -0.5705  0.0454
32063SOL     OW96766   5.217   2.401   6.068  0.2538  0.5598 -0.2709
32063SOL    HW196767   5.212   2.493   6.044  0.0593  0.1946 -1.7363
32063SOL    HW296768   5.129   2.367   6.050  0.0623  0.2749  1.1167
32064SOL     OW96769   2.105   5.094   9.250 -0.1414 -0.2236  0.1822
32064SOL    HW196770   2.183   5.113   9.302 -0.9319  1.5562  0.8301
32064SOL    HW296771   2.121   5.137   9.166 -0.2994 -0.0774  0.2253
32065SOL     OW96772   1.971   8.620   9.848  0.0816 -0.3579 -0.4630
32065SOL    HW196773   1.921   8.652   9.924  0.6655 -0.3646 -0.0677
32065SOL    HW296774   1.963   8.525   9.853 -1.0343 -0.3111 -1.2107
32066SOL     OW96775   3.552   6.240   9.581 -0.1129 -0.0404  0.0634
32066SOL    HW196776   3.632   6.227   9.532 -0.9142 -0.6805 -1.1128
32066SOL    HW296777   3.546   6.335   9.594  1.9166 -0.0949  2.1071
32067SOL     OW96778   6.749   2.564   8.420  0.5219 -0.1534  0.1710
32067SOL    HW196779   6.744   2.572   8.325 -0.8333  0.4940  0.2861
32067SOL    HW296780   6.668   2.519   8.445  0.5290  0.3272  1.0915
32068SOL     OW96781   4.946   5.750   6.906 -0.0821  0.2440 -0.1572
32068SOL    HW196782   4.917   5.834   6.942 -1.6058 -0.2517 -0.1725
32068SOL    HW296783   4.871   5.692   6.916  1.2535 -1.4202  0.7629
32069SOL     OW96784   2.126   0.416   9.846  0.2299  0.4631 -0.1939
32069SOL    HW196785   2.068   0.466   9.788 -1.6808 -1.6812 -0.2889
32069SOL    HW296786   2.067   0.363   9.898  2.0761 -0.1110  1.4210
32070SOL     OW96787   3.449   8.049   7.775  0.2639 -0.1907 -0.2715
32070SOL    HW196788   3.482   8.134   7.748 -0.0285 -0.2300 -0.7569
32070SOL    HW296789   3.366   8.068   7.818  1.3532  0.0204  1.9021
32071SOL     OW96790   1.655   7.570   5.697  0.1414  0.0259 -0.1558
32071SOL    HW196791   1.575   7.589   5.746  0.7748 -1.1745  1.4021
32071SOL    HW296792   1.634   7.493   5.645  0.7029 -1.3164  1.4931
32072SOL     OW96793   3.865   7.392   7.554 -0.2889 -0.1122 -0.2000
32072SOL    HW196794   3.817   7.436   7.624  0.1568 -0.7227  0.5031
32072SOL    HW296795   3.799   7.338   7.510 -0.3231 -0.7627  0.6107
32073SOL     OW96796   5.681   4.300   8.819  0.4641 -0.0465  0.3035
32073SOL    HW196797   5.672   4.363   8.890 -0.2393 -1.6474  1.7186
32073SOL    HW296798   5.744   4.339   8.759  1.2035  1.2965  1.8821
32074SOL     OW96799   4.680   0.714   5.348  0.4886 -0.4022 -0.2546
32074SOL    HW196800   4.765   0.721   5.392  0.6152  2.6641 -0.7560
32074SOL    HW296801   4.699   0.736   5.257 -0.8705  0.6037 -0.3126
32075SOL     OW96802   2.801   3.090   7.818  0.9537 -0.4993  0.1611
32075SOL    HW196803   2.818   3.071   7.911  0.9148  0.0815  0.2966
32075SOL    HW296804   2.853   3.169   7.801  0.9430 -0.5959 -0.3040
32076SOL     OW96805   5.776   1.554   0.613  0.0659  0.1818 -0.0375
32076SOL    HW196806   5.686   1.573   0.639 -0.0990 -1.5778  0.8543
32076SOL    HW296807   5.814   1.639   0.594 -1.4561  1.0654  0.6640
32077SOL     OW96808   5.144   5.357   9.236 -0.1158 -0.0353  0.0900
32077SOL    HW196809   5.080   5.341   9.305 -0.4445  1.3621  0.1281
32077SOL    HW296810   5.096   5.405   9.169  1.0636  1.7586  0.4741
32078SOL     OW96811   2.712   6.644   6.946 -0.4000 -0.3096 -0.1570
32078SOL    HW196812   2.622   6.617   6.929 -0.7155 -0.1286  1.1393
32078SOL    HW296813   2.733   6.605   7.031  0.3779  0.5228  0.0481
32079SOL     OW96814   6.991   4.635   4.341  0.4720 -0.7441 -0.1331
32079SOL    HW196815   6.957   4.557   4.299  0.7791 -0.8879 -0.1176
32079SOL    HW296816   6.995   4.700   4.271  0.3970 -0.7975 -0.1877
32080SOL     OW96817   3.424   0.890   3.097 -0.4785 -0.3744 -0.1739
32080SOL    HW196818   3.421   0.807   3.144 -1.5244  1.1564  2.6955
32080SOL    HW296819   3.509   0.927   3.120 -0.4025 -0.2234 -0.6848
32081SOL     OW96820   1.433   9.713   0.618  0.6589 -0.2019  0.9152
32081SOL    HW196821   1.404   9.722   0.709 -1.1308  0.8394  0.2889
32081SOL    HW296822   1.464   9.623   0.612  0.1349 -0.5087  2.3707
32082SOL     OW96823   6.332   9.888   8.899  0.5297  0.0210  0.0025
32082SOL    HW196824   6.295   9.976   8.894  0.9749  0.2068 -0.0242
32082SOL    HW296825   6.269   9.839   8.952  1.1891  0.8299  1.6105
32083SOL     OW96826   8.880   6.067   9.520  0.2151  0.5597  0.0729
32083SOL    HW196827   8.957   6.088   9.467  0.3853 -1.0614 -0.3671
32083SOL    HW296828   8.809   6.116   9.479  0.5175  0.0232 -1.1311
32084SOL     OW96829   8.123   4.618   1.261  0.0376  1.1727 -0.5164
32084SOL    HW196830   8.048   4.581   1.216  0.2509  0.4795 -0.3148
32084SOL    HW296831   8.085   4.681   1.323 -0.8361 -2.0046  2.5278
32085SOL     OW96832   6.290   5.091   5.961  0.1750  0.2640  0.5001
32085SOL    HW196833   6.330   5.026   5.902 -0.4817 -0.4642  0.8326
32085SOL    HW296834   6.283   5.170   5.908  0.3811 -0.1305 -0.1323
32086SOL     OW96835   0.239   8.029   3.167 -0.8099 -0.7616 -0.6891
32086SOL    HW196836   0.261   8.096   3.231  1.3332 -1.3345 -0.7768
32086SOL    HW296837   0.143   8.032   3.162 -1.2007 -1.3319  3.2435
32087SOL     OW96838   4.494   9.557   3.910  0.1848 -0.0718  0.2476
32087SOL    HW196839   4.478   9.640   3.865  1.7872  0.7632  1.1245
32087SOL    HW296840   4.408   9.517   3.917 -0.5543  1.2645 -0.6726
32088SOL     OW96841   5.922   1.471   9.338  0.1624 -0.2254 -0.1681
32088SOL    HW196842   5.876   1.475   9.422 -2.9972  0.8319 -1.8224
32088SOL    HW296843   5.895   1.387   9.300 -1.4897  0.9096 -1.6515
32089SOL     OW96844   1.490   1.242   3.183 -0.6315 -0.5166 -0.2990
32089SOL    HW196845   1.394   1.238   3.185 -0.7004  0.8312 -0.0844
32089SOL    HW296846   1.518   1.164   3.230 -1.5976 -1.6052 -1.4734
32090SOL     OW96847   5.102   3.253   2.584 -0.2134 -0.1431 -0.2199
32090SOL    HW196848   5.139   3.186   2.526  2.3922  1.4605 -0.5597
32090SOL    HW296849   5.107   3.334   2.534 -3.4184  0.4057  0.1313
32091SOL     OW96850   5.951   0.184   9.912 -0.4596  0.3147 -0.1185
32091SOL    HW196851   5.984   0.145   9.830 -1.7636 -1.6614  0.2256
32091SOL    HW296852   6.010   0.256   9.929  0.9847 -0.3764 -1.8327
32092SOL     OW96853   7.575   6.737   1.018  0.6548 -0.3385 -0.6439
32092SOL    HW196854   7.616   6.800   1.078 -1.5410  0.3893  0.2086
32092SOL    HW296855   7.526   6.792   0.957 -1.7812 -1.1362  0.4705
32093SOL     OW96856   8.722   2.637   1.427  0.0407 -0.1254  0.3677
32093SOL    HW196857   8.716   2.679   1.513 -0.1988  1.4834 -0.3887
32093SOL    HW296858   8.814   2.610   1.420 -0.1580 -1.1166  1.4916
32094SOL     OW96859   9.738   1.141   3.448 -0.1764 -0.1476 -0.1129
32094SOL    HW196860   9.815   1.089   3.471 -0.7390 -0.3909  1.3589
32094SOL    HW296861   9.768   1.232   3.453  0.2743 -0.2708 -0.5717
32095SOL     OW96862   4.211   7.328   4.774  0.4224 -0.0690  0.0016
32095SOL    HW196863   4.212   7.236   4.800  0.8603 -0.7065 -2.0813
32095SOL    HW296864   4.119   7.355   4.783  0.2071 -0.8486  0.1817
32096SOL     OW96865   3.205   0.410   5.898 -0.6249 -0.5848  0.0148
32096SOL    HW196866   3.287   0.454   5.925 -0.7858 -0.0545 -0.3485
32096SOL    HW296867   3.215   0.397   5.804 -1.6084  0.9033 -0.3200
32097SOL     OW96868   0.065   4.551   5.199  0.0175  0.1732 -0.0763
32097SOL    HW196869   0.017   4.470   5.220  1.4872 -0.5498  0.6277
32097SOL    HW296870   0.077   4.548   5.104 -0.6406 -0.0174 -0.1587
32098SOL     OW96871   9.804   5.882   4.926  0.3386 -0.1787  0.2037
32098SOL    HW196872   9.894   5.893   4.955  0.4700 -0.5870 -0.0384
32098SOL    HW296873   9.796   5.939   4.850 -0.2458  1.5338  1.4782
32099SOL     OW96874   0.459   6.841   0.783  0.2111  0.4597  0.1367
32099SOL    HW196875   0.369   6.824   0.756  0.3373 -0.0274  0.0140
32099SOL    HW296876   0.451   6.880   0.870 -0.1759  1.5999 -0.3831
32100SOL     OW96877   1.852   5.046   0.337 -0.4612 -0.7522 -0.2942
32100SOL    HW196878   1.925   5.061   0.397 -0.4199  1.4601 -0.8302
32100SOL    HW296879   1.893   5.011   0.258  0.1684  1.1303 -0.8490
32101SOL     OW96880   7.182   9.176   0.663  0.0444 -0.3934 -0.3753
32101SOL    HW196881   7.273   9.206   0.655 -0.3937  0.7380 -1.4945
32101SOL    HW296882   7.160   9.143   0.576 -1.1064  0.8461 -0.5892
32102SOL     OW96883   0.605   0.708   6.200  0.3381 -0.3744  0.3568
32102SOL    HW196884   0.598   0.652   6.122 -0.5039 -0.8194  0.7460
32102SOL    HW296885   0.524   0.692   6.248  0.6344  0.2778  1.0797
32103SOL     OW96886   5.918   8.939   4.301 -0.0595  0.2055 -0.5005
32103SOL    HW196887   5.947   8.932   4.210 -0.9801  0.8494 -0.8675
32103SOL    HW296888   5.998   8.935   4.353  0.6393  1.5172 -1.4330
32104SOL     OW96889   7.762   5.827   7.708 -0.2336  0.3491 -0.1664
32104SOL    HW196890   7.765   5.882   7.786 -1.9977  0.8327 -0.3926
32104SOL    HW296891   7.848   5.836   7.668  0.4597  0.6353  1.3457
32105SOL     OW96892   2.669   7.717   5.882 -0.1431 -0.2515  0.3962
32105SOL    HW196893   2.626   7.683   5.804 -1.0585  1.9352 -0.1094
32105SOL    HW296894   2.709   7.640   5.922 -1.0394 -1.6927 -1.3309
32106SOL     OW96895   7.262   7.067   2.855 -0.1522 -0.2500  0.1492
32106SOL    HW196896   7.167   7.064   2.858 -0.3272 -0.7110 -2.8754
32106SOL    HW296897   7.284   7.157   2.880 -1.4200  0.0706  0.1682
32107SOL     OW96898   1.884   3.909   6.402 -0.0456 -1.0097  0.3354
32107SOL    HW196899   1.792   3.919   6.428 -0.4534 -2.1724 -0.5680
32107SOL    HW296900   1.906   3.993   6.361 -0.9247 -0.9408 -0.0255
32108SOL     OW96901   7.392   1.910   5.104  0.1696  0.3385 -0.1187
32108SOL    HW196902   7.353   1.860   5.032 -0.6986 -0.1804  0.6887
32108SOL    HW296903   7.481   1.927   5.075 -0.4259  0.9519 -1.7167
32109SOL     OW96904   2.929   7.813   4.811  0.4902  0.2304  0.3684
32109SOL    HW196905   2.896   7.783   4.726 -0.6115  1.6310  0.2520
32109SOL    HW296906   2.854   7.802   4.870  1.1900 -0.5585  1.1307
32110SOL     OW96907   5.179   0.964   8.707  0.3714 -0.1206 -0.1367
32110SOL    HW196908   5.154   1.034   8.646  1.5555  0.5670  0.1411
32110SOL    HW296909   5.118   0.893   8.687 -1.0947  1.0992 -0.1989
32111SOL     OW96910   6.834   5.931   6.941  0.6492 -0.2460  0.0604
32111SOL    HW196911   6.923   5.901   6.961  0.4881  0.0779  1.3781
32111SOL    HW296912   6.786   5.851   6.918  1.0526 -0.5469  0.2503
32112SOL     OW96913   0.176   8.615   8.949  0.3311  0.7259  0.0265
32112SOL    HW196914   0.210   8.602   9.038  0.3450 -0.3222 -0.1176
32112SOL    HW296915   0.255   8.620   8.894  0.2995  0.0758 -0.0839
32113SOL     OW96916   0.452   8.937   1.463  0.4928  0.1934  0.0859
32113SOL    HW196917   0.423   8.969   1.377 -0.5535  1.2665  0.8058
32113SOL    HW296918   0.457   8.842   1.452 -2.5604 -0.0314 -0.4036
32114SOL     OW96919   2.842   2.437   1.941 -0.2568 -0.0401 -0.9198
32114SOL    HW196920   2.894   2.510   1.906 -1.1962  0.0712 -2.1868
32114SOL    HW296921   2.772   2.425   1.876 -1.4179 -0.6161  0.3941
32115SOL     OW96922   0.922   9.390   8.059 -0.1116 -0.3113 -0.0394
32115SOL    HW196923   0.909   9.468   8.114  0.7172  0.5205 -0.9836
32115SOL    HW296924   1.004   9.352   8.091  0.0567 -0.1631 -0.2859
32116SOL     OW96925   9.272   2.531   5.192  0.1000 -0.0054 -0.1252
32116SOL    HW196926   9.235   2.478   5.121 -1.6375  1.8055 -0.6706
32116SOL    HW296927   9.234   2.493   5.272 -1.5186  0.6498 -0.5413
32117SOL     OW96928   3.784   4.392   6.045  0.1495  0.1578  0.1053
32117SOL    HW196929   3.711   4.384   5.983  0.9438 -1.8589 -0.6623
32117SOL    HW296930   3.826   4.306   6.043  0.5752  0.2145  3.0298
32118SOL     OW96931   7.816   4.463   8.275 -0.2259 -0.0110  0.1510
32118SOL    HW196932   7.847   4.528   8.212 -1.1085  0.6748  0.4021
32118SOL    HW296933   7.858   4.486   8.357  1.3958 -1.2628 -0.2734
32119SOL     OW96934   8.926   4.654   0.710  0.3725  0.0368  0.1724
32119SOL    HW196935   9.013   4.629   0.681  0.8920 -1.3954  2.6749
32119SOL    HW296936   8.925   4.634   0.804 -2.1595  1.4206  0.5380
32120SOL     OW96937   1.794   5.024   7.941 -0.8580 -0.0569 -0.3758
32120SOL    HW196938   1.706   5.054   7.965 -0.4067 -0.5158  2.1740
32120SOL    HW296939   1.779   4.963   7.869 -2.8931 -1.3810  1.0269
32121SOL     OW96940   1.305   5.303   8.209 -1.2026  0.4273  0.4947
32121SOL    HW196941   1.230   5.244   8.216 -0.6947 -0.1297  1.6213
32121SOL    HW296942   1.267   5.389   8.192 -2.1403  0.2534  1.5988
32122SOL     OW96943   2.046   3.869   6.922  0.4114  0.0864 -0.2733
32122SOL    HW196944   2.100   3.906   6.992  0.7842 -0.4633 -0.2668
32122SOL    HW296945   2.096   3.794   6.890  0.8515  1.0627 -1.9921
32123SOL     OW96946   0.950   7.625   5.528  0.1667  0.0506 -0.1416
32123SOL    HW196947   0.866   7.603   5.567  0.3889 -2.1804 -0.8148
32123SOL    HW296948   0.991   7.541   5.508  2.3008  1.0834 -0.4043
32124SOL     OW96949   7.692   4.402   4.142  0.6708  0.3936  0.0840
32124SOL    HW196950   7.682   4.494   4.117  2.5455  0.8979  0.9623
32124SOL    HW296951   7.745   4.364   4.072  3.0715  0.9852  1.4253
32125SOL     OW96952   0.904   9.899   1.748 -0.0661 -0.0172  0.3756
32125SOL    HW196953   0.812   9.926   1.751 -0.6787 -1.9178 -0.0195
32125SOL    HW296954   0.901   9.806   1.725  2.0141  0.2131 -1.1544
32126SOL     OW96955   9.604   1.076   4.206  0.2437 -0.6118  1.1108
32126SOL    HW196956   9.612   1.153   4.263  0.4594 -0.4466  0.8588
32126SOL    HW296957   9.523   1.035   4.234 -1.0503  0.9163 -0.2105
32127SOL     OW96958   2.745   2.831   0.005  0.2167 -0.1115 -0.4678
32127SOL    HW196959   2.680   2.819   0.074  0.5770 -1.7921 -0.3919
32127SOL    HW296960   2.750   2.747  -0.040 -1.0552  1.2642 -3.5312
32128SOL     OW96961   4.125   1.894   1.468  0.0444 -0.8834  0.2042
32128SOL    HW196962   4.083   1.889   1.382 -0.6560 -2.6322  0.6024
32128SOL    HW296963   4.054   1.921   1.527 -0.0153 -1.7473  0.5430
32129SOL     OW96964   5.206   1.604   2.279 -0.8429  0.0327  0.2192
32129SOL    HW196965   5.172   1.592   2.367  0.2454 -1.5325  0.4693
32129SOL    HW296966   5.128   1.616   2.224 -1.5710  0.1625  1.2618
32130SOL     OW96967   4.009   9.233   5.927 -0.1052 -0.0306 -0.1423
32130SOL    HW196968   4.024   9.282   5.846  3.0941 -1.8293 -0.8081
32130SOL    HW296969   4.028   9.296   5.997  0.4982  0.6282 -0.8854
32131SOL     OW96970   9.790   9.777   5.889 -0.7049 -0.2208 -0.4400
32131SOL    HW196971   9.733   9.744   5.958 -2.0316  1.4377 -0.6706
32131SOL    HW296972   9.760   9.734   5.809 -1.3512  0.2837 -0.4797
32132SOL     OW96973   6.880   9.945   6.379  0.4990 -0.8567 -0.4070
32132SOL    HW196974   6.964   9.956   6.334  0.6032 -1.2991 -0.3257
32132SOL    HW296975   6.895   9.978   6.467  0.1698  0.4241 -0.8160
32133SOL     OW96976   2.106   8.898   3.756  0.3055  0.1404  0.0177
32133SOL    HW196977   2.063   8.929   3.835  0.7660  0.7921  0.0228
32133SOL    HW296978   2.076   8.808   3.745 -0.9211  0.5178  0.1155
32134SOL     OW96979   2.112   8.155   8.243  0.2414 -0.0350  0.5905
32134SOL    HW196980   2.056   8.146   8.166 -0.7098  2.8796  0.8036
32134SOL    HW296981   2.194   8.190   8.209 -0.2640  1.4893  0.8517
32135SOL     OW96982   3.932   8.289   7.763  0.1310 -0.2163  0.1095
32135SOL    HW196983   3.868   8.357   7.787  0.8369  0.2284  0.8018
32135SOL    HW296984   3.975   8.323   7.685  1.0255  0.5278  0.9008
32136SOL     OW96985   6.109   9.623   2.050 -0.1484  0.0358  0.2595
32136SOL    HW196986   6.087   9.582   1.967 -1.1678 -0.8152  0.9119
32136SOL    HW296987   6.029   9.670   2.075  0.2788  0.6145  0.5631
32137SOL     OW96988   8.864   8.169   6.329  0.4609 -0.1152 -0.1622
32137SOL    HW196989   8.897   8.224   6.400 -0.8146 -0.7590  0.9886
32137SOL    HW296990   8.769   8.167   6.343  0.3549 -1.5880 -0.9180
32138SOL     OW96991   2.545   7.539   3.970 -0.3381 -0.0067 -0.0353
32138SOL    HW196992   2.484   7.610   3.990  0.9409  0.9434  0.6627
32138SOL    HW296993   2.567   7.501   4.055 -1.1347 -1.3790 -0.4166
32139SOL     OW96994   0.051   8.899   3.008  0.2162  0.0917  0.3760
32139SOL    HW196995   0.036   8.993   2.998  0.6753  0.0914 -0.4150
32139SOL    HW296996   0.122   8.880   2.946 -0.4599 -0.9326 -0.1074
32140SOL     OW96997   4.599   4.787   1.581  0.1071 -0.1816 -0.3292
32140SOL    HW196998   4.513   4.807   1.544 -0.7373 -1.0687  1.1041
32140SOL    HW296999   4.616   4.697   1.554  0.3168 -0.2148 -0.0816
32141SOL     OW97000   5.490   5.047   1.969  0.2334  0.2788 -0.0435
32141SOL    HW197001   5.414   4.996   1.997  0.3242  0.4951  0.6142
32141SOL    HW297002   5.512   5.101   2.045  0.5972  0.7517 -0.4798
32142SOL     OW97003   1.985   0.273   3.924  0.2010 -0.0963 -0.3882
32142SOL    HW197004   1.929   0.350   3.911  0.1051 -0.1005 -0.0158
32142SOL    HW297005   2.045   0.299   3.994  1.2747  0.2354 -1.3922
32143SOL     OW97006   4.450   0.836   6.599 -0.1521 -0.1850  0.4504
32143SOL    HW197007   4.443   0.749   6.560 -0.7392 -0.3533  0.9141
32143SOL    HW297008   4.462   0.896   6.525 -2.7828 -0.2992 -0.1627
32144SOL     OW97009   5.402   3.599   1.926  0.4604 -0.1212 -0.6453
32144SOL    HW197010   5.492   3.568   1.919  0.3319 -0.6510 -0.0742
32144SOL    HW297011   5.374   3.572   2.013 -0.4110 -0.3856 -0.9955
32145SOL     OW97012   5.027   7.879   0.805  0.1524  0.2313  0.0226
32145SOL    HW197013   4.944   7.837   0.784  0.3332  0.5002 -1.3075
32145SOL    HW297014   5.016   7.911   0.895 -1.1643  0.2301 -0.1211
32146SOL     OW97015   8.959   6.720   5.733 -0.2695  0.3051 -0.4812
32146SOL    HW197016   8.917   6.635   5.746 -0.1474  0.2526 -0.4379
32146SOL    HW297017   9.053   6.702   5.737 -0.2345  0.6729  1.1123
32147SOL     OW97018   2.024   7.719   4.746  0.0874 -0.5030  0.1725
32147SOL    HW197019   1.987   7.664   4.676  1.6055 -0.4277 -0.7171
32147SOL    HW297020   2.115   7.733   4.720  0.6686 -0.4192  2.1511
32148SOL     OW97021   1.766   3.046   9.728 -0.1194 -0.4965  0.0938
32148SOL    HW197022   1.689   3.092   9.696  1.1021  0.8132 -1.0670
32148SOL    HW297023   1.775   3.074   9.819 -0.0684  0.6431 -0.2574
32149SOL     OW97024   7.911   6.987   7.305 -0.1685  0.2182 -0.1404
32149SOL    HW197025   7.873   6.977   7.392 -2.7230  2.9443 -0.7772
32149SOL    HW297026   7.889   6.905   7.260  0.6291 -0.9570  1.4922
32150SOL     OW97027   4.923   7.698   0.386 -0.7926 -0.0522  0.4347
32150SOL    HW197028   4.985   7.770   0.389 -0.9389  0.0600  0.7907
32150SOL    HW297029   4.841   7.735   0.420 -0.7805 -0.4703  0.9344
32151SOL     OW97030   8.327   8.010   3.411  0.0721  0.2579  0.2986
32151SOL    HW197031   8.317   8.063   3.489 -0.4799  2.2234 -1.0406
32151SOL    HW297032   8.419   8.017   3.388  0.0361  0.4867  0.2251
32152SOL     OW97033   4.818   0.979   9.612 -0.0695  0.5280  0.2537
32152SOL    HW197034   4.880   0.913   9.580 -0.4549 -0.2672  1.0879
32152SOL    HW297035   4.872   1.044   9.655  0.2621  0.3614  0.0969
32153SOL     OW97036   6.237   5.572   0.058 -0.2919 -0.0563 -0.2906
32153SOL    HW197037   6.274   5.498   0.106 -0.9833 -2.1317 -2.7611
32153SOL    HW297038   6.162   5.600   0.111  2.9942  2.7407  3.5942
32154SOL     OW97039   8.460   5.571   4.767 -0.0911 -0.1516 -0.1077
32154SOL    HW197040   8.428   5.595   4.854  0.9306 -1.4236  0.6463
32154SOL    HW297041   8.523   5.639   4.744 -0.0243 -0.0598  0.3452
32155SOL     OW97042   3.774   7.369   2.317  0.0055 -0.1897  0.0110
32155SOL    HW197043   3.688   7.410   2.312  1.3589  2.9419  0.2217
32155SOL    HW297044   3.790   7.358   2.411  0.0764 -0.2542 -0.0083
32156SOL     OW97045   2.354   1.720   1.761 -0.3744 -1.0749 -0.3860
32156SOL    HW197046   2.295   1.782   1.803 -1.0993 -2.3873  0.6003
32156SOL    HW297047   2.417   1.697   1.829 -0.4563 -1.8486 -0.5608
32157SOL     OW97048   4.931   7.977   4.404 -0.4310 -0.1934 -0.0482
32157SOL    HW197049   4.951   8.065   4.371  0.7907 -0.3159  0.3327
32157SOL    HW297050   5.014   7.944   4.437 -1.0105 -1.2542  0.3992
32158SOL     OW97051   9.831   2.108   6.592  0.2774  0.6990  0.3261
32158SOL    HW197052   9.884   2.173   6.546  1.6878 -1.1977 -0.8791
32158SOL    HW297053   9.852   2.121   6.685  0.4010  2.0111  0.1392
32159SOL     OW97054   2.725   4.058   6.866 -0.0073 -0.0991 -0.0622
32159SOL    HW197055   2.645   4.062   6.918 -0.5736  0.4791 -0.9633
32159SOL    HW297056   2.784   4.003   6.918 -0.8483 -0.2304  0.7849
32160SOL     OW97057   3.221   7.958   5.747  0.1606 -0.2299 -0.5865
32160SOL    HW197058   3.200   7.866   5.765  0.0639 -0.1880 -0.4865
32160SOL    HW297059   3.264   7.956   5.661  2.0354 -0.6238  0.3265
32161SOL     OW97060   4.068   4.915   1.908  0.0828 -0.3114  0.0179
32161SOL    HW197061   4.143   4.861   1.884  0.3870  0.6117 -1.2619
32161SOL    HW297062   4.001   4.853   1.934  1.5094 -1.1286  1.9385
32162SOL     OW97063   8.694   9.375   0.410 -0.9775  0.2463  0.1562
32162SOL    HW197064   8.748   9.360   0.487 -0.3843 -2.1624 -0.6338
32162SOL    HW297065   8.612   9.411   0.444  0.4875  2.5162  1.5214
32163SOL     OW97066   5.161   5.910   1.655  0.5898  0.5045  0.3665
32163SOL    HW197067   5.146   5.970   1.728  0.1070 -1.1163  1.6704
32163SOL    HW297068   5.244   5.939   1.617  1.0455  1.1750  1.7908
32164SOL     OW97069   8.663   7.212   4.003  0.4062  0.5131  0.1441
32164SOL    HW197070   8.714   7.293   4.001  2.0775 -0.4292  1.8159
32164SOL    HW297071   8.726   7.145   4.030 -1.5926 -0.8117  1.7785
32165SOL     OW97072   6.150   6.072   5.141 -0.4354 -0.6877  0.3971
32165SOL    HW197073   6.102   6.093   5.061 -1.9072  1.3650  1.7273
32165SOL    HW297074   6.083   6.039   5.201  0.1253  0.4088  1.6734
32166SOL     OW97075   3.327   7.109   4.181  0.1569 -0.1076  0.4669
32166SOL    HW197076   3.270   7.183   4.201  0.0486  0.0538 -0.4273
32166SOL    HW297077   3.411   7.149   4.159 -0.2626 -0.1644 -1.3129
32167SOL     OW97078   1.339   2.599   0.831 -0.4449 -0.3473 -0.3411
32167SOL    HW197079   1.314   2.691   0.829 -2.4832 -0.8273 -0.0538
32167SOL    HW297080   1.434   2.599   0.822  0.0466  1.9561  2.9895
32168SOL     OW97081   5.222   2.655   5.969  0.2405  0.0848 -0.4040
32168SOL    HW197082   5.303   2.675   6.017  1.1235  1.7740 -2.3966
32168SOL    HW297083   5.250   2.654   5.877 -1.2853 -3.3001 -0.9850
32169SOL     OW97084   7.347   7.923   3.443 -0.0287 -0.8863 -0.1568
32169SOL    HW197085   7.273   7.979   3.466  0.7330  0.4777 -0.8621
32169SOL    HW297086   7.349   7.855   3.510 -0.4652  0.4484  1.2451
32170SOL     OW97087   4.174   0.194   0.490 -0.0871 -0.4271  0.1097
32170SOL    HW197088   4.251   0.235   0.529  0.3359 -0.6921 -0.4340
32170SOL    HW297089   4.119   0.170   0.564  0.3939 -0.3166  0.5060
32171SOL     OW97090   0.275   9.580   9.419 -0.0607  0.7704  0.2209
32171SOL    HW197091   0.277   9.670   9.450 -1.5550  1.2676 -1.0238
32171SOL    HW297092   0.262   9.587   9.325 -0.4393 -0.7552  0.1305
32172SOL     OW97093   8.663   4.991   5.890  0.6549 -0.2517 -0.4884
32172SOL    HW197094   8.626   4.904   5.877  0.8814 -0.7224  1.6599
32172SOL    HW297095   8.742   4.976   5.942  1.9954  1.0569 -2.0205
32173SOL     OW97096   8.261   1.639   8.457  0.0425  0.0233  0.4609
32173SOL    HW197097   8.320   1.657   8.384  0.5491 -0.5177  0.7327
32173SOL    HW297098   8.189   1.702   8.445 -0.4639 -0.8007 -1.1516
32174SOL     OW97099   7.842   6.461   9.648 -0.4619 -0.5278  0.5942
32174SOL    HW197100   7.866   6.504   9.566 -1.0210 -0.2425  0.5779
32174SOL    HW297101   7.750   6.483   9.661 -0.6435 -1.3666  0.8034
32175SOL     OW97102   2.944   8.376   0.264 -0.3729 -0.8833 -0.5377
32175SOL    HW197103   2.900   8.430   0.330 -0.1131 -0.1819 -0.9260
32175SOL    HW297104   2.881   8.372   0.191 -0.2567 -0.8177 -0.6424
32176SOL     OW97105   3.653   0.770   8.369 -0.9075  0.2958 -0.2423
32176SOL    HW197106   3.698   0.688   8.386 -1.1653  0.3364  0.6718
32176SOL    HW297107   3.714   0.838   8.399  0.0834  0.5690 -2.6293
32177SOL     OW97108   5.261   0.623   3.831 -0.3017  0.3731 -0.4630
32177SOL    HW197109   5.304   0.708   3.845 -0.7846  0.6521 -0.6452
32177SOL    HW297110   5.209   0.636   3.752  0.5756 -0.4697 -1.2037
32178SOL     OW97111   4.676   4.321   6.338  1.1639  0.6700  0.4426
32178SOL    HW197112   4.627   4.388   6.290  2.5857  1.7485  0.4447
32178SOL    HW297113   4.696   4.255   6.272  0.1346  0.4390  0.3403
32179SOL     OW97114   7.962   1.380   4.980  0.4999 -0.0751 -0.1659
32179SOL    HW197115   7.993   1.443   4.915  1.0962 -1.7560 -1.6047
32179SOL    HW297116   7.889   1.424   5.023 -0.7569  0.6961 -2.8427
32180SOL     OW97117   5.652   7.320   5.219  0.6961  0.0128  0.8197
32180SOL    HW197118   5.639   7.355   5.307  0.3837 -0.6517  1.0458
32180SOL    HW297119   5.677   7.229   5.233  0.9292 -0.0180  0.2278
32181SOL     OW97120   0.635   2.585   6.190 -0.0946  0.3233 -0.1111
32181SOL    HW197121   0.693   2.660   6.205  0.2364  0.0197  0.1557
32181SOL    HW297122   0.655   2.557   6.101  0.3607  0.0582  0.0711
32182SOL     OW97123   5.706   0.601   0.921  0.1768 -0.5409  0.0128
32182SOL    HW197124   5.778   0.622   0.861  1.0653 -1.1041  0.8487
32182SOL    HW297125   5.747   0.549   0.989 -0.2469  2.1323  2.4897
32183SOL     OW97126   7.587   9.855   1.959  0.2663 -0.4014 -0.0913
32183SOL    HW197127   7.495   9.832   1.971  0.1648 -0.6074 -1.2242
32183SOL    HW297128   7.585   9.946   1.931  0.3789 -0.5172 -0.4817
32184SOL     OW97129   6.301   6.738   4.049  0.2195  0.0497  0.5250
32184SOL    HW197130   6.244   6.789   4.106  0.1256  0.3341  0.1818
32184SOL    HW297131   6.357   6.688   4.108 -0.5550 -0.4265  0.8720
32185SOL     OW97132   9.306   9.005   0.411 -0.4793 -0.3640 -0.5708
32185SOL    HW197133   9.312   8.972   0.501 -2.5481 -0.2512 -0.3433
32185SOL    HW297134   9.230   9.063   0.412 -2.1289 -2.2785 -2.9374
32186SOL     OW97135   9.914   3.331   1.434  0.0270  0.0640 -0.2887
32186SOL    HW197136   9.914   3.417   1.394 -2.4626 -0.4737 -1.6272
32186SOL    HW297137   9.822   3.313   1.454  0.4641 -2.3040 -0.1002
32187SOL     OW97138   2.914   9.210   7.845  0.7258  0.0229 -0.0111
32187SOL    HW197139   2.987   9.147   7.851  0.7674 -0.5164 -3.7749
32187SOL    HW297140   2.856   9.172   7.779 -0.6208  2.6781 -0.4450
32188SOL     OW97141   9.172   0.395   1.646 -0.2292  0.4260  0.7760
32188SOL    HW197142   9.133   0.449   1.714  0.8590  1.4560  0.6204
32188SOL    HW297143   9.111   0.400   1.572 -1.1073 -0.1950  1.4348
32189SOL     OW97144   3.805   0.444   2.675  0.3051 -0.1444  0.8036
32189SOL    HW197145   3.825   0.417   2.765 -0.2740  1.1627  1.3593
32189SOL    HW297146   3.712   0.467   2.678  0.2864 -0.0813 -0.1283
32190SOL     OW97147   9.377   4.771   9.822  0.4288 -0.1859  0.0876
32190SOL    HW197148   9.451   4.715   9.842 -0.1506 -0.8983  0.2960
32190SOL    HW297149   9.394   4.804   9.734  1.5131  0.5393  0.5498
32191SOL     OW97150   2.113   4.646   1.081 -0.6702  0.4183 -0.0653
32191SOL    HW197151   2.196   4.600   1.095 -1.3129 -0.8820 -0.4433
32191SOL    HW297152   2.064   4.590   1.021 -0.0878  3.2604 -3.5273
32192SOL     OW97153   6.514   1.916   8.045  0.1694  0.4082 -0.7254
32192SOL    HW197154   6.490   1.874   8.128 -0.4233  0.1826 -1.0004
32192SOL    HW297155   6.563   1.994   8.071  0.1857  0.2208 -0.1709
32193SOL     OW97156   9.067   5.631   6.974 -0.1002  0.1236 -0.4507
32193SOL    HW197157   9.071   5.650   7.068 -0.6123 -1.7649 -0.0021
32193SOL    HW297158   9.138   5.568   6.960 -0.0046  0.4242 -1.3523
32194SOL     OW97159   6.811   1.965   9.585  0.1488 -0.5382 -0.5126
32194SOL    HW197160   6.755   2.031   9.625 -1.6027 -0.8368 -2.3023
32194SOL    HW297161   6.899   1.999   9.595 -0.4177  0.5173  1.4040
32195SOL     OW97162   8.358   5.934   5.442 -0.2979 -0.2914  0.2209
32195SOL    HW197163   8.450   5.933   5.467  0.3457  1.6487 -1.7510
32195SOL    HW297164   8.321   6.012   5.484 -0.5616 -0.0352 -0.4707
32196SOL     OW97165   5.923   7.644   5.589 -0.4652  0.7449  0.3740
32196SOL    HW197166   5.929   7.737   5.610 -0.9253  0.8002  0.2778
32196SOL    HW297167   6.006   7.623   5.546 -1.0555  1.5488 -1.2640
32197SOL     OW97168   1.561   3.720   8.903 -0.6661 -0.5060  0.2895
32197SOL    HW197169   1.562   3.781   8.829 -1.1849 -0.5958  0.2094
32197SOL    HW297170   1.638   3.744   8.955 -0.3127 -0.4181 -0.2586
32198SOL     OW97171   8.822   0.405   2.170  0.0924 -0.3450  0.0021
32198SOL    HW197172   8.765   0.355   2.228 -0.8082 -0.3776 -0.8795
32198SOL    HW297173   8.786   0.391   2.082  1.2576 -0.0821 -0.5408
32199SOL     OW97174   3.735   3.397   0.429  0.3889 -0.0827  0.3920
32199SOL    HW197175   3.671   3.402   0.500  0.5501  2.2810  0.4380
32199SOL    HW297176   3.816   3.370   0.472  0.0104 -0.7269  0.7294
32200SOL     OW97177   7.437   4.186   9.877  0.3574 -0.3364  0.0774
32200SOL    HW197178   7.413   4.278   9.863  0.0437 -0.2289  1.1883
32200SOL    HW297179   7.413   4.169   9.968 -2.0667 -2.2961 -0.8249
32201SOL     OW97180   6.252   9.695   5.115 -0.0143  0.3338  0.4778
32201SOL    HW197181   6.310   9.767   5.138 -2.0209  2.2689 -0.2688
32201SOL    HW297182   6.204   9.676   5.196  1.7393 -1.4939  1.1918
32202SOL     OW97183   8.288   7.123   9.647 -0.1164  0.2102  0.3959
32202SOL    HW197184   8.307   7.217   9.652  0.8452 -0.0499  2.3386
32202SOL    HW297185   8.364   7.085   9.604  0.1820  0.1484  0.9695
32203SOL     OW97186   4.815   8.679   8.615  0.1501 -0.2674 -0.5734
32203SOL    HW197187   4.880   8.745   8.639  0.8898 -1.3270  0.4552
32203SOL    HW297188   4.860   8.621   8.554 -0.4146  0.0220 -1.2717
32204SOL     OW97189   0.181   6.189   7.379  0.3628 -0.5092 -0.2821
32204SOL    HW197190   0.136   6.223   7.301  1.4816 -1.1607 -1.2585
32204SOL    HW297191   0.258   6.143   7.343 -0.3368 -2.8814  1.0326
32205SOL     OW97192   4.694   8.959   4.238 -0.4234 -0.2585 -0.5334
32205SOL    HW197193   4.704   8.864   4.249  0.0434 -0.2885 -1.1865
32205SOL    HW297194   4.626   8.969   4.172 -1.6735 -0.1031  0.7300
32206SOL     OW97195   4.225   1.823   2.797 -0.0572 -0.5664 -0.2373
32206SOL    HW197196   4.153   1.762   2.808  0.9610 -2.3312 -2.5699
32206SOL    HW297197   4.261   1.804   2.711  2.3910  1.1335  0.2785
32207SOL     OW97198   6.602   8.930   1.838  0.3916 -0.6173 -0.7285
32207SOL    HW197199   6.676   8.898   1.890  0.2977  1.5755  0.9061
32207SOL    HW297200   6.530   8.935   1.900  0.2083  1.8816 -1.0547
32208SOL     OW97201   8.115   5.268   8.218  0.1160  0.5524 -0.4577
32208SOL    HW197202   8.142   5.359   8.229  0.3167  0.4313  0.0796
32208SOL    HW297203   8.074   5.265   8.131  0.6394  1.0217 -0.7223
32209SOL     OW97204   0.067   4.116   7.008  0.1843  0.4068  0.4810
32209SOL    HW197205   0.060   4.085   6.918  3.4655 -1.1547  0.6480
32209SOL    HW297206   0.027   4.047   7.060 -1.3982  1.1504  0.3135
32210SOL     OW97207   2.263   0.004   1.874 -0.1405  0.9164 -0.1219
32210SOL    HW197208   2.328   0.040   1.933  1.3291 -0.3250 -0.9015
32210SOL    HW297209   2.303   0.010   1.787 -0.3842 -1.2360 -0.4428
32211SOL     OW97210   6.654   1.880   2.393 -0.0535 -0.2496 -0.1798
32211SOL    HW197211   6.624   1.940   2.460 -1.5874 -0.4108 -0.6747
32211SOL    HW297212   6.721   1.929   2.344  0.6513  0.0687  1.0571
32212SOL     OW97213   3.763   4.964   5.631 -0.1015  0.2269  0.2689
32212SOL    HW197214   3.845   5.013   5.634 -0.1816  0.5140 -1.3154
32212SOL    HW297215   3.768   4.904   5.705  1.4210  0.4137  0.3502
32213SOL     OW97216   0.254   7.891   5.303 -0.5393  0.0969 -0.5301
32213SOL    HW197217   0.314   7.825   5.269  0.2793 -0.3814  1.6349
32213SOL    HW297218   0.175   7.881   5.251  0.5459 -0.6571 -2.1157
32214SOL     OW97219   3.833   9.220   7.602  1.0084  0.2496  0.2563
32214SOL    HW197220   3.868   9.308   7.618  0.6660  0.7856 -1.7334
32214SOL    HW297221   3.790   9.196   7.684  0.1641  2.3891  0.5065
32215SOL     OW97222   2.939   5.890   1.659 -0.1962 -0.0865 -0.4046
32215SOL    HW197223   2.900   5.803   1.669 -0.5953 -0.4437 -3.8145
32215SOL    HW297224   2.867   5.951   1.676 -0.4988 -0.5093 -0.1724
32216SOL     OW97225   8.563   7.210   9.122  0.0281  0.6614 -0.4532
32216SOL    HW197226   8.598   7.275   9.183 -0.7075 -0.7533  1.5936
32216SOL    HW297227   8.641   7.172   9.081  0.6288  0.8662  0.4587
32217SOL     OW97228   1.807   2.478   0.512  0.4061  0.1277  0.3907
32217SOL    HW197229   1.882   2.459   0.568  0.0305  0.6529  1.0877
32217SOL    HW297230   1.833   2.554   0.461 -0.8218  2.5910  3.1002
32218SOL     OW97231   3.723   4.292   7.140 -0.4355 -0.1095 -0.1947
32218SOL    HW197232   3.685   4.338   7.066 -0.6651  0.2115  0.1157
32218SOL    HW297233   3.818   4.299   7.127 -0.4660  0.5364 -0.1022
32219SOL     OW97234   6.460   1.425   2.808 -0.4265  0.5927 -0.0961
32219SOL    HW197235   6.388   1.478   2.843  0.3699  0.7737  1.3316
32219SOL    HW297236   6.476   1.358   2.874  1.4610  1.2561  0.1890
32220SOL     OW97237   6.127   1.010   7.648 -0.0947  0.4244  0.5971
32220SOL    HW197238   6.192   1.070   7.686 -0.2357  0.8483  0.1788
32220SOL    HW297239   6.047   1.061   7.644 -0.4148 -0.0451  0.9524
32221SOL     OW97240   3.857   6.990   0.451 -0.6330 -0.0684 -0.0171
32221SOL    HW197241   3.861   6.896   0.465 -0.1789  0.0627  0.8636
32221SOL    HW297242   3.942   7.012   0.412 -0.7232 -0.0191 -0.1852
32222SOL     OW97243   7.847   6.907   5.941 -0.2570 -0.5078  0.1062
32222SOL    HW197244   7.804   6.980   5.896 -1.9932 -0.6586  1.4513
32222SOL    HW297245   7.920   6.884   5.883 -1.1802  0.6289 -1.5981
32223SOL     OW97246   7.166   7.877   3.031  0.0232  0.0155  0.1197
32223SOL    HW197247   7.206   7.948   2.982 -0.8955  0.9358  0.6533
32223SOL    HW297248   7.074   7.901   3.037  0.0501 -0.1973  2.0202
32224SOL     OW97249   6.264   9.844   1.637  0.8583 -0.2577  0.3198
32224SOL    HW197250   6.261   9.748   1.631 -2.7571 -0.2196 -0.6148
32224SOL    HW297251   6.282   9.873   1.548  2.5095  0.0272  0.6994
32225SOL     OW97252   6.868   7.016   7.048  0.0757 -0.1709 -0.2402
32225SOL    HW197253   6.899   7.023   7.138  0.9408 -3.2704 -0.1972
32225SOL    HW297254   6.946   7.032   6.995 -0.0163 -0.2261 -0.3926
32226SOL     OW97255   8.400   4.161   6.769 -0.5525  0.0385  0.2184
32226SOL    HW197256   8.382   4.084   6.716  2.2645 -0.4695 -0.1627
32226SOL    HW297257   8.445   4.222   6.710  1.7655 -0.1455  1.6445
32227SOL     OW97258   6.291   2.543   7.319 -0.1940  0.2140 -0.1117
32227SOL    HW197259   6.235   2.523   7.394 -0.9074  0.4562 -0.5704
32227SOL    HW297260   6.291   2.464   7.266  0.1384  0.1170  0.0248
32228SOL     OW97261   6.740   6.301   4.791 -0.4352 -0.0460 -0.5163
32228SOL    HW197262   6.792   6.279   4.868 -0.8143  1.0158  0.0561
32228SOL    HW297263   6.789   6.371   4.748  0.4999 -1.5561 -2.0439
32229SOL     OW97264   4.495   3.072   2.562  0.4730 -0.1532  0.3561
32229SOL    HW197265   4.577   3.054   2.516 -0.3562 -0.8165 -0.9318
32229SOL    HW297266   4.496   3.012   2.636  1.1822 -0.1025  0.3996
32230SOL     OW97267   2.799   1.332   1.369  0.9124 -0.1073 -0.0165
32230SOL    HW197268   2.802   1.386   1.290 -0.2957 -0.9510 -0.6767
32230SOL    HW297269   2.830   1.389   1.439 -0.0316  1.3556 -0.7490
32231SOL     OW97270   4.898   2.954   1.630  0.2729 -0.3906  0.0069
32231SOL    HW197271   4.807   2.979   1.612  0.4083  1.1154  1.1737
32231SOL    HW297272   4.907   2.962   1.725  1.3962 -1.4145  0.0151
32232SOL     OW97273   7.247   1.972   0.212 -0.3361 -0.4853  0.3802
32232SOL    HW197274   7.194   1.952   0.289  1.0997 -1.2817  1.1988
32232SOL    HW297275   7.326   1.918   0.222  1.8854  2.5188  0.5879
32233SOL     OW97276   9.427   7.637   5.187 -0.1454 -0.3326  0.2961
32233SOL    HW197277   9.345   7.684   5.200 -0.4509 -1.2041  1.7116
32233SOL    HW297278   9.401   7.551   5.154  0.0122 -1.2967  2.5263
32234SOL     OW97279   2.287   3.306   3.808 -0.6491 -0.0269 -0.3845
32234SOL    HW197280   2.337   3.225   3.796  1.0819  1.0902 -1.2335
32234SOL    HW297281   2.297   3.326   3.901 -1.1423 -0.8031 -0.1551
32235SOL     OW97282   0.872   6.011   0.886 -0.2825 -0.7773 -0.4783
32235SOL    HW197283   0.844   6.091   0.843  0.6011 -0.8553 -1.2343
32235SOL    HW297284   0.835   6.016   0.974 -0.4012  0.3540 -0.5888
32236SOL     OW97285   0.469   6.971   8.102  0.3869 -0.2265  0.1017
32236SOL    HW197286   0.551   6.933   8.068  0.6338  0.9373 -0.6682
32236SOL    HW297287   0.466   7.059   8.063 -1.4554 -0.4079 -0.2518
32237SOL     OW97288   3.518   2.147   7.224  0.2595  0.2250  0.5376
32237SOL    HW197289   3.596   2.109   7.183 -0.7631  0.1656 -1.4859
32237SOL    HW297290   3.534   2.242   7.223  0.0629  0.2580 -0.4595
32238SOL     OW97291   0.284   3.834   8.910  0.0064 -0.3912 -0.1171
32238SOL    HW197292   0.231   3.781   8.969 -0.6655  0.8907  0.4724
32238SOL    HW297293   0.369   3.790   8.908 -0.4922 -1.4115  0.4357
32239SOL     OW97294   5.552   0.696   9.056  0.0701 -0.0767  0.2287
32239SOL    HW197295   5.500   0.758   9.006  1.8585 -0.8984 -2.9269
32239SOL    HW297296   5.636   0.692   9.009  1.2180 -2.3506  2.2668
32240SOL     OW97297   7.872   7.456   9.830  0.2721  0.0375 -0.1339
32240SOL    HW197298   7.876   7.551   9.839  1.8626 -0.0822  0.6887
32240SOL    HW297299   7.829   7.442   9.745  1.0143  1.5147 -0.7859
32241SOL     OW97300   3.807   1.543   8.195 -0.1066  0.1780 -0.0894
32241SOL    HW197301   3.741   1.473   8.195 -0.9639  0.9353 -1.3886
32241SOL    HW297302   3.758   1.621   8.223  0.1596  0.8012 -1.3026
32242SOL     OW97303   1.953   5.541   5.299  0.1009  0.2307 -0.3193
32242SOL    HW197304   1.983   5.495   5.220  0.9368 -1.1903  0.7723
32242SOL    HW297305   2.031   5.549   5.353 -0.7076 -0.0342  0.9324
32243SOL     OW97306   6.158   9.783   3.637  0.0994  0.1723  0.4161
32243SOL    HW197307   6.163   9.826   3.552 -4.2143 -0.0603 -0.2037
32243SOL    HW297308   6.112   9.845   3.694 -0.7550 -1.2151  1.3207
32244SOL     OW97309   1.038   7.708   2.124  0.0517 -0.1767  0.3057
32244SOL    HW197310   1.068   7.790   2.084  0.7372 -1.5684 -2.2684
32244SOL    HW297311   1.012   7.733   2.213  0.5139  2.7533 -0.2646
32245SOL     OW97312   5.122   0.345   1.094 -0.1808 -0.4253  0.1139
32245SOL    HW197313   5.184   0.413   1.070 -1.1480  1.0217  1.4792
32245SOL    HW297314   5.112   0.292   1.015  1.8392  0.0075 -0.4844
32246SOL     OW97315   4.769   0.081   2.380 -0.0679  1.1033 -0.3976
32246SOL    HW197316   4.697   0.039   2.333 -1.1156  1.4251  0.8787
32246SOL    HW297317   4.728   0.151   2.430  0.3488 -1.3001  3.7311
32247SOL     OW97318   5.324   9.374   7.961 -0.0991  0.5286 -0.1337
32247SOL    HW197319   5.384   9.300   7.948 -0.3922  0.4854 -1.3063
32247SOL    HW297320   5.260   9.341   8.024  1.7533  0.9848  2.1269
32248SOL     OW97321   8.581   7.591   9.142 -0.3656 -0.0454 -0.5976
32248SOL    HW197322   8.670   7.557   9.130 -0.1482  0.6297 -0.9063
32248SOL    HW297323   8.537   7.524   9.194  0.4450 -0.1927 -0.0914
32249SOL     OW97324   6.534   8.054   4.725  0.0785  0.5152  0.1747
32249SOL    HW197325   6.501   8.125   4.670  0.1038  0.1635 -0.3071
32249SOL    HW297326   6.551   8.095   4.810 -2.3206  0.5805  0.7125
32250SOL     OW97327   0.413   2.059   8.887  0.1232  0.6264  0.4737
32250SOL    HW197328   0.434   2.016   8.970  0.3296 -0.0546  0.0714
32250SOL    HW297329   0.328   2.024   8.863  1.0697 -0.9512 -0.7492
32251SOL     OW97330   1.463   8.035   1.484  0.5163  0.3515 -0.2306
32251SOL    HW197331   1.402   8.086   1.429 -0.4647 -0.9794 -0.4344
32251SOL    HW297332   1.533   8.009   1.424 -0.6235 -1.2134 -0.9452
32252SOL     OW97333   3.783   8.483   0.516 -0.0090  0.2967 -0.7271
32252SOL    HW197334   3.723   8.418   0.553 -0.7351  1.1713 -0.3302
32252SOL    HW297335   3.870   8.454   0.544 -0.4507  0.3600  0.7734
32253SOL     OW97336   8.864   0.757   2.021  0.1803  0.2492  0.0708
32253SOL    HW197337   8.823   0.759   2.107 -1.3356 -3.7411 -0.3007
32253SOL    HW297338   8.958   0.754   2.039 -0.1299 -2.0863  1.8073
32254SOL     OW97339   3.005   0.733   6.765 -0.3399  0.0808  0.0921
32254SOL    HW197340   2.913   0.732   6.740 -1.4078 -0.2777  3.6145
32254SOL    HW297341   3.017   0.815   6.813  1.3473  0.3435 -0.6711
32255SOL     OW97342   1.910   6.692   7.368 -0.0901  0.1242  0.6010
32255SOL    HW197343   1.913   6.760   7.301 -1.2173 -1.0145 -0.6488
32255SOL    HW297344   1.829   6.645   7.352 -0.6442  0.0783  3.0665
32256SOL     OW97345   2.873   7.138   1.023 -0.6359 -0.2863 -0.4334
32256SOL    HW197346   2.897   7.230   1.015 -0.4162 -0.2044  0.8777
32256SOL    HW297347   2.948   7.090   0.990  0.3960  0.0051  1.3442
32257SOL     OW97348   5.410   5.158   1.514  0.2069  0.0642 -0.2864
32257SOL    HW197349   5.381   5.068   1.527  2.1159 -0.3159  2.1893
32257SOL    HW297350   5.497   5.150   1.475  0.3688  0.8514 -0.1141
32258SOL     OW97351   3.283   5.447   8.363 -0.3158 -0.6393 -0.0936
32258SOL    HW197352   3.242   5.364   8.341 -0.2840 -0.9443  0.9474
32258SOL    HW297353   3.267   5.458   8.457  0.4344  0.1002 -0.0380
32259SOL     OW97354   5.506   7.902   0.288  0.1760  0.1785 -0.1303
32259SOL    HW197355   5.425   7.883   0.241  0.9388  0.1991 -1.5025
32259SOL    HW297356   5.500   7.995   0.309  0.8304  0.7670 -2.3023
32260SOL     OW97357   8.728   4.320   6.685 -0.4251 -0.2670 -0.2566
32260SOL    HW197358   8.759   4.276   6.605 -0.5521  1.7270 -1.4702
32260SOL    HW297359   8.650   4.367   6.657  0.0774  1.2567  0.8107
32261SOL     OW97360   6.216   6.096   0.322  0.7042  0.0199  0.4946
32261SOL    HW197361   6.304   6.120   0.292  0.4508 -0.0360 -0.3303
32261SOL    HW297362   6.230   6.016   0.373  1.3011  0.8059  1.6275
32262SOL     OW97363   7.923   2.371   1.424  0.4543 -0.0873  0.5755
32262SOL    HW197364   7.959   2.458   1.403  0.6437  0.4050  2.7096
32262SOL    HW297365   7.981   2.310   1.379  1.5990  0.8326  0.7455
32263SOL     OW97366   1.529   6.527   6.657 -0.7099 -0.2295  0.3486
32263SOL    HW197367   1.583   6.479   6.595 -0.6718 -0.8082  0.8192
32263SOL    HW297368   1.439   6.500   6.635 -1.0054  2.0400 -1.5658
32264SOL     OW97369   4.216   7.676   2.795 -1.2280  0.0907  0.2083
32264SOL    HW197370   4.129   7.705   2.768 -1.1265  1.8458  1.5948
32264SOL    HW297371   4.199   7.608   2.861 -1.6113  1.1180  1.2085
32265SOL     OW97372   9.740   0.861   3.945 -0.0708  0.2469  0.3491
32265SOL    HW197373   9.829   0.861   3.908 -0.7422 -0.9577 -1.3758
32265SOL    HW297374   9.713   0.769   3.942 -1.8061  0.7378 -0.2615
32266SOL     OW97375   3.287   9.576   4.689 -0.2707 -0.5320  0.1356
32266SOL    HW197376   3.253   9.634   4.757  0.5041  0.4726 -0.2970
32266SOL    HW297377   3.375   9.610   4.671 -0.1742 -1.2560 -0.8230
32267SOL     OW97378   1.666   9.196   1.536  0.2490  0.3109 -0.1004
32267SOL    HW197379   1.665   9.105   1.508 -1.0722  0.6384 -1.2671
32267SOL    HW297380   1.721   9.240   1.470 -0.3488  0.5917 -0.4164
32268SOL     OW97381   8.425   1.732   1.784  0.4297 -0.7652 -0.2829
32268SOL    HW197382   8.465   1.684   1.712  0.7274 -0.7064 -0.1582
32268SOL    HW297383   8.439   1.676   1.861 -1.2945 -1.5984 -0.5244
32269SOL     OW97384   4.607   4.414   8.817 -0.2728 -0.2999 -0.0626
32269SOL    HW197385   4.648   4.461   8.744  0.0164  0.1145  0.3601
32269SOL    HW297386   4.648   4.327   8.815  0.8004  0.1750  0.4772
32270SOL     OW97387   1.967   4.063   6.729  0.5578 -0.3321 -0.8675
32270SOL    HW197388   1.976   4.001   6.657  1.6675 -1.1991 -0.0134
32270SOL    HW297389   2.004   4.018   6.805  1.0653  1.2260 -0.1370
32271SOL     OW97390   4.896   0.311   0.356  0.1693  0.6896 -0.1892
32271SOL    HW197391   4.960   0.305   0.427 -0.0409 -1.3690 -0.1140
32271SOL    HW297392   4.815   0.275   0.394 -0.5641  1.6271 -0.8201
32272SOL     OW97393   0.360   7.361   7.378 -0.2402 -0.6419  0.1180
32272SOL    HW197394   0.357   7.447   7.336 -0.8264 -0.7931 -0.1614
32272SOL    HW297395   0.285   7.314   7.341  0.7261 -1.6725 -0.5847
32273SOL     OW97396   6.049   9.338   8.572 -0.1164  0.5175  0.2496
32273SOL    HW197397   5.993   9.385   8.511 -0.6603  0.2854  0.5528
32273SOL    HW297398   6.074   9.258   8.525  1.3848  1.4184 -0.5254
32274SOL     OW97399   1.457   8.744   5.856  0.4849  0.0805 -0.2348
32274SOL    HW197400   1.381   8.690   5.879  0.5090  0.1564  0.0301
32274SOL    HW297401   1.464   8.736   5.761  0.3308 -0.1725 -0.2262
32275SOL     OW97402   3.711   4.647   5.721 -0.3987 -0.0955  0.7834
32275SOL    HW197403   3.683   4.613   5.636  1.4121 -0.4785  0.3104
32275SOL    HW297404   3.680   4.582   5.784 -0.4819 -0.5536  0.2820
32276SOL     OW97405   6.581   0.663   6.805 -0.2087  0.8717  0.7473
32276SOL    HW197406   6.620   0.715   6.736  0.8887  0.8484  1.3387
32276SOL    HW297407   6.489   0.652   6.778 -0.3346  2.6440  0.3611
32277SOL     OW97408   0.478   7.717   3.979  0.0082  0.5241 -0.4344
32277SOL    HW197409   0.424   7.654   3.933 -1.8734  1.3601  0.5015
32277SOL    HW297410   0.551   7.735   3.920 -1.1032 -0.1233 -2.0535
32278SOL     OW97411   1.457   7.103   5.062 -0.3610  0.1333  0.3178
32278SOL    HW197412   1.363   7.101   5.042 -0.2331  0.7570 -0.4048
32278SOL    HW297413   1.461   7.099   5.158 -1.0148 -2.5524  0.3322
32279SOL     OW97414   4.680   2.439   8.180  0.0057  0.1635  0.2278
32279SOL    HW197415   4.624   2.448   8.102  0.5639 -0.8986 -0.3177
32279SOL    HW297416   4.626   2.391   8.242 -0.3156  0.7052  0.3781
32280SOL     OW97417   3.990   6.789   8.734  0.1638  0.2037 -0.3367
32280SOL    HW197418   3.900   6.818   8.719 -0.0378 -0.8725 -1.3088
32280SOL    HW297419   4.001   6.794   8.829 -1.2622 -0.6155 -0.0971
32281SOL     OW97420   7.044   0.113   0.153 -0.5155 -0.2523  0.2662
32281SOL    HW197421   6.968   0.143   0.103 -0.5066  0.7612  0.8485
32281SOL    HW297422   7.060   0.182   0.216  1.5575  0.0721 -0.5388
32282SOL     OW97423   4.300   7.512   8.060 -0.4704  0.1826 -0.0040
32282SOL    HW197424   4.363   7.584   8.069  0.0853 -0.3396  0.3395
32282SOL    HW297425   4.307   7.463   8.142  0.9877 -1.7205 -1.1749
32283SOL     OW97426   8.362   3.055   6.530  0.0406  0.3847 -0.2031
32283SOL    HW197427   8.392   3.140   6.499 -0.1053  0.5207  0.0262
32283SOL    HW297428   8.435   2.996   6.512  0.6918  0.8240  0.8763
32284SOL     OW97429   3.300   7.915   1.415  0.0825 -0.2109 -0.4836
32284SOL    HW197430   3.253   7.873   1.487  1.5462  0.0832  0.6783
32284SOL    HW297431   3.255   7.884   1.336 -2.6759  0.8120  0.5625
32285SOL     OW97432   2.479   7.115   9.849 -0.2832  0.3721  0.5904
32285SOL    HW197433   2.459   7.145   9.938 -1.1773  1.6510 -0.0054
32285SOL    HW297434   2.405   7.058   9.826  0.3828 -0.6780  0.9587
32286SOL     OW97435   2.167   4.785   8.889 -0.8840  0.4437  0.1372
32286SOL    HW197436   2.094   4.747   8.938 -0.3107  1.3857  1.7981
32286SOL    HW297437   2.141   4.876   8.874 -1.9233 -0.2269 -3.1734
32287SOL     OW97438   0.497   2.627   4.486  0.5239 -0.2288  0.8048
32287SOL    HW197439   0.413   2.671   4.475  1.1805  0.5623 -1.7185
32287SOL    HW297440   0.489   2.580   4.569 -1.1325  2.5724  2.3758
32288SOL     OW97441   0.006   8.833   0.029 -0.4853  0.2663 -0.3736
32288SOL    HW197442   0.066   8.881   0.086 -0.6557  0.3232 -0.2422
32288SOL    HW297443  -0.063   8.802   0.088  0.8860 -2.2913  0.0352
32289SOL     OW97444   0.647   0.413   8.362  0.1221  0.2616  0.3649
32289SOL    HW197445   0.679   0.333   8.402 -1.3060  0.4899  2.0807
32289SOL    HW297446   0.667   0.403   8.269 -0.2505 -2.1959  0.4840
32290SOL     OW97447   6.437   0.633   0.086  0.1100 -0.5765  0.6772
32290SOL    HW197448   6.367   0.680   0.131 -0.8771 -1.0940 -0.2608
32290SOL    HW297449   6.399   0.609   0.001  1.8151  0.1848 -0.3656
32291SOL     OW97450   7.282   0.198   4.753  0.6126 -0.5397 -0.1287
32291SOL    HW197451   7.285   0.106   4.778 -1.5148 -0.0291  2.4837
32291SOL    HW297452   7.207   0.205   4.694  0.9203 -0.5209 -0.5181
32292SOL     OW97453   4.345   9.087   6.149 -0.1374 -0.1192 -0.5705
32292SOL    HW197454   4.350   9.058   6.058 -0.2424 -0.3158 -0.5171
32292SOL    HW297455   4.361   9.181   6.147  2.3782 -0.4995 -0.5093
32293SOL     OW97456   0.701   7.327   1.088  1.2682 -0.2365  0.0121
32293SOL    HW197457   0.610   7.332   1.056  0.1509 -0.9453  2.7437
32293SOL    HW297458   0.741   7.408   1.059 -1.2399  1.6205  1.3253
32294SOL     OW97459   6.247   8.198   7.927  0.2854  0.2134 -0.3190
32294SOL    HW197460   6.262   8.194   7.832 -0.5341 -0.6693 -0.4379
32294SOL    HW297461   6.216   8.287   7.943 -0.5608  0.0650 -1.0599
32295SOL     OW97462   7.370   1.167   4.103  0.0423  1.0729 -0.0880
32295SOL    HW197463   7.419   1.248   4.117  0.6003  0.4492  1.8977
32295SOL    HW297464   7.415   1.102   4.156 -2.1059  0.1421  0.7450
32296SOL     OW97465   4.445   3.942   8.322 -0.1014  0.4876  0.1050
32296SOL    HW197466   4.434   3.859   8.368  1.2903  0.4866  0.4815
32296SOL    HW297467   4.465   3.918   8.231  0.2638  0.3999  0.2064
32297SOL     OW97468   9.179   8.852   6.932 -0.5774 -0.0107 -0.4265
32297SOL    HW197469   9.226   8.836   7.014  0.8453  0.0323 -1.2014
32297SOL    HW297470   9.209   8.939   6.904 -1.1530  0.0327 -0.9172
32298SOL     OW97471   2.434   6.985   7.434  0.0534  0.0728 -1.2976
32298SOL    HW197472   2.523   6.962   7.460 -0.6668 -0.7384  0.6443
32298SOL    HW297473   2.442   7.070   7.391  1.7132  0.2005 -0.8018
32299SOL     OW97474   5.288   4.317   9.718  0.3548 -0.1239  0.0827
32299SOL    HW197475   5.348   4.253   9.756  0.5224 -1.5670 -2.4084
32299SOL    HW297476   5.329   4.401   9.735  1.2671 -0.8123  1.5037
32300SOL     OW97477   6.223   9.764   9.682 -0.3043 -0.8543 -0.8233
32300SOL    HW197478   6.261   9.822   9.748 -0.2538 -1.3220 -0.4351
32300SOL    HW297479   6.210   9.681   9.728 -2.7159 -0.4450 -0.6435
32301SOL     OW97480   5.914   4.613   6.838  0.1488 -0.7062  0.4879
32301SOL    HW197481   5.839   4.673   6.836 -0.2539 -1.2105  0.2856
32301SOL    HW297482   5.978   4.658   6.892 -1.0496 -1.1301  2.3460
32302SOL     OW97483   5.292   0.879   2.755 -0.3304 -1.0488 -0.3421
32302SOL    HW197484   5.235   0.803   2.747 -0.5726 -1.0019  0.7705
32302SOL    HW297485   5.262   0.924   2.834 -0.4517  0.4376 -1.2019
32303SOL     OW97486   3.895   2.405   6.664 -0.2875  0.2025 -0.1324
32303SOL    HW197487   3.845   2.341   6.613  0.5084  0.3165 -1.0815
32303SOL    HW297488   3.830   2.470   6.690 -0.8913 -0.3751 -0.1650
32304SOL     OW97489   8.856   6.336   8.214 -0.0347  0.1582 -0.6437
32304SOL    HW197490   8.951   6.337   8.224 -0.2195  0.1802  1.5838
32304SOL    HW297491   8.837   6.406   8.152  1.3800  0.2167 -1.0381
32305SOL     OW97492   0.745   4.384   9.988 -0.0510  0.0405  0.2946
32305SOL    HW197493   0.839   4.377  10.001  0.4619  1.6465 -1.9593
32305SOL    HW297494   0.718   4.297   9.961  0.6824 -0.5263  1.3113
32306SOL     OW97495   6.606   7.911   6.591 -0.4038  0.1472  0.1983
32306SOL    HW197496   6.604   7.839   6.528 -1.8557 -2.0730  2.6187
32306SOL    HW297497   6.691   7.903   6.634 -1.1345 -1.1706  1.4931
32307SOL     OW97498   8.092   3.180   6.666  0.2937 -0.0165 -0.0134
32307SOL    HW197499   8.187   3.185   6.661  0.3595 -1.3293 -0.2677
32307SOL    HW297500   8.062   3.195   6.576  0.1668  1.5863  0.2559
32308SOL     OW97501   4.450   6.756   4.971  0.5162  0.1504  0.1409
32308SOL    HW197502   4.541   6.727   4.976  0.6715  0.1294 -1.9529
32308SOL    HW297503   4.401   6.677   4.947 -0.1309  0.0774  1.6194
32309SOL     OW97504   3.719   9.557   7.513  0.7318  0.2734  0.0841
32309SOL    HW197505   3.627   9.583   7.511  0.5652 -0.2847  0.1085
32309SOL    HW297506   3.725   9.490   7.444  0.7101 -0.9632  1.2515
32310SOL     OW97507   6.940   8.410   3.369  0.0186  0.4087  0.0718
32310SOL    HW197508   7.007   8.348   3.343  1.1227  1.1288  1.0988
32310SOL    HW297509   6.883   8.360   3.429  0.7995  0.3349  0.7620
32311SOL     OW97510   2.530   7.278   3.559  0.6408  0.1500 -0.5754
32311SOL    HW197511   2.525   7.229   3.641  1.3047 -0.3838 -0.8426
32311SOL    HW297512   2.622   7.275   3.535  0.2690 -0.8443 -2.0212
32312SOL     OW97513   8.279   0.938   2.846  0.2013 -0.5254 -0.1819
32312SOL    HW197514   8.368   0.958   2.876  0.1631 -0.1215 -0.3313
32312SOL    HW297515   8.224   0.952   2.923 -0.0866  1.9159 -0.7589
32313SOL     OW97516   7.043   5.687   3.553  0.1054  0.3264 -0.5258
32313SOL    HW197517   7.081   5.741   3.484 -0.3956 -1.7380 -2.5529
32313SOL    HW297518   6.955   5.666   3.522 -0.6679  0.4634  1.4404
32314SOL     OW97519   8.107   3.519   0.038 -0.6523 -0.3712 -0.8155
32314SOL    HW197520   8.030   3.462   0.030 -1.8346  1.0383 -0.0257
32314SOL    HW297521   8.079   3.588   0.099  1.0167  0.5639 -1.0569
32315SOL     OW97522   9.714   2.478   7.329 -0.1125  0.7008 -0.1579
32315SOL    HW197523   9.804   2.490   7.299  0.3173 -0.5282  0.5801
32315SOL    HW297524   9.681   2.405   7.278 -1.5913  2.7061 -2.2506
32316SOL     OW97525   1.141   2.334   1.873 -0.0363 -0.1413 -0.1132
32316SOL    HW197526   1.190   2.378   1.943 -0.6160 -0.4771  0.5153
32316SOL    HW297527   1.131   2.401   1.805  0.6319  0.1556  0.0699
32317SOL     OW97528   3.051   3.436   3.840 -0.2381  0.8527 -0.1838
32317SOL    HW197529   3.077   3.519   3.799 -1.9461  1.2996 -0.4449
32317SOL    HW297530   3.017   3.383   3.769  3.0566 -1.1294 -0.4694
32318SOL     OW97531   5.127   3.025   7.697 -0.4512 -0.4404 -0.5408
32318SOL    HW197532   5.160   3.115   7.694 -1.8888  0.1741  0.8347
32318SOL    HW297533   5.034   3.033   7.676 -0.2926 -1.8260 -1.9141
32319SOL     OW97534   2.785   0.583   8.245 -0.3749 -0.9298  0.2029
32319SOL    HW197535   2.803   0.513   8.308 -0.6739 -2.4145 -1.2832
32319SOL    HW297536   2.716   0.547   8.189 -0.7455  0.6921 -0.4334
32320SOL     OW97537   1.645   4.469   0.764  0.6999  0.6352 -0.0204
32320SOL    HW197538   1.665   4.506   0.850 -1.0940 -1.0427  1.2014
32320SOL    HW297539   1.685   4.382   0.766  3.2531  1.5952 -2.1331
32321SOL     OW97540   7.467   7.322   7.660  0.2920  0.1619 -0.3482
32321SOL    HW197541   7.375   7.297   7.648 -0.1562  1.2060  0.6538
32321SOL    HW297542   7.463   7.410   7.698  1.6341 -0.6288  1.8295
32322SOL     OW97543   2.666   4.019   9.769  0.6266  0.2012  0.2630
32322SOL    HW197544   2.709   4.084   9.825 -0.7917  1.3222  0.0997
32322SOL    HW297545   2.677   3.936   9.815  1.5135  0.7264  1.0263
32323SOL     OW97546   1.862   1.669   4.616  0.6919  0.3495  0.3299
32323SOL    HW197547   1.839   1.743   4.560  4.0829  2.3596  1.2915
32323SOL    HW297548   1.910   1.610   4.558  0.6585  0.4185  0.2321
32324SOL     OW97549   1.283   8.542   6.469  0.6512 -0.4747  0.3272
32324SOL    HW197550   1.216   8.609   6.485  1.4299 -0.1403  2.4868
32324SOL    HW297551   1.344   8.584   6.407  1.4816  1.1457  2.1230
32325SOL     OW97552   6.996   6.336   1.257  0.3663  0.7065  0.2399
32325SOL    HW197553   7.053   6.259   1.254  0.4982  0.7123 -4.0175
32325SOL    HW297554   6.907   6.301   1.261  0.4736  0.3406 -0.4188
32326SOL     OW97555   5.114   3.818   5.346 -0.1845  0.4952 -0.0660
32326SOL    HW197556   5.086   3.909   5.342  0.6920  0.7415 -1.7243
32326SOL    HW297557   5.047   3.770   5.297 -0.2764  0.3436  0.2030
32327SOL     OW97558   3.034   1.917   9.820  0.2386  0.1007 -0.3127
32327SOL    HW197559   3.088   1.875   9.752  0.8032 -0.4844  0.4656
32327SOL    HW297560   2.946   1.918   9.784  0.4366 -0.6892 -0.8461
32328SOL     OW97561   9.760   1.044   4.610 -0.2380 -0.1838  0.0790
32328SOL    HW197562   9.700   1.090   4.669  0.0073  0.4645 -0.1668
32328SOL    HW297563   9.706   0.976   4.569 -0.4050 -0.6524  1.0605
32329SOL     OW97564   8.406   6.462   0.982  0.1914 -0.1538 -0.7934
32329SOL    HW197565   8.435   6.458   1.074 -0.2633 -0.4770 -0.6612
32329SOL    HW297566   8.434   6.378   0.945  0.4309  0.0027 -0.9743
32330SOL     OW97567   4.626   8.200   2.307  0.0201  0.1321 -0.1238
32330SOL    HW197568   4.580   8.280   2.330 -0.6245  0.1716 -1.4567
32330SOL    HW297569   4.575   8.162   2.236  1.9116  0.0660 -1.5319
32331SOL     OW97570   9.076   8.182   0.399 -1.1737  0.0440 -0.0463
32331SOL    HW197571   9.015   8.255   0.395 -0.2093  0.8783  0.0327
32331SOL    HW297572   9.079   8.158   0.491  0.5089  1.6953  0.3919
32332SOL     OW97573   9.746   2.253   0.666 -0.1162  0.4146  0.4558
32332SOL    HW197574   9.748   2.281   0.757  1.1546 -0.3197  0.6696
32332SOL    HW297575   9.671   2.299   0.629  0.7450  2.6459  1.2668
32333SOL     OW97576   7.287   1.859   1.648  0.1720  0.2155 -0.3194
32333SOL    HW197577   7.329   1.913   1.581 -1.2826  0.6291 -0.9519
32333SOL    HW297578   7.194   1.860   1.625 -0.5247  1.0448  2.1753
32334SOL     OW97579   8.101   7.884   1.310 -0.5443  0.3731  0.3104
32334SOL    HW197580   8.089   7.791   1.331  0.1985  0.4922  1.3230
32334SOL    HW297581   8.054   7.931   1.380  0.0136  0.7663  0.4271
32335SOL     OW97582   4.176   5.160   3.860 -0.0428  0.1625 -0.0510
32335SOL    HW197583   4.116   5.097   3.821 -0.8300  0.8113  0.0867
32335SOL    HW297584   4.123   5.208   3.923 -0.0203  2.3545 -1.5958
32336SOL     OW97585   1.567   7.182   8.704 -0.3932 -0.0260 -0.4340
32336SOL    HW197586   1.652   7.159   8.741  0.1199 -1.2840 -2.2387
32336SOL    HW297587   1.541   7.105   8.654 -1.6554  1.0744 -1.5661
32337SOL     OW97588   6.614   1.940   6.854 -0.4609 -0.9483  0.1623
32337SOL    HW197589   6.561   1.923   6.776 -1.5353  1.5974  0.2019
32337SOL    HW297590   6.550   1.973   6.918  0.8986  0.4944  0.8386
32338SOL     OW97591   6.946   0.452   4.512  0.2000 -0.1500  0.1969
32338SOL    HW197592   6.975   0.538   4.542 -1.3908  0.5501 -0.1817
32338SOL    HW297593   6.977   0.446   4.422  0.8886 -0.2697  0.4360
32339SOL     OW97594   5.791   7.760   5.836 -0.0343 -0.0932  0.1300
32339SOL    HW197595   5.740   7.688   5.799  1.3714 -0.3000 -1.5408
32339SOL    HW297596   5.873   7.720   5.864 -0.5711  0.2948  2.4597
32340SOL     OW97597   0.800   7.190   0.307 -0.4005  0.1810 -0.0780
32340SOL    HW197598   0.880   7.144   0.333 -0.3620  0.3375  0.0877
32340SOL    HW297599   0.770   7.145   0.228  1.5010  1.9336 -1.9203
32341SOL     OW97600   2.944   2.561   2.857 -0.1141  0.5825 -0.8946
32341SOL    HW197601   2.953   2.594   2.946  0.0829  0.8684 -1.0190
32341SOL    HW297602   2.978   2.471   2.862  0.3104  0.7454 -0.7732
32342SOL     OW97603   4.340   8.325   5.120  0.4088 -0.7297  0.2434
32342SOL    HW197604   4.245   8.326   5.104 -0.0193  0.6999  2.4373
32342SOL    HW297605   4.369   8.414   5.100  0.6428 -0.2099  2.5974
32343SOL     OW97606   3.883   7.123   7.244 -0.1519 -0.3772 -0.8397
32343SOL    HW197607   3.932   7.159   7.169  0.1162  0.1318 -0.4272
32343SOL    HW297608   3.947   7.071   7.292  0.0874  0.5315 -0.1349
32344SOL     OW97609   0.339   2.699   8.149 -0.1679 -0.2791  0.1393
32344SOL    HW197610   0.335   2.671   8.058  2.0203 -1.4743  0.3517
32344SOL    HW297611   0.343   2.795   8.144 -0.3432 -0.3161 -0.9781
32345SOL     OW97612   5.863   4.251   6.948 -0.4672 -0.3968  0.0068
32345SOL    HW197613   5.939   4.307   6.963 -0.1556 -0.1080 -2.3819
32345SOL    HW297614   5.788   4.311   6.952 -0.5662 -0.5679  1.6436
32346SOL     OW97615   1.761   4.384   5.290  0.0736 -0.1684  0.1255
32346SOL    HW197616   1.734   4.437   5.215 -0.6128  1.0254  1.1561
32346SOL    HW297617   1.850   4.414   5.310  0.3534 -0.6680 -0.3548
32347SOL     OW97618   5.860   0.070   0.171  0.2604  0.1715  0.3739
32347SOL    HW197619   5.879   0.111   0.087  0.0773  0.2828  0.3860
32347SOL    HW297620   5.904  -0.015   0.167  0.6521  0.3768  0.3548
32348SOL     OW97621   6.596   9.106   5.732 -0.7472 -0.6227  0.0879
32348SOL    HW197622   6.589   9.067   5.819  0.3376 -0.6359  0.1850
32348SOL    HW297623   6.524   9.168   5.727 -0.5813 -0.3320  1.1491
32349SOL     OW97624   5.755   6.741   4.224  0.6415 -0.5859  0.0278
32349SOL    HW197625   5.815   6.810   4.251  0.9088 -1.3673  1.5140
32349SOL    HW297626   5.696   6.784   4.162  1.7534  0.5797 -0.2606
32350SOL     OW97627   0.841   5.817   8.782 -0.6321  0.2844 -0.2006
32350SOL    HW197628   0.805   5.739   8.824 -0.1538  0.4557  0.5576
32350SOL    HW297629   0.926   5.787   8.748 -0.8656  0.2350 -0.7311
32351SOL     OW97630   7.725   2.218   8.817 -0.2033  0.1554  0.4392
32351SOL    HW197631   7.796   2.261   8.866  0.2665 -0.5808  0.4085
32351SOL    HW297632   7.670   2.179   8.884 -0.8737  1.1485  0.4924
32352SOL     OW97633   5.549   3.938   5.515  0.5828  0.0142 -0.0058
32352SOL    HW197634   5.481   4.001   5.491  1.3640  0.5983 -0.7686
32352SOL    HW297635   5.527   3.858   5.468 -0.5008 -0.3585  1.0856
32353SOL     OW97636   7.388   8.561   6.379 -0.5373 -0.1746  0.2313
32353SOL    HW197637   7.456   8.540   6.442 -0.2364  0.1476  0.0210
32353SOL    HW297638   7.310   8.514   6.410 -0.1733 -0.6909  0.3695
32354SOL     OW97639   6.349   2.307   7.226 -0.3885  0.8215  0.2953
32354SOL    HW197640   6.340   2.226   7.176  0.3140  0.9798 -0.1033
32354SOL    HW297641   6.440   2.307   7.257  0.3763  2.5566 -1.6919
32355SOL     OW97642   8.047   9.011   3.919  0.3372 -0.4751  0.1021
32355SOL    HW197643   8.034   9.015   4.013  1.1108  1.2614  0.1785
32355SOL    HW297644   7.990   9.080   3.883  0.1394 -1.0338 -0.6791
32356SOL     OW97645   9.030   9.001   4.548 -0.1335 -0.7352  0.4149
32356SOL    HW197646   9.017   9.004   4.643 -0.1182 -1.1974  0.4372
32356SOL    HW297647   9.125   8.994   4.537 -0.0147  0.8501  0.3107
32357SOL     OW97648   1.611   6.822   4.088  0.3633 -0.3521 -0.1159
32357SOL    HW197649   1.624   6.825   4.183  0.4342  0.6228 -0.1438
32357SOL    HW297650   1.655   6.901   4.056 -0.1452 -0.3795 -0.8977
32358SOL     OW97651   5.232   7.895   3.936  0.0269  0.1128 -0.0920
32358SOL    HW197652   5.211   7.988   3.936 -0.6310 -0.0157  0.9050
32358SOL    HW297653   5.162   7.854   3.885 -1.7395 -0.1912  2.3505
32359SOL     OW97654   1.785   2.318   4.932 -0.3883 -0.1419 -0.3463
32359SOL    HW197655   1.732   2.397   4.942 -0.6266 -0.1669 -1.2547
32359SOL    HW297656   1.724   2.251   4.900 -0.5032 -1.1248  1.7966
32360SOL     OW97657   1.500   4.191   5.767 -0.6211  0.2186 -0.1407
32360SOL    HW197658   1.565   4.225   5.706 -1.3473 -2.2982 -2.5224
32360SOL    HW297659   1.545   4.120   5.813 -1.1703 -0.4510 -0.6108
32361SOL     OW97660   3.755   3.383   3.257 -0.4045 -0.3091  0.0373
32361SOL    HW197661   3.842   3.422   3.250 -0.4371 -0.4144 -0.9895
32361SOL    HW297662   3.695   3.450   3.222 -0.5481 -0.9187 -0.9167
32362SOL     OW97663   6.889   3.648   8.543 -0.1198 -0.0568  0.1855
32362SOL    HW197664   6.837   3.725   8.563  0.9131  0.5058  0.7733
32362SOL    HW297665   6.841   3.576   8.584 -0.5046  0.4280  0.6037
32363SOL     OW97666   9.067   6.499   2.029 -0.6105 -0.0423  0.0308
32363SOL    HW197667   9.053   6.418   1.979  0.9698 -0.0891 -0.3916
32363SOL    HW297668   9.063   6.471   2.120 -1.3013 -0.3669 -0.0920
32364SOL     OW97669   6.937   2.227   9.386 -0.6702 -0.5358 -0.1487
32364SOL    HW197670   6.969   2.316   9.403  1.2705 -0.5816 -2.7832
32364SOL    HW297671   6.967   2.176   9.461 -1.0623  0.8733  0.9987
32365SOL     OW97672   3.027   6.804   3.443  0.6261 -0.3838  0.2793
32365SOL    HW197673   2.977   6.762   3.373 -0.0645 -0.6158  0.8960
32365SOL    HW297674   3.080   6.870   3.399 -1.2936  0.8711 -0.2440
32366SOL     OW97675   8.907   0.631   3.894  0.0703 -0.5235 -0.3514
32366SOL    HW197676   9.002   0.619   3.892  0.1104 -0.1462 -0.9713
32366SOL    HW297677   8.872   0.551   3.854  0.2841  0.7350 -3.2860
32367SOL     OW97678   5.462   7.444   2.698 -0.4972  0.2728 -0.5101
32367SOL    HW197679   5.421   7.388   2.632  0.2982  0.4825 -1.1880
32367SOL    HW297680   5.413   7.527   2.692  0.1725  0.6164 -1.5118
32368SOL     OW97681   9.845   5.803   2.878  0.1852 -0.4211  0.0346
32368SOL    HW197682   9.835   5.750   2.957 -1.3356 -2.2989 -1.3248
32368SOL    HW297683   9.776   5.868   2.885  0.4661 -0.1680  0.5379
32369SOL     OW97684   3.549   2.980   0.528  0.3862 -0.1742 -0.5357
32369SOL    HW197685   3.551   3.046   0.459 -1.6387  0.2588 -0.2508
32369SOL    HW297686   3.552   3.029   0.609 -0.8633 -0.3947 -0.3245
32370SOL     OW97687   2.705   5.587   0.517  0.5881  0.4714  0.0210
32370SOL    HW197688   2.664   5.661   0.474  0.0361  0.3935  0.4091
32370SOL    HW297689   2.657   5.511   0.486  1.4293  0.2232 -0.7108
32371SOL     OW97690   6.806   0.550   7.273  0.3858  0.3586  0.5994
32371SOL    HW197691   6.766   0.584   7.193  0.4801 -1.4736 -0.2862
32371SOL    HW297692   6.863   0.621   7.304 -0.5022  1.5125 -0.3284
32372SOL     OW97693   6.522   1.583   6.911  0.0946 -0.5283  0.2257
32372SOL    HW197694   6.454   1.516   6.916  0.7260 -1.0846  2.3486
32372SOL    HW297695   6.604   1.533   6.913  0.6291  0.1488 -1.8690
32373SOL     OW97696   0.504   4.546   7.906  0.1406  0.1001 -0.0461
32373SOL    HW197697   0.449   4.606   7.856  1.1652  0.7424 -0.4334
32373SOL    HW297698   0.444   4.505   7.968 -1.1380 -0.5968 -1.6591
32374SOL     OW97699   1.057   3.458   9.857  0.5494 -0.1313  0.1810
32374SOL    HW197700   0.995   3.527   9.878  1.0254  0.3005  0.1975
32374SOL    HW297701   1.012   3.377   9.881  0.7933  0.2797  2.2435
32375SOL     OW97702   4.227   4.522   9.680 -1.1338  0.4433  0.1335
32375SOL    HW197703   4.163   4.591   9.666 -0.3282  1.0415 -0.7103
32375SOL    HW297704   4.226   4.471   9.599 -1.1232 -0.0299  0.4274
32376SOL     OW97705   8.845   3.385   0.972  0.0291 -0.7131  0.0319
32376SOL    HW197706   8.764   3.430   0.995  0.2722 -0.9145  1.3171
32376SOL    HW297707   8.828   3.347   0.886  0.3327  3.1749 -2.0032
32377SOL     OW97708   3.956   8.938   7.318 -0.2998 -0.1821 -1.0816
32377SOL    HW197709   3.991   8.848   7.318  1.4053  0.4367 -1.0675
32377SOL    HW297710   3.942   8.958   7.411 -0.7119 -0.4352 -1.0868
32378SOL     OW97711   5.619   2.515   0.149 -0.4708 -0.2771  0.1608
32378SOL    HW197712   5.651   2.542   0.063  1.4738 -0.4286  0.8006
32378SOL    HW297713   5.535   2.472   0.130 -0.0310 -0.4217 -1.6649
32379SOL     OW97714   1.084   6.217   4.622  0.1949  0.3739  0.5185
32379SOL    HW197715   1.032   6.280   4.672 -0.6857  0.1380 -0.0855
32379SOL    HW297716   1.118   6.267   4.548  1.4811  0.7172  1.2989
32380SOL     OW97717   2.747   8.263   0.624 -0.1541 -0.2803  0.4679
32380SOL    HW197718   2.712   8.346   0.592 -0.5782 -0.3780  0.6583
32380SOL    HW297719   2.714   8.198   0.562 -1.5280 -0.5560  1.4162
32381SOL     OW97720   1.161   9.073   6.891 -0.3553  0.8088 -0.3291
32381SOL    HW197721   1.184   9.117   6.810 -1.9641  0.0710 -1.2430
32381SOL    HW297722   1.073   9.104   6.911 -1.4490 -1.6826 -0.8671
32382SOL     OW97723   2.600   2.000   6.601  0.0094  0.9235  0.3187
32382SOL    HW197724   2.603   1.967   6.691 -1.6416 -1.2795 -0.3586
32382SOL    HW297725   2.636   1.928   6.548  0.5033  1.9945 -0.8441
32383SOL     OW97726   1.043   3.820   5.293 -0.2317  0.6862 -0.3284
32383SOL    HW197727   1.053   3.841   5.200 -0.3595 -0.4482 -0.6157
32383SOL    HW297728   1.044   3.724   5.296 -1.2680  0.6838  0.7228
32384SOL     OW97729   7.165   4.200   6.080  0.3959 -0.1047 -0.1547
32384SOL    HW197730   7.171   4.123   6.137  2.8974  0.1931  0.0923
32384SOL    HW297731   7.095   4.178   6.018  0.0036 -1.9153  0.8563
32385SOL     OW97732   1.249   3.602   3.676  0.3617 -0.0873  0.2214
32385SOL    HW197733   1.281   3.615   3.587 -0.1420 -0.0650  0.0363
32385SOL    HW297734   1.303   3.659   3.730 -0.1432  0.8656 -0.2388
32386SOL     OW97735   7.678   1.322   7.921 -0.3790 -0.0630 -0.0355
32386SOL    HW197736   7.585   1.305   7.935 -0.2837 -0.0748  0.6218
32386SOL    HW297737   7.720   1.293   8.002  0.4736 -2.2938 -1.1908
32387SOL     OW97738   3.512   7.734   7.242 -0.6328 -0.2406  0.1897
32387SOL    HW197739   3.448   7.664   7.230 -0.7936 -0.0396 -0.1158
32387SOL    HW297740   3.549   7.748   7.155  0.8591 -1.3378  0.5859
32388SOL     OW97741   2.447   9.587   1.658  0.2757  0.1283  0.0873
32388SOL    HW197742   2.466   9.647   1.586 -1.5445  0.1558 -0.4348
32388SOL    HW297743   2.351   9.579   1.658  0.2168 -0.0001  2.4114
32389SOL     OW97744   0.153   0.317   3.158  0.1738  0.2687 -0.7957
32389SOL    HW197745   0.068   0.312   3.114 -0.1420  0.5806 -0.2248
32389SOL    HW297746   0.188   0.402   3.132  0.2540  0.1979 -0.9219
32390SOL     OW97747   5.375   4.809   0.892 -0.3288 -0.1212  0.8146
32390SOL    HW197748   5.347   4.848   0.974 -2.4370 -0.4411  0.3178
32390SOL    HW297749   5.367   4.879   0.827 -1.1528 -0.5006  0.4746
32391SOL     OW97750   8.759   8.288   8.073  0.3844  0.1393 -0.5370
32391SOL    HW197751   8.823   8.248   8.132  1.5200  2.4260 -0.1284
32391SOL    HW297752   8.681   8.299   8.127 -0.7735 -3.3155 -1.2252
32392SOL     OW97753   9.643   1.124   8.868 -0.7439 -0.0365  0.0125
32392SOL    HW197754   9.660   1.214   8.896 -1.4043  0.2633 -0.5322
32392SOL    HW297755   9.617   1.079   8.948 -0.7679  0.3422  0.2234
32393SOL     OW97756   5.514   1.653   7.300 -0.3461  0.9722 -0.2562
32393SOL    HW197757   5.538   1.719   7.235  1.1560  0.9601  0.2550
32393SOL    HW297758   5.453   1.699   7.358  1.1545  2.1447  0.4562
32394SOL     OW97759   3.181   2.575   9.766  0.0092  0.5598  0.3210
32394SOL    HW197760   3.160   2.619   9.683 -0.1046  0.6201  0.3812
32394SOL    HW297761   3.176   2.645   9.831  2.9637  1.1897  0.0183
32395SOL     OW97762   2.992   5.289   2.075  0.0107 -0.0172 -0.4900
32395SOL    HW197763   3.007   5.381   2.051  2.5536 -0.3560 -0.4729
32395SOL    HW297764   3.021   5.282   2.166 -0.8035 -0.7282 -0.2639
32396SOL     OW97765   3.113   8.755   2.086  0.8405  0.1310  0.3031
32396SOL    HW197766   3.067   8.822   2.035 -0.7553 -0.5567  0.7902
32396SOL    HW297767   3.191   8.735   2.034  1.2440  2.1650  0.0258
32397SOL     OW97768   4.472   8.451   8.426  0.0359 -0.1738 -0.0983
32397SOL    HW197769   4.492   8.411   8.511 -3.4007 -1.7966  0.1012
32397SOL    HW297770   4.478   8.546   8.442  2.3263 -0.4469  1.0749
32398SOL     OW97771   0.972   1.407   0.158 -0.2154 -0.1343 -0.1567
32398SOL    HW197772   1.045   1.443   0.108 -2.5246  3.3070 -1.4356
32398SOL    HW297773   0.978   1.449   0.244 -0.3539 -0.3659 -0.0309
32399SOL     OW97774   5.179   3.277   5.453 -0.1958 -0.3955 -0.1486
32399SOL    HW197775   5.167   3.309   5.542  0.9506  0.1234 -0.1612
32399SOL    HW297776   5.172   3.355   5.398  0.8558 -0.4196 -0.3393
32400SOL     OW97777   3.383   4.400   2.524  0.5861  0.0933 -0.1596
32400SOL    HW197778   3.408   4.353   2.604  2.7481 -0.5770 -1.1427
32400SOL    HW297779   3.452   4.379   2.462 -1.1994  0.3414 -2.3437
32401SOL     OW97780   6.326   6.017   3.649  0.3324 -0.0014  0.7423
32401SOL    HW197781   6.388   6.065   3.704  1.2982 -0.4272  0.0699
32401SOL    HW297782   6.247   6.010   3.702  0.2973  1.9527  1.0065
32402SOL     OW97783   3.551   2.596   3.149 -0.0968 -0.0242  0.0587
32402SOL    HW197784   3.637   2.615   3.111 -0.3642  1.0171 -0.0597
32402SOL    HW297785   3.537   2.503   3.132  1.4291 -0.4470  0.9584
32403SOL     OW97786   6.339   3.259   9.887  0.1893 -0.3830 -0.5559
32403SOL    HW197787   6.262   3.304   9.852  0.0436 -0.5470 -0.4473
32403SOL    HW297788   6.411   3.319   9.872  0.0417 -0.2370 -0.6776
32404SOL     OW97789   5.757   0.384   1.485  0.2350  0.0609 -0.0794
32404SOL    HW197790   5.786   0.417   1.570  0.2633 -0.2976  0.0491
32404SOL    HW297791   5.662   0.400   1.484  0.1236 -0.5742  0.3029
32405SOL     OW97792   8.004   6.500   1.498 -0.2454 -0.5254 -0.1062
32405SOL    HW197793   7.966   6.524   1.583 -1.5765  0.7997 -1.0466
32405SOL    HW297794   8.022   6.406   1.507 -0.5410 -0.4672  1.5620
32406SOL     OW97795   8.562   3.755   1.044 -0.2190  0.3127  0.9699
32406SOL    HW197796   8.594   3.670   1.015 -3.3466 -0.1797 -1.6830
32406SOL    HW297797   8.511   3.788   0.970 -0.4493  3.8114  2.4813
32407SOL     OW97798   0.256   7.613   0.887 -0.0905  0.3552  0.6392
32407SOL    HW197799   0.330   7.636   0.830 -0.0776 -1.2831 -0.0551
32407SOL    HW297800   0.234   7.695   0.931  1.5302  1.0966  0.1609
32408SOL     OW97801   1.934   7.452   3.005  0.2651 -0.0303  0.1556
32408SOL    HW197802   1.904   7.387   3.069  0.0311 -0.1318 -0.0583
32408SOL    HW297803   2.027   7.432   2.993  0.9090  1.3567  2.1280
32409SOL     OW97804   5.963   7.793   2.012  0.1287 -0.0835  0.6919
32409SOL    HW197805   5.993   7.746   2.090 -0.7679  0.7580  1.5608
32409SOL    HW297806   6.016   7.872   2.010  0.4121 -0.2799  0.2191
32410SOL     OW97807   0.599   3.288   7.547 -0.4628 -0.0529  0.5207
32410SOL    HW197808   0.600   3.367   7.494 -0.2725 -0.0704  0.4977
32410SOL    HW297809   0.677   3.240   7.520  0.0409  0.2885  1.3353
32411SOL     OW97810   1.540   7.384   1.975  0.2013  0.5576 -0.6836
32411SOL    HW197811   1.496   7.447   1.918  1.2453  0.2561 -1.8600
32411SOL    HW297812   1.630   7.382   1.944  0.8298  0.4473  1.0614
32412SOL     OW97813   5.848   8.081   0.463 -0.1711  0.3326  0.1100
32412SOL    HW197814   5.925   8.082   0.519  1.0655  1.6667 -1.5228
32412SOL    HW297815   5.833   8.172   0.441 -0.7711 -0.1149 -1.5009
32413SOL     OW97816   6.771   3.605   1.236  0.0455  0.5773 -0.2366
32413SOL    HW197817   6.820   3.664   1.178 -1.0755  0.9796 -0.8058
32413SOL    HW297818   6.689   3.589   1.189  0.4465 -1.7062 -0.2322
32414SOL     OW97819   0.457   7.905   3.487  0.4323 -0.0968 -0.6873
32414SOL    HW197820   0.512   7.979   3.460 -0.6939  0.4867 -1.4681
32414SOL    HW297821   0.397   7.892   3.413 -0.1801 -1.0012 -0.0438
32415SOL     OW97822   4.378   2.367   7.341  0.0339  0.0003 -0.8638
32415SOL    HW197823   4.400   2.442   7.284  0.1777  1.2513  0.7646
32415SOL    HW297824   4.283   2.362   7.338  0.0099  0.3826 -0.8337
32416SOL     OW97825   8.525   9.220   2.425 -0.0968 -0.4574  0.3769
32416SOL    HW197826   8.473   9.246   2.349  1.7293  1.4487 -0.3320
32416SOL    HW297827   8.536   9.125   2.416 -2.7819 -0.8174  0.1991
32417SOL     OW97828   4.286   7.063   6.544  0.2691 -0.3244 -0.1758
32417SOL    HW197829   4.357   7.014   6.586 -0.0471 -0.0047  0.7587
32417SOL    HW297830   4.267   7.015   6.464  1.6528 -0.3276 -0.5307
32418SOL     OW97831   8.657   5.052   3.343  0.1939 -1.3285  0.3256
32418SOL    HW197832   8.605   4.985   3.298 -0.9929  1.1778 -2.3604
32418SOL    HW297833   8.594   5.118   3.369  1.5709 -0.1882  0.8888
32419SOL     OW97834   7.769   0.657   4.654 -0.1189 -0.1894  0.1091
32419SOL    HW197835   7.764   0.752   4.646  1.6006  0.1752  2.4947
32419SOL    HW297836   7.848   0.632   4.606  0.2902 -0.2194  0.7974
32420SOL     OW97837   4.047   8.547   1.930  0.0788  0.0987 -0.0958
32420SOL    HW197838   4.079   8.581   1.846 -1.3120 -0.3548 -0.8414
32420SOL    HW297839   4.073   8.455   1.930 -0.3781 -0.0315 -0.2708
32421SOL     OW97840   2.995   4.500   0.469 -0.3537  0.3305  0.2684
32421SOL    HW197841   3.013   4.594   0.467  0.5236  0.1710 -0.7924
32421SOL    HW297842   3.036   4.467   0.389 -2.6570 -0.6072 -0.6111
32422SOL     OW97843   0.730   2.178   7.107  0.6598 -0.2877 -0.4986
32422SOL    HW197844   0.673   2.198   7.182 -0.0740 -0.9330 -0.8625
32422SOL    HW297845   0.728   2.258   7.054 -0.5779 -0.5741 -0.9129
32423SOL     OW97846   0.812   3.352   4.076  0.8317 -0.2939 -0.1453
32423SOL    HW197847   0.750   3.364   4.004  0.2381  0.9848  0.5519
32423SOL    HW297848   0.759   3.357   4.155  1.6213 -0.6424  0.4254
32424SOL     OW97849   7.302   7.913   5.130 -0.0182 -0.3468  0.0219
32424SOL    HW197850   7.320   7.952   5.216 -0.4554 -1.4911  0.6596
32424SOL    HW297851   7.388   7.893   5.094  0.2078  1.0247 -0.2472
32425SOL     OW97852   2.236   0.790   9.479  0.1341 -0.1177  0.5494
32425SOL    HW197853   2.274   0.871   9.514  1.2629 -0.2679 -0.2871
32425SOL    HW297854   2.195   0.816   9.397 -0.5661 -0.1787  0.8737
32426SOL     OW97855   8.107   0.646   8.939  0.2020 -0.6219 -0.3058
32426SOL    HW197856   8.020   0.673   8.967  1.0108  0.1720  1.6676
32426SOL    HW297857   8.100   0.635   8.845 -1.8502  0.0839 -0.2875
32427SOL     OW97858   1.298   2.675   2.222  0.1116 -0.2144 -0.0143
32427SOL    HW197859   1.302   2.768   2.196  0.2236 -0.5073 -1.0846
32427SOL    HW297860   1.337   2.674   2.309  0.3589  0.7090 -0.0950
32428SOL     OW97861   6.610   6.742   1.287  0.5511 -0.1246  0.2328
32428SOL    HW197862   6.704   6.756   1.291  0.3763  0.9368  1.0300
32428SOL    HW297863   6.579   6.799   1.217  0.5738 -0.9758 -0.4861
32429SOL     OW97864   7.644   5.313   0.824 -0.1066 -0.2431  0.1509
32429SOL    HW197865   7.658   5.229   0.781  0.2273  0.1901 -0.6001
32429SOL    HW297866   7.591   5.363   0.762 -1.0100 -0.1826  0.9440
32430SOL     OW97867   2.135   6.376   5.154 -0.2453 -0.2361 -0.0738
32430SOL    HW197868   2.156   6.344   5.241 -1.1392  0.8517  0.5761
32430SOL    HW297869   2.101   6.300   5.107  1.7810 -1.2200 -0.0451
32431SOL     OW97870   3.395   0.108   2.007 -0.0594 -0.0669 -0.6983
32431SOL    HW197871   3.472   0.076   1.959  0.0212 -0.4331 -0.3380
32431SOL    HW297872   3.380   0.041   2.074  1.3256  1.5901  1.4006
32432SOL     OW97873   4.842   3.112   0.564 -0.2100  0.0291  0.8460
32432SOL    HW197874   4.931   3.146   0.576 -0.0721 -0.4042  1.0901
32432SOL    HW297875   4.832   3.046   0.633 -0.2344 -0.8816 -0.0021
32433SOL     OW97876   8.888   1.683   2.858 -0.1699  0.5944  0.8270
32433SOL    HW197877   8.943   1.661   2.783  0.8013  1.1409  1.3580
32433SOL    HW297878   8.933   1.756   2.900 -0.8414  0.4729  1.7865
32434SOL     OW97879   8.740   2.614   3.113 -0.6238 -0.1542 -0.4182
32434SOL    HW197880   8.824   2.616   3.160 -0.4161 -0.6033 -0.7637
32434SOL    HW297881   8.674   2.613   3.182 -0.4081  1.6315 -0.1206
32435SOL     OW97882   7.683   2.407   3.303 -0.1546  0.1757 -0.1405
32435SOL    HW197883   7.619   2.409   3.232 -1.8347 -0.7714  1.2599
32435SOL    HW297884   7.648   2.343   3.365  1.1278  1.1208  1.6464
32436SOL     OW97885   4.108   6.905   6.717  0.0392  0.4674  0.0845
32436SOL    HW197886   4.143   6.913   6.806  0.1971  0.5476  0.0151
32436SOL    HW297887   4.180   6.868   6.666 -0.2779 -0.2357  0.1370
32437SOL     OW97888   7.674   5.464   6.093  0.1849  0.2354  0.2663
32437SOL    HW197889   7.665   5.374   6.061  1.0497 -0.2050  1.1917
32437SOL    HW297890   7.641   5.460   6.183  2.4598  0.2444  1.1704
32438SOL     OW97891   7.167   9.964   5.250 -0.0141  0.2421  0.4895
32438SOL    HW197892   7.218   9.896   5.294 -0.8763 -0.4259  0.4886
32438SOL    HW297893   7.079   9.927   5.243 -0.3018  1.0273 -0.2638
32439SOL     OW97894   0.880   2.314   5.407 -0.0657  0.4467  0.0475
32439SOL    HW197895   0.860   2.221   5.396  0.4644  0.2290  0.7728
32439SOL    HW297896   0.798   2.359   5.389 -0.7570 -0.2801  1.2315
32440SOL     OW97897   3.675   3.548   0.099  0.5479 -0.2514  0.2840
32440SOL    HW197898   3.722   3.604   0.038  0.4720 -2.3516 -1.8562
32440SOL    HW297899   3.727   3.467   0.102 -1.0114 -1.2927  0.6883
32441SOL     OW97900   4.423   0.123   7.407 -0.1877  0.8507  0.9496
32441SOL    HW197901   4.331   0.118   7.380 -0.5126  3.1249  1.4364
32441SOL    HW297902   4.470   0.146   7.326  0.1161 -1.1424  0.5165
32442SOL     OW97903   6.693   8.670   3.730  0.0910  0.1150 -0.0259
32442SOL    HW197904   6.691   8.747   3.787 -0.7421 -0.6874  1.0621
32442SOL    HW297905   6.781   8.633   3.743  0.0782  0.2167  0.3544
32443SOL     OW97906   7.436   8.659   4.077  0.4605 -0.0155 -0.0840
32443SOL    HW197907   7.476   8.722   4.136  1.0875  0.9384 -1.4820
32443SOL    HW297908   7.498   8.586   4.073 -0.3513 -0.8827  1.6811
32444SOL     OW97909   7.973   1.615   6.536  0.6004 -0.2738 -0.7841
32444SOL    HW197910   8.065   1.643   6.527  1.3380 -1.9433  0.8363
32444SOL    HW297911   7.945   1.595   6.447  1.3294  1.5682 -1.4808
32445SOL     OW97912   7.613   0.020   8.729  0.0272 -0.0643  0.4557
32445SOL    HW197913   7.644   0.101   8.769 -1.9084  1.2372 -0.5226
32445SOL    HW297914   7.623   0.035   8.635  0.2326 -1.2175  0.2874
32446SOL     OW97915   9.612   1.356   5.346 -0.4318  0.3767  0.6086
32446SOL    HW197916   9.695   1.325   5.309 -0.9108 -1.5267  1.0078
32446SOL    HW297917   9.548   1.345   5.276 -0.3807  1.8090  0.3137
32447SOL     OW97918   8.838   3.935   4.400  0.1920  0.2629 -0.1226
32447SOL    HW197919   8.845   4.027   4.422  0.1535 -0.3549  2.8711
32447SOL    HW297920   8.921   3.897   4.429 -0.7116 -0.9949  0.9216
32448SOL     OW97921   6.192   3.936   8.966 -0.0732  0.6602  0.5923
32448SOL    HW197922   6.229   3.913   9.051 -0.2241  0.7751  0.6900
32448SOL    HW297923   6.113   3.986   8.987 -0.4845  0.1078  0.3931
32449SOL     OW97924   9.146   9.479   9.026 -0.1424  0.6041 -0.3973
32449SOL    HW197925   9.153   9.521   9.112  0.5187 -0.2038 -0.0503
32449SOL    HW297926   9.073   9.525   8.984  0.1568  1.6744  0.2049
32450SOL     OW97927   0.553   2.039   8.361  0.0787 -0.0398  0.6490
32450SOL    HW197928   0.577   2.039   8.268 -2.5165  1.4520 -0.1258
32450SOL    HW297929   0.518   1.951   8.377 -2.0628  0.5056 -0.6304
32451SOL     OW97930   7.765   7.447   8.959  0.3892  0.1396 -0.6154
32451SOL    HW197931   7.842   7.399   8.990  1.6031  1.1600 -1.9044
32451SOL    HW297932   7.799   7.535   8.938 -1.6182  1.4055  1.0632
32452SOL     OW97933   8.090   2.528   7.106  0.4414 -0.2056  0.3062
32452SOL    HW197934   8.097   2.600   7.169 -1.6368 -0.4816  0.9388
32452SOL    HW297935   8.099   2.569   7.021  1.1490  0.5156  0.7230
32453SOL     OW97936   6.458   4.622   5.675 -0.4073 -0.3179 -0.7586
32453SOL    HW197937   6.540   4.664   5.648 -1.1978  1.2071 -0.8590
32453SOL    HW297938   6.481   4.530   5.684  1.3809  0.1047 -0.5753
32454SOL     OW97939   2.846   6.281   5.439  0.2432  0.3688  0.0062
32454SOL    HW197940   2.784   6.272   5.511  0.3512  1.6528  0.2782
32454SOL    HW297941   2.921   6.226   5.464 -0.2960 -0.2936  0.1966
32455SOL     OW97942   2.107   0.693   5.431  0.2617 -0.0475 -0.6390
32455SOL    HW197943   2.014   0.704   5.410 -0.2406 -0.9966  0.8943
32455SOL    HW297944   2.128   0.767   5.488  0.8833  1.0063 -2.1850
32456SOL     OW97945   9.016   7.634   8.927  0.2367 -0.6586  0.3580
32456SOL    HW197946   8.937   7.670   8.966 -1.3192 -1.1523 -2.0967
32456SOL    HW297947   9.049   7.572   8.992 -1.3059 -0.3125  1.5260
32457SOL     OW97948   6.037   9.074   8.444 -0.6610 -0.0597  1.0001
32457SOL    HW197949   6.130   9.055   8.459  0.0529 -0.3384 -2.7049
32457SOL    HW297950   5.990   9.008   8.495  1.3288 -1.9540  0.5176
32458SOL     OW97951   7.868   8.335   6.624 -0.1611 -0.0240  0.1805
32458SOL    HW197952   7.895   8.256   6.672 -0.8121  0.6528  1.7368
32458SOL    HW297953   7.948   8.367   6.584  0.7543  0.1804  2.0609
32459SOL     OW97954   4.844   7.568   2.548  0.1833 -0.2217  0.0215
32459SOL    HW197955   4.785   7.597   2.478 -1.8109 -1.1910  1.2182
32459SOL    HW297956   4.786   7.535   2.616  2.0941  0.0490  1.8735
32460SOL     OW97957   0.904   0.688   2.494  0.0060  0.0414  0.1341
32460SOL    HW197958   0.934   0.760   2.438 -2.1504  1.3885  0.6101
32460SOL    HW297959   0.835   0.645   2.443 -1.4080  0.7709  1.3465
32461SOL     OW97960   9.858   9.789   5.010 -0.2174 -0.3827  0.3076
32461SOL    HW197961   9.947   9.824   5.019  0.1366 -0.2556 -2.5398
32461SOL    HW297962   9.805   9.845   5.067  1.1260  1.4953 -0.1511
32462SOL     OW97963   3.268   1.308   9.879  0.4357  0.1429 -0.3587
32462SOL    HW197964   3.274   1.215   9.900  2.2998  0.5850  1.3526
32462SOL    HW297965   3.176   1.331   9.895  0.2926 -1.0801  0.7089
32463SOL     OW97966   5.659   9.264   4.887 -0.1425 -0.1065  0.7226
32463SOL    HW197967   5.749   9.296   4.888 -0.7917  1.7901  1.4569
32463SOL    HW297968   5.622   9.300   4.806 -0.2352 -0.9372  0.3880
32464SOL     OW97969   9.688   6.134   3.907 -0.0125  0.3591  0.3223
32464SOL    HW197970   9.699   6.229   3.899 -0.1486  0.3058 -0.6577
32464SOL    HW297971   9.665   6.105   3.818 -1.0941 -0.4462  0.8368
32465SOL     OW97972   9.204   9.042   2.489 -0.0843  0.1228  0.0204
32465SOL    HW197973   9.187   8.973   2.553  1.0203 -0.5959 -0.4282
32465SOL    HW297974   9.152   9.017   2.413  1.4694 -1.1131 -0.7080
32466SOL     OW97975   0.387   7.014   9.282  0.3437 -0.1942 -0.1625
32466SOL    HW197976   0.314   7.066   9.316  1.9487  1.8710  0.3916
32466SOL    HW297977   0.347   6.933   9.251 -1.8459 -0.3219  2.5383
32467SOL     OW97978   7.435   5.174   4.499  0.3044 -0.1828  1.0491
32467SOL    HW197979   7.517   5.184   4.451 -1.5551  2.9923 -1.8904
32467SOL    HW297980   7.444   5.234   4.573  0.1166  1.3909 -0.1593
32468SOL     OW97981   1.151   3.635   4.489  0.3940  0.0005 -0.2892
32468SOL    HW197982   1.111   3.695   4.552  1.0582  0.8944 -0.7000
32468SOL    HW297983   1.230   3.603   4.532 -0.0104 -0.6764 -0.0314
32469SOL     OW97984   6.267   0.650   6.409 -0.4765  0.2054  0.4371
32469SOL    HW197985   6.254   0.727   6.354 -0.3634 -1.6259 -2.3485
32469SOL    HW297986   6.179   0.621   6.433 -0.6069  0.1062 -0.1604
32470SOL     OW97987   5.795   2.856   2.702  0.3858  1.2529  0.5673
32470SOL    HW197988   5.702   2.840   2.720  0.5424  0.2629  0.5714
32470SOL    HW297989   5.824   2.778   2.654  1.0553  1.8527 -0.0367
32471SOL     OW97990   6.889   5.109   0.616 -0.0936 -0.3260 -0.3408
32471SOL    HW197991   6.798   5.134   0.598 -0.3961 -0.8524  0.4090
32471SOL    HW297992   6.923   5.080   0.531 -0.6653 -0.2482 -0.6015
32472SOL     OW97993   8.150   8.240   6.338  0.2905  0.1321 -0.1467
32472SOL    HW197994   8.222   8.199   6.289  1.7445 -1.7288  3.2186
32472SOL    HW297995   8.079   8.177   6.336 -0.1960  0.6897 -1.0087
32473SOL     OW97996   7.728   9.789   7.689 -0.5966  0.3628 -0.0687
32473SOL    HW197997   7.633   9.784   7.678 -0.3657 -3.2923 -1.9285
32473SOL    HW297998   7.751   9.710   7.737  1.5425  1.1821  0.3733
32474SOL     OW97999   7.855   9.789   8.393 -0.4107 -0.7522 -0.3595
32474SOL    HW198000   7.798   9.722   8.431 -0.2985 -0.0998  1.0038
32474SOL    HW298001   7.836   9.868   8.443  2.8362 -0.8641  1.2527
32475SOL     OW98002   2.459   2.326   1.826  0.6217  0.5664 -0.1009
32475SOL    HW198003   2.366   2.347   1.835  0.8959  1.1575  1.8337
32475SOL    HW298004   2.497   2.404   1.785  0.5067  1.0316  0.6504
32476SOL     OW98005   3.128   4.227   3.588 -0.4636  0.1560 -0.3064
32476SOL    HW198006   3.220   4.252   3.592 -0.7082  0.9499  2.6299
32476SOL    HW298007   3.081   4.302   3.622 -2.6924  1.2153 -4.8931
32477SOL     OW98008   0.114   0.313   0.993 -0.4964 -0.2273 -0.4230
32477SOL    HW198009   0.140   0.260   0.918 -1.3366 -0.3218 -0.6620
32477SOL    HW298010   0.023   0.336   0.976 -0.4875  0.3458  0.2295
32478SOL     OW98011   8.399   4.183   3.549  0.3529  0.1650 -0.6213
32478SOL    HW198012   8.356   4.160   3.631 -0.4739 -1.8855 -1.5505
32478SOL    HW298013   8.492   4.191   3.572  0.2112 -0.9249  0.4125
32479SOL     OW98014   1.633   5.061   8.766 -0.2012  0.1445  0.0256
32479SOL    HW198015   1.690   5.108   8.704 -1.9776  1.4542 -0.7047
32479SOL    HW298016   1.614   5.125   8.834  1.5451 -1.2175  1.9160
32480SOL     OW98017   9.260   9.257   8.923  0.0302 -0.0022  0.4023
32480SOL    HW198018   9.231   9.333   8.973  0.8526  0.3491  0.3561
32480SOL    HW298019   9.256   9.285   8.832 -0.8702 -0.4369  0.3005
32481SOL     OW98020   3.055   7.917   0.674 -0.1758 -0.2019 -0.1272
32481SOL    HW198021   3.019   7.973   0.606  0.7381 -1.1007 -1.4226
32481SOL    HW298022   2.996   7.927   0.748  0.4076  3.1030  0.0467
32482SOL     OW98023   2.211   5.124   8.218 -0.4609  0.1787 -0.4144
32482SOL    HW198024   2.266   5.049   8.240  0.4413  0.7835 -0.5305
32482SOL    HW298025   2.170   5.102   8.135 -2.7794 -1.5397  1.0813
32483SOL     OW98026   3.934   4.059   0.647  0.4323  0.5025  0.2755
32483SOL    HW198027   3.910   4.143   0.608  1.6109  0.9281  0.4441
32483SOL    HW298028   4.003   4.080   0.709  2.5994 -0.8709 -1.5171
32484SOL     OW98029   0.496   0.890   7.172 -0.0765  0.1526  0.0502
32484SOL    HW198030   0.436   0.815   7.168 -0.4761  0.3408  1.8852
32484SOL    HW298031   0.543   0.887   7.088  0.3840 -2.5381  0.2951
32485SOL     OW98032   8.346   9.896   8.855 -0.1944  0.1572  0.1665
32485SOL    HW198033   8.287   9.924   8.925 -0.3147  1.5710 -0.4696
32485SOL    HW298034   8.372   9.977   8.812  4.7040  0.0527  2.3105
32486SOL     OW98035   1.204   2.998   4.123  0.2313 -0.6118 -0.0605
32486SOL    HW198036   1.226   3.091   4.126  0.2141 -0.6186  0.2685
32486SOL    HW298037   1.187   2.974   4.214  1.1317 -1.1504 -0.0216
32487SOL     OW98038   6.532   7.950   5.562 -0.1518 -0.6146 -0.5900
32487SOL    HW198039   6.597   7.936   5.493  1.0771  0.0082  0.3786
32487SOL    HW298040   6.532   7.868   5.612 -0.3911 -0.7551 -0.8244
32488SOL     OW98041   0.681   7.168   8.794  0.0972 -0.1559  0.4320
32488SOL    HW198042   0.751   7.122   8.841  0.3113 -1.0621 -0.7373
32488SOL    HW298043   0.727   7.236   8.744 -0.0862  0.5195  1.1539
32489SOL     OW98044   8.586   7.943   6.294  0.1785  0.4726 -0.0320
32489SOL    HW198045   8.627   7.885   6.359 -0.6642 -0.2191 -0.0977
32489SOL    HW298046   8.498   7.958   6.328 -0.3161 -0.0028 -1.0723
32490SOL     OW98047   9.108   2.767   9.026 -0.4448 -0.2973 -0.0430
32490SOL    HW198048   9.024   2.721   9.023 -0.4903 -0.2060 -0.2173
32490SOL    HW298049   9.109   2.819   8.945  0.1859 -1.0203 -0.5107
32491SOL     OW98050   8.459   6.505   2.382 -0.2794  0.0109 -0.4813
32491SOL    HW198051   8.470   6.522   2.288  0.6729  0.0239 -0.3699
32491SOL    HW298052   8.508   6.574   2.425 -0.7968  0.0582  0.0347
32492SOL     OW98053   6.587   6.144   3.254  0.1861  0.5531  0.5656
32492SOL    HW198054   6.521   6.182   3.196  1.5701  0.8513 -0.8954
32492SOL    HW298055   6.541   6.076   3.303 -0.9008 -0.2208 -1.4391
32493SOL     OW98056   9.483   8.188   2.761 -0.3841 -0.1551  0.2377
32493SOL    HW198057   9.441   8.114   2.804  1.6116 -1.8814 -0.6071
32493SOL    HW298058   9.422   8.214   2.693 -0.9558 -1.3057  0.2900
32494SOL     OW98059   6.896   1.977   4.938  0.1605 -0.4917 -0.2457
32494SOL    HW198060   6.806   1.964   4.909  0.2930 -1.9955 -0.0719
32494SOL    HW298061   6.897   2.064   4.976 -1.5705 -0.9472  0.9703
32495SOL     OW98062   0.032   6.797   2.695  0.2757 -0.1790 -0.1553
32495SOL    HW198063   0.102   6.776   2.633  1.1419 -0.0616  0.7465
32495SOL    HW298064   0.021   6.892   2.688  1.7366  0.1510  1.1895
32496SOL     OW98065   9.777   4.831   7.547 -0.5697 -0.2574  0.4890
32496SOL    HW198066   9.795   4.789   7.463  1.9843 -2.4637  1.9403
32496SOL    HW298067   9.845   4.898   7.555  0.4894 -1.4045  1.5503
32497SOL     OW98068   0.331   8.520   4.099 -0.2032  0.1965 -0.0847
32497SOL    HW198069   0.414   8.539   4.142  0.1214 -0.5789 -0.3540
32497SOL    HW298070   0.277   8.598   4.115  1.0231  1.2833 -1.0487
32498SOL     OW98071   2.152   4.839   1.437 -0.8575 -0.3572 -0.1940
32498SOL    HW198072   2.185   4.929   1.434  0.2216 -0.3021  4.7366
32498SOL    HW298073   2.228   4.786   1.462 -2.1433 -2.0970  0.2636
32499SOL     OW98074   2.476   8.807   5.614  0.4628 -0.0689  0.4453
32499SOL    HW198075   2.405   8.772   5.667  0.2717  0.7307  0.7410
32499SOL    HW298076   2.459   8.775   5.525  1.0701 -1.8427  0.9421
32500SOL     OW98077   0.740   6.399   6.971 -0.3951  0.0462 -0.1722
32500SOL    HW198078   0.724   6.487   7.006 -0.7065 -0.8645  2.1153
32500SOL    HW298079   0.830   6.403   6.937  0.3180  0.7292  1.6835
32501SOL     OW98080   4.352   6.238   1.787 -0.2651 -0.6441  0.2869
32501SOL    HW198081   4.424   6.279   1.835 -0.6319 -2.6234  2.7070
32501SOL    HW298082   4.276   6.293   1.806  0.5295  1.6934 -2.6126
32502SOL     OW98083   9.523   0.973   6.021 -0.1780  0.5657 -0.1083
32502SOL    HW198084   9.510   1.018   6.104 -1.7639 -0.0296  0.0065
32502SOL    HW298085   9.605   1.008   5.986  0.2291  1.2147  1.4449
32503SOL     OW98086   5.115   7.935   2.745  0.0095 -0.5335 -0.3955
32503SOL    HW198087   5.061   7.879   2.691 -3.2036 -0.1184  2.0712
32503SOL    HW298088   5.169   7.874   2.796  1.1317 -1.0016 -2.0493
32504SOL     OW98089   5.862   9.640   7.695  0.2319  0.3122 -0.1304
32504SOL    HW198090   5.811   9.597   7.763 -2.2261 -1.8168 -3.0337
32504SOL    HW298091   5.816   9.722   7.678 -0.6532 -0.3129 -0.8475
32505SOL     OW98092   0.232   2.008   7.757  0.6403  0.7057  0.5854
32505SOL    HW198093   0.224   2.050   7.842 -0.6096 -0.0030  0.8450
32505SOL    HW298094   0.160   1.945   7.754 -1.1462  2.6617 -2.0875
32506SOL     OW98095   8.272   2.213   0.649  0.8607 -0.0957 -0.2471
32506SOL    HW198096   8.338   2.154   0.688  2.6869  2.3070  0.5596
32506SOL    HW298097   8.296   2.218   0.557  1.8243  0.7176  0.0303
32507SOL     OW98098   4.220   5.626   1.423 -0.4519  0.1861  0.2370
32507SOL    HW198099   4.222   5.633   1.519 -2.4360 -0.5407  0.3800
32507SOL    HW298100   4.189   5.712   1.394  0.3373  0.4704  0.2309
32508SOL     OW98101   5.516   0.599   6.996  0.2440  0.1938  0.4013
32508SOL    HW198102   5.529   0.691   6.975  0.3231 -0.0130 -0.5159
32508SOL    HW298103   5.429   0.578   6.962  0.7230 -0.3643 -0.5479
32509SOL     OW98104   9.111   3.480   7.851  0.0812 -0.2472  0.6509
32509SOL    HW198105   9.137   3.493   7.942  3.0934  2.6323 -0.3906
32509SOL    HW298106   9.047   3.549   7.834 -2.3342 -2.2546  1.0706
32510SOL     OW98107   5.487   2.643   8.420 -0.4051 -0.1745 -0.4668
32510SOL    HW198108   5.558   2.637   8.484  0.1093 -0.9920 -1.0914
32510SOL    HW298109   5.424   2.704   8.459  0.4554  0.2588  0.2728
32511SOL     OW98110   2.442   9.587   8.345 -0.3683 -0.2963  0.2108
32511SOL    HW198111   2.485   9.526   8.405 -0.5019 -1.2038 -0.5896
32511SOL    HW298112   2.386   9.532   8.291  0.0926  0.4305 -1.0548
32512SOL     OW98113   8.539   5.632   2.783  0.0084  0.3758  0.5367
32512SOL    HW198114   8.539   5.650   2.689 -0.6646  0.8227  0.6145
32512SOL    HW298115   8.593   5.701   2.820  1.7967 -0.8445  0.3124
32513SOL     OW98116   5.978   2.060   7.191 -0.0452  0.6237  0.1791
32513SOL    HW198117   5.968   1.994   7.122 -1.7973  1.0685 -0.0379
32513SOL    HW298118   5.982   2.143   7.144  3.1961  0.7186  0.3756
32514SOL     OW98119   8.902   7.633   6.794  0.2495 -0.2532 -0.1974
32514SOL    HW198120   8.871   7.586   6.717 -0.3539  2.0389 -1.4473
32514SOL    HW298121   8.841   7.609   6.863  1.5968 -3.4374  0.0549
32515SOL     OW98122   5.625   6.097   4.938  0.0381 -0.4404  0.1820
32515SOL    HW198123   5.676   6.016   4.942  1.9687  0.7634  1.2902
32515SOL    HW298124   5.688   6.166   4.956 -1.9182  1.1729  1.2552
32516SOL     OW98125   4.613   8.636   1.914 -0.2979  0.4061 -0.2359
32516SOL    HW198126   4.623   8.565   1.978 -1.4575 -0.2970 -0.7881
32516SOL    HW298127   4.669   8.610   1.841 -0.3304  0.3175 -0.2294
32517SOL     OW98128   6.922   9.226   3.181 -0.6625 -0.3397 -0.1234
32517SOL    HW198129   7.004   9.181   3.201 -0.2070  0.5604  0.0913
32517SOL    HW298130   6.854   9.173   3.222 -0.0893 -0.5635  0.5501
32518SOL     OW98131   0.364   5.708   1.754 -0.0949 -0.3674  0.1104
32518SOL    HW198132   0.437   5.673   1.805 -0.4603 -2.1570 -0.4864
32518SOL    HW298133   0.375   5.669   1.667 -0.7329  0.8196 -0.5230
32519SOL     OW98134   5.887   8.705   5.321 -0.8536  0.2217 -1.0973
32519SOL    HW198135   5.878   8.788   5.367 -1.0168 -0.6749  0.5752
32519SOL    HW298136   5.797   8.679   5.300 -0.8905 -0.0332 -0.6468
32520SOL     OW98137   6.218   6.606   5.954 -0.1233 -0.7757 -1.1213
32520SOL    HW198138   6.173   6.684   5.986 -1.0485 -1.4232 -0.7767
32520SOL    HW298139   6.186   6.595   5.865 -0.0498 -0.8076 -1.1440
32521SOL     OW98140   3.419   4.219   4.203 -0.3830 -0.5791 -0.0982
32521SOL    HW198141   3.390   4.232   4.293 -0.7155 -0.4402 -0.2233
32521SOL    HW298142   3.364   4.278   4.151  1.5146  1.2912 -0.1161
32522SOL     OW98143   3.238   6.514   6.115 -0.2372  0.0998  0.2101
32522SOL    HW198144   3.185   6.589   6.140 -1.5247 -0.7283  0.0497
32522SOL    HW298145   3.248   6.463   6.196 -2.4430 -1.3834 -0.3659
32523SOL     OW98146   1.600   0.377   9.297 -0.2898  0.3271 -0.0122
32523SOL    HW198147   1.622   0.294   9.339 -0.6693  0.1086 -0.2362
32523SOL    HW298148   1.632   0.444   9.357  0.5135  0.0233 -0.0884
32524SOL     OW98149   9.981   9.039   8.882 -0.1394 -0.5988 -0.3385
32524SOL    HW198150   9.891   9.009   8.885  0.1237 -1.6354 -1.8863
32524SOL    HW298151  10.014   9.027   8.971 -2.0381  1.5761  0.7388
32525SOL     OW98152   1.024   1.395   5.608  0.0679  0.0800  0.2753
32525SOL    HW198153   0.977   1.371   5.689  0.4700  1.6703  1.0151
32525SOL    HW298154   1.045   1.311   5.567 -0.8536 -0.7401  1.4185
32526SOL     OW98155   4.200   5.103   9.718  0.3669  0.5952  0.5952
32526SOL    HW198156   4.194   5.188   9.675 -0.7715 -0.3971 -1.3895
32526SOL    HW298157   4.137   5.048   9.670  1.8780 -1.6624  1.0545
32527SOL     OW98158   9.263   4.416   7.797 -0.8832 -0.1149 -0.0958
32527SOL    HW198159   9.338   4.421   7.738 -0.2824 -0.1231  0.6438
32527SOL    HW298160   9.272   4.492   7.854 -2.3373  0.7731 -1.0024
32528SOL     OW98161   2.876   8.258   9.279  0.2989  0.0229 -0.1347
32528SOL    HW198162   2.939   8.316   9.235  1.3164 -0.5459  0.5392
32528SOL    HW298163   2.803   8.315   9.303  1.5762  1.2009  1.1176
32529SOL     OW98164   4.723   4.376   2.904 -0.0497  0.1830  0.4495
32529SOL    HW198165   4.763   4.305   2.954  2.3475  0.2865 -1.1414
32529SOL    HW298166   4.652   4.408   2.960  0.4246 -1.7784  2.3076
32530SOL     OW98167   4.257   4.750   9.266  0.2459  0.0915  0.1115
32530SOL    HW198168   4.302   4.670   9.239 -0.0779 -0.5990  1.5147
32530SOL    HW298169   4.309   4.783   9.339 -0.1485  0.6551  0.1420
32531SOL     OW98170   8.115   8.566   3.166  0.4274  0.3291 -0.4574
32531SOL    HW198171   8.199   8.570   3.121  1.6482  0.6745  1.6799
32531SOL    HW298172   8.127   8.623   3.243 -2.3193  1.7080 -0.9284
32532SOL     OW98173   4.304   4.374   4.366  0.1005  0.1352 -0.3644
32532SOL    HW198174   4.285   4.413   4.280 -2.9061 -1.5736 -0.5951
32532SOL    HW298175   4.219   4.350   4.401  1.3171 -0.0203  2.7840
32533SOL     OW98176   8.227   7.706   7.311 -0.0725 -0.1506  0.4995
32533SOL    HW198177   8.273   7.754   7.380  0.4017 -0.2866  0.2811
32533SOL    HW298178   8.135   7.709   7.337  0.0318  0.3098  0.8294
32534SOL     OW98179   9.669   4.844   0.650 -0.0467 -0.4361 -0.1389
32534SOL    HW198180   9.763   4.824   0.645  0.0455 -0.0404 -0.0065
32534SOL    HW298181   9.631   4.795   0.577  0.0625 -1.6893  0.6094
32535SOL     OW98182   8.330   6.189   2.722 -0.2506  0.1110 -0.3849
32535SOL    HW198183   8.335   6.104   2.678  2.4170 -0.2639  0.4617
32535SOL    HW298184   8.316   6.252   2.651 -1.1257 -0.9004 -1.1469
32536SOL     OW98185   3.648   6.472   8.100 -0.1799  0.0322 -0.3968
32536SOL    HW198186   3.654   6.501   8.191 -0.5420 -0.3543 -0.2469
32536SOL    HW298187   3.620   6.380   8.106 -2.4112  0.6191 -0.9349
32537SOL     OW98188   3.584   8.707   4.670 -0.0972 -0.4318 -0.0454
32537SOL    HW198189   3.589   8.619   4.632 -0.1476 -1.1921  1.6150
32537SOL    HW298190   3.670   8.721   4.709 -0.1744  0.1605 -0.0734
32538SOL     OW98191   2.251   2.844   0.984  0.0866 -0.2468  0.0211
32538SOL    HW198192   2.246   2.939   0.991  0.1203 -0.1669 -0.9207
32538SOL    HW298193   2.317   2.818   1.048 -0.5588  0.2692  0.9197
32539SOL     OW98194   9.186   1.535   3.842  0.2972  0.0679 -0.2610
32539SOL    HW198195   9.093   1.552   3.830  0.2025  0.9295  1.3372
32539SOL    HW298196   9.201   1.452   3.798 -1.1998 -0.0511 -0.6196
32540SOL     OW98197   2.758   1.727   8.810 -0.4256  0.1412 -0.0483
32540SOL    HW198198   2.825   1.792   8.833 -1.4177  1.0285  0.4471
32540SOL    HW298199   2.699   1.726   8.885 -1.7985  0.5016 -1.0719
32541SOL     OW98200   5.953   8.751   4.773 -0.0196  0.2424 -0.0317
32541SOL    HW198201   5.929   8.843   4.765  2.4250  0.9438 -0.1850
32541SOL    HW298202   5.954   8.734   4.867 -2.0349 -0.1480 -0.0317
32542SOL     OW98203   6.174   4.893   7.338  0.4262  0.4494 -0.6665
32542SOL    HW198204   6.217   4.845   7.408  0.2175 -1.3961 -1.7453
32542SOL    HW298205   6.211   4.981   7.343  0.9063  0.1762  1.3008
32543SOL     OW98206   9.551   2.859   6.745 -0.3407  0.1399 -0.2689
32543SOL    HW198207   9.501   2.819   6.674 -3.2350 -0.7632  2.0377
32543SOL    HW298208   9.506   2.943   6.761 -0.4485 -0.1564  1.1245
32544SOL     OW98209   7.904   8.450   5.569 -0.5370  0.4602  0.1256
32544SOL    HW198210   7.814   8.458   5.537 -0.1664 -0.1278 -1.1305
32544SOL    HW298211   7.896   8.460   5.664 -2.1558 -1.0805  0.2199
32545SOL     OW98212   0.107   8.587   2.518 -0.1308 -0.5207 -0.7052
32545SOL    HW198213   0.100   8.645   2.594 -0.2871  1.1068 -1.9014
32545SOL    HW298214   0.018   8.556   2.502 -0.3136  0.1049 -0.9321
32546SOL     OW98215   1.832   3.907   9.703  0.8111 -0.6777 -0.0486
32546SOL    HW198216   1.858   3.817   9.681 -0.3820 -1.6959  2.3119
32546SOL    HW298217   1.791   3.941   9.623  0.8514 -2.3926 -0.8411
32547SOL     OW98218   4.087   9.519   6.766  0.2635  0.1197 -0.4468
32547SOL    HW198219   4.043   9.590   6.721  1.0190  0.1827 -1.0996
32547SOL    HW298220   4.136   9.561   6.836  1.3285  0.3452 -1.3076
32548SOL     OW98221   0.733   8.871   0.623  0.1927 -0.2071 -0.3446
32548SOL    HW198222   0.762   8.856   0.533 -0.2128 -1.2473 -0.3147
32548SOL    HW298223   0.637   8.866   0.618  0.1965 -2.7982  0.5253
32549SOL     OW98224   9.853   3.925   9.397  0.3446  0.0130  0.1048
32549SOL    HW198225   9.766   3.893   9.373  0.6028 -0.5904 -0.0353
32549SOL    HW298226   9.851   3.932   9.493 -0.0604  0.5939  0.0544
32550SOL     OW98227   0.043   8.368   4.113 -0.1032  0.5886 -0.0859
32550SOL    HW198228   0.037   8.337   4.203 -0.8138  0.8174 -0.0547
32550SOL    HW298229   0.136   8.388   4.101 -0.3946  3.4140  1.5528
32551SOL     OW98230   8.338   9.858   6.361 -0.8359 -0.1831 -0.0842
32551SOL    HW198231   8.381   9.887   6.442  0.1634 -0.3596 -0.5377
32551SOL    HW298232   8.408   9.817   6.310 -1.2041  0.8321 -1.4770
32552SOL     OW98233   6.586   8.991   8.522  0.9448 -0.3633 -0.4240
32552SOL    HW198234   6.678   8.966   8.532  0.3952 -2.4063  0.1160
32552SOL    HW298235   6.566   8.972   8.430  0.8991 -0.5307 -0.3796
32553SOL     OW98236   1.227   8.995   9.105  0.3325 -0.8997 -0.4376
32553SOL    HW198237   1.248   9.085   9.082 -1.9505 -0.7932 -2.4925
32553SOL    HW298238   1.265   8.942   9.035  0.1351 -1.3572 -0.2060
32554SOL     OW98239   4.802   4.951   5.031  0.3517  0.3833  0.1711
32554SOL    HW198240   4.881   5.004   5.045  0.5737 -0.1939  1.2199
32554SOL    HW298241   4.754   4.958   5.113 -0.7404  0.7847 -0.4876
32555SOL     OW98242   2.527   6.830   9.117  0.6916 -0.2448  0.1187
32555SOL    HW198243   2.453   6.796   9.168  1.0348 -1.4938 -0.1672
32555SOL    HW298244   2.591   6.858   9.183  0.6442 -0.7388  0.3785
32556SOL     OW98245   7.815   9.364   2.526  0.3908 -1.1065 -0.5119
32556SOL    HW198246   7.868   9.412   2.589 -1.2516 -0.9735  0.8228
32556SOL    HW298247   7.826   9.412   2.444  1.8251 -0.7517 -0.1364
32557NA      NA98248   3.442   1.103   5.458 -0.3146 -0.6076 -0.1700
32558NA      NA98249   1.164   1.941   1.831  0.3843 -0.3721 -0.1637
32559NA      NA98250   7.799   9.659   0.633  0.1445  0.0444  0.3384
32560NA      NA98251   2.473   4.298   6.718 -0.1188 -0.0645 -0.2404
32561NA      NA98252   3.005   8.347   7.344 -0.1450  0.4704 -0.0779
32562NA      NA98253   9.315   2.297   8.752  0.3166 -0.3407 -0.0311
32563NA      NA98254   4.859   3.616   6.169 -0.3957  0.5462 -0.2381
32564NA      NA98255   2.232   2.341   2.798  0.6069  0.6525 -0.4663
32565NA      NA98256   7.083   0.904   6.061 -0.2426 -0.4745  0.1819
32566NA      NA98257   7.462   9.107   8.052 -0.0140  0.4902 -0.4778
32567NA      NA98258   5.680   1.460   1.753  0.1378  0.4374 -0.6111
32568NA      NA98259   5.132   4.415   3.315 -0.0239 -0.1595 -0.2388
32569NA      NA98260   6.464   9.369   5.050  0.4643 -0.7725 -0.2682
32570NA      NA98261   3.386   4.302   3.125 -0.5722 -0.4172  0.1516
32571NA      NA98262   7.392   8.800   6.295  0.1409  0.4242  0.0267
32572NA      NA98263   2.463   6.320   6.692  0.1320 -0.5119  0.0801
32573NA      NA98264   3.675   4.402   4.481 -0.0978  0.0333 -0.0167
32574NA      NA98265   5.188   3.717   3.667 -0.4008  0.2628  0.3411
32575NA      NA98266   2.099   0.834   0.240 -0.1425 -0.4115  0.2835
   9.98379   9.98379   9.98379
